
    -----------------------------------------------------------------------
          Psi4: An Open-Source Ab Initio Electronic Structure Package
                               Psi4 1.3.2 release

                         Git: Rev {HEAD} ecbda83 


    R. M. Parrish, L. A. Burns, D. G. A. Smith, A. C. Simmonett,
    A. E. DePrince III, E. G. Hohenstein, U. Bozkaya, A. Yu. Sokolov,
    R. Di Remigio, R. M. Richard, J. F. Gonthier, A. M. James,
    H. R. McAlexander, A. Kumar, M. Saitow, X. Wang, B. P. Pritchard,
    P. Verma, H. F. Schaefer III, K. Patkowski, R. A. King, E. F. Valeev,
    F. A. Evangelista, J. M. Turney, T. D. Crawford, and C. D. Sherrill,
    J. Chem. Theory Comput. 13(7) pp 3185--3197 (2017).
    (doi: 10.1021/acs.jctc.7b00174)


                         Additional Contributions by
    P. Kraus, H. Kruse, M. H. Lechner, M. C. Schieber, R. A. Shaw,
    A. Alenaizan, R. Galvelis, Z. L. Glick, S. Lehtola, and J. P. Misiewicz

    -----------------------------------------------------------------------


    Psi4 started on: Wednesday, 28 April 2021 08:52AM

    Process ID: 195614
    Host:       bp1-compute00107.data.bp.acrc.priv
    PSIDATADIR: /work/zw18965/.conda/envs/p4env/share/psi4
    Memory:     500.0 MiB
    Threads:    24
    
  ==> Input File <==

--------------------------------------------------------------------------
memory 144 GB

molecule {
0 1
C 0.0000000000 0.0000000000 0.0000000000
C 0.0000000000 0.0000000000 1.2065000000
H 0.0000000000 -0.0000000000 2.2699000000
H -0.0000000000 -0.0000000000 -1.0634000000
}

set dynamic_level 1
set basis aug-cc-pV(T+d)Z
 
optimize("wB97X-V")
frequencies("wB97X-V")
--------------------------------------------------------------------------

  Memory set to 134.110 GiB by Python driver.
gradient() will perform gradient computation by finite difference of analytic energies.

         ----------------------------------------------------------
                                   FINDIF
                     R. A. King and Jonathon Misiewicz
         ---------------------------------------------------------

  Using finite-differences of energies to determine gradients.
    Generating geometries for use with 3-point formula.
    Displacement size will be 5.00e-03.
    Number of atoms is 4.
    Number of symmetric SALCs is 2.
    Translations projected? 1. Rotations projected? 1.
    Number of geometries (including reference) is 5.

  //>>>>>>>>>>>>>>>>>>>>>>>>>>>>>>>>>>>//
  //    Loading displacement 1 of 5    //
  //<<<<<<<<<<<<<<<<<<<<<<<<<<<<<<<<<<<//

*** tstart() called on bp1-compute00107.data.bp.acrc.priv
*** at Wed Apr 28 08:52:59 2021

   => Loading Basis Set <=

    Name: AUG-CC-PV(T+D)Z
    Role: ORBITAL
    Keyword: BASIS
    atoms 1-2 entry C          line   255 file /work/zw18965/.conda/envs/p4env/share/psi4/basis/aug-cc-pv_tpd_z.gbs 
    atoms 3-4 entry H          line    56 file /work/zw18965/.conda/envs/p4env/share/psi4/basis/aug-cc-pv_tpd_z.gbs 


         ---------------------------------------------------------
                                   SCF
               by Justin Turney, Rob Parrish, Andy Simmonett
                          and Daniel G. A. Smith
                              RKS Reference
                       24 Threads, 137329 MiB Core
         ---------------------------------------------------------

  ==> Geometry <==

    Molecular point group: d2h
    Full point group: D_inf_h

    Geometry (in Angstrom), charge = 0, multiplicity = 1:

       Center              X                  Y                   Z               Mass       
    ------------   -----------------  -----------------  -----------------  -----------------
         C            0.000000000000     0.000000000000    -0.603250000000    12.000000000000
         C            0.000000000000     0.000000000000     0.603250000000    12.000000000000
         H            0.000000000000     0.000000000000     1.666650000000     1.007825032230
         H            0.000000000000     0.000000000000    -1.666650000000     1.007825032230

  Running in d2h symmetry.

  Rotational constants: A = ************  B =      1.17616  C =      1.17616 [cm^-1]
  Rotational constants: A = ************  B =  35260.38772  C =  35260.38772 [MHz]
  Nuclear repulsion =   24.717610292828144

  Charge       = 0
  Multiplicity = 1
  Electrons    = 14
  Nalpha       = 7
  Nbeta        = 7

  ==> Algorithm <==

  SCF Algorithm Type is DF.
  DIIS enabled.
  MOM disabled.
  Fractional occupation disabled.
  Guess Type is SAD.
  Energy threshold   = 1.00e-08
  Density threshold  = 1.00e-08
  Integral threshold = 0.00e+00

  ==> Primary Basis <==

  Basis Set: AUG-CC-PV(T+D)Z
    Blend: AUG-CC-PV(T+D)Z
    Number of shells: 46
    Number of basis function: 138
    Number of Cartesian functions: 160
    Spherical Harmonics?: true
    Max angular momentum: 3

  ==> DFT Potential <==

   => Composite Functional: WB97X-V <= 

    wB97X-V Hyb-GGA Exchange-Correlation Functional

    N. Mardirossian and M. Head-Gordon, Phys. Chem. Chem. Phys. 16, 9904 (2014)

    Deriv               =              1
    GGA                 =           TRUE
    Meta                =          FALSE

    Exchange Hybrid     =           TRUE
    MP2 Hybrid          =          FALSE

   => Exchange-Correlation Functionals <=

    1.0000   wB97X-V range-separated functional

   => Exact (HF) Exchange <=

    0.8330            HF,LR [omega = 0.3000]
    0.1670               HF 

   => VV10 Non-Local Parameters <=

    VV10 B              =     6.0000E+00
    VV10 C              =     1.0000E-02

   => Molecular Quadrature <=

    Radial Scheme          =       TREUTLER
    Pruning Scheme         =           FLAT
    Nuclear Scheme         =       TREUTLER

    BS radius alpha        =              1
    Pruning alpha          =              1
    Radial Points          =             75
    Spherical Points       =            302
    Total Points           =          90600
    Total Blocks           =            744
    Max Points             =            256
    Max Functions          =            138

   => Loading Basis Set <=

    Name: (AUG-CC-PV(T+D)Z AUX)
    Role: JKFIT
    Keyword: DF_BASIS_SCF
    atoms 1-2 entry C          line   162 file /work/zw18965/.conda/envs/p4env/share/psi4/basis/aug-cc-pvtz-jkfit.gbs 
    atoms 3-4 entry H          line    70 file /work/zw18965/.conda/envs/p4env/share/psi4/basis/aug-cc-pvtz-jkfit.gbs 

  ==> Pre-Iterations <==

   -------------------------------------------------------
    Irrep   Nso     Nmo     Nalpha   Nbeta   Ndocc  Nsocc
   -------------------------------------------------------
     Ag        30      30       0       0       0       0
     B1g        7       7       0       0       0       0
     B2g       16      16       0       0       0       0
     B3g       16      16       0       0       0       0
     Au         7       7       0       0       0       0
     B1u       30      30       0       0       0       0
     B2u       16      16       0       0       0       0
     B3u       16      16       0       0       0       0
   -------------------------------------------------------
    Total     138     138       7       7       7       0
   -------------------------------------------------------

  ==> Integral Setup <==

  ==> DiskDFJK: Density-Fitted J/K Matrices <==

    J tasked:                  Yes
    K tasked:                  Yes
    wK tasked:                 Yes
    Omega:               3.000E-01
    OpenMP threads:             24
    Integrals threads:          24
    Memory [MiB]:           102650
    Algorithm:                Core
    Integral Cache:           NONE
    Schwarz Cutoff:          1E-12
    Fitting Condition:       1E-10

   => Auxiliary Basis Set <=

  Basis Set: (AUG-CC-PV(T+D)Z AUX)
    Blend: AUG-CC-PVTZ-JKFIT
    Number of shells: 88
    Number of basis function: 300
    Number of Cartesian functions: 372
    Spherical Harmonics?: true
    Max angular momentum: 4

  Cached 100.0% of DFT collocation blocks in 0.338 [GiB].

  Minimum eigenvalue in the overlap matrix is 8.5646635693E-06.
  Using Symmetric Orthogonalization.

  SCF Guess: Superposition of Atomic Densities via on-the-fly atomic UHF.

  ==> Iterations <==

                           Total Energy        Delta E     RMS |[F,P]|

   @DF-RKS iter SAD:   -76.44988619543886   -7.64499e+01   0.00000e+00 
   @DF-RKS iter   1:   -77.23540381412353   -7.85518e-01   8.42567e-03 DIIS
   @DF-RKS iter   2:   -77.29952924028947   -6.41254e-02   4.74043e-03 DIIS
   @DF-RKS iter   3:   -77.33060913816527   -3.10799e-02   1.65973e-04 DIIS
   @DF-RKS iter   4:   -77.33067581052100   -6.66724e-05   1.80250e-05 DIIS
   @DF-RKS iter   5:   -77.33067710986303   -1.29934e-06   1.83852e-06 DIIS
   @DF-RKS iter   6:   -77.33067712161258   -1.17495e-08   3.02430e-07 DIIS
   @DF-RKS iter   7:   -77.33067712192658   -3.14003e-10   3.69768e-08 DIIS
   @DF-RKS iter   8:   -77.33067712193190   -5.31486e-12   5.43802e-09 DIIS
  Energy and wave function converged.


  ==> Post-Iterations <==

    Orbital Energies [Eh]
    ---------------------

    Doubly Occupied:                                                      

       1Ag   -10.283155     1B1u  -10.280740     2Ag    -0.885312  
       2B1u   -0.688220     3Ag    -0.609617     1B3u   -0.399032  
       1B2u   -0.399032  

    Virtual:                                                              

       4Ag     0.033694     3B1u    0.036276     1B3g    0.082797  
       1B2g    0.082797     2B3u    0.094726     2B2u    0.094726  
       5Ag     0.106259     4B1u    0.109204     6Ag     0.139480  
       2B2g    0.149364     2B3g    0.149364     5B1u    0.214156  
       6B1u    0.244526     7Ag     0.255868     3B3u    0.270648  
       3B2u    0.270648     1B1g    0.280758     8Ag     0.280759  
       3B3g    0.366334     3B2g    0.366334     9Ag     0.369002  
       7B1u    0.382454     1Au     0.386471     8B1u    0.386471  
      10Ag     0.396100     4B2g    0.405897     4B3g    0.405897  
       4B2u    0.450770     4B3u    0.450770     9B1u    0.495934  
      10B1u    0.566040     5B2u    0.571302     5B3u    0.571302  
      11Ag     0.597573     5B2g    0.786238     5B3g    0.786238  
      11B1u    0.842792     2B1g    0.842869    12Ag     0.842869  
      13Ag     0.847428     6B2u    0.890605     6B3u    0.890605  
      14Ag     0.920010     3B1g    0.939227    15Ag     0.939227  
      12B1u    0.980669     2Au     0.980670     6B2g    0.981490  
       6B3g    0.981490     7B3u    0.987325     7B2u    0.987325  
      13B1u    0.990063    16Ag     1.089218     8B3u    1.108421  
       8B2u    1.108421    14B1u    1.133299     3Au     1.133302  
      15B1u    1.153596     7B3g    1.235643     7B2g    1.235643  
      16B1u    1.241225     8B3g    1.328191     8B2g    1.328191  
       9B2u    1.465343     9B3u    1.465343    17Ag     1.560615  
       4B1g    1.560623     9B2g    1.663539     9B3g    1.663539  
      18Ag     1.690343    10B3u    1.802139    10B2u    1.802139  
      17B1u    1.840530    19Ag     1.902790     4Au     1.930890  
      18B1u    1.930903    19B1u    2.031163    20Ag     2.059735  
      10B3g    2.242442    10B2g    2.242442    11B2u    2.606331  
      11B3u    2.606331    20B1u    2.657610    21Ag     2.809180  
      21B1u    2.912781     5B1g    2.962968    22Ag     2.962970  
      11B2g    2.999896    11B3g    2.999896    12B3u    3.119451  
      12B2u    3.119451    13B3u    3.170976    13B2u    3.170976  
      22B1u    3.246401     5Au     3.246406    23Ag     3.372926  
       6B1g    3.372933    24Ag     3.401477    12B3g    3.499901  
      12B2g    3.499901    25Ag     3.521884    14B3u    3.586727  
      14B2u    3.586727    13B2g    3.625566    13B3g    3.625566  
      23B1u    3.665570     6Au     3.901123    24B1u    3.901127  
      26Ag     3.971161     7B1g    3.971165    25B1u    4.100392  
      26B1u    4.458659     7Au     4.458659    27Ag     4.477251  
      15B2u    4.550688    15B3u    4.550688    14B3g    4.554362  
      14B2g    4.554362    15B3g    4.831555    15B2g    4.831555  
      27B1u    5.070565    28Ag     5.152038    16B2u    5.603581  
      16B3u    5.603581    28B1u    5.937019    29B1u    6.435302  
      16B3g    6.535687    16B2g    6.535687    29Ag     6.671047  
      30Ag    13.239765    30B1u   18.848429  

    Final Occupation by Irrep:
             Ag   B1g   B2g   B3g    Au   B1u   B2u   B3u 
    DOCC [     3,    0,    0,    0,    0,    2,    1,    1 ]

  @DF-RKS Final Energy:   -77.33067712193190

   => Energetics <=

    Nuclear Repulsion Energy =             24.7176102928281445
    One-Electron Energy =                -151.7754630303639658
    Two-Electron Energy =                  57.5512566645544723
    DFT Exchange-Correlation Energy =      -7.8818062662267341
    Empirical Dispersion Energy =           0.0000000000000000
    VV10 Nonlocal Energy =                  0.0577252172761765
    Total Energy =                        -77.3306771219319131

Computation Completed


Properties will be evaluated at   0.000000,   0.000000,   0.000000 [a0]

Properties computed using the SCF density matrix

  Nuclear Dipole Moment: [e a0]
     X:     0.0000      Y:     0.0000      Z:    -0.0000

  Electronic Dipole Moment: [e a0]
     X:     0.0000      Y:     0.0000      Z:     0.0000

  Dipole Moment: [e a0]
     X:     0.0000      Y:     0.0000      Z:    -0.0000     Total:     0.0000

  Dipole Moment: [D]
     X:     0.0000      Y:     0.0000      Z:    -0.0000     Total:     0.0000


*** tstop() called on bp1-compute00107.data.bp.acrc.priv at Wed Apr 28 08:53:03 2021
Module time:
	user time   =      83.48 seconds =       1.39 minutes
	system time =       4.13 seconds =       0.07 minutes
	total time  =          4 seconds =       0.07 minutes
Total time:
	user time   =      83.48 seconds =       1.39 minutes
	system time =       4.13 seconds =       0.07 minutes
	total time  =          4 seconds =       0.07 minutes

  //>>>>>>>>>>>>>>>>>>>>>>>>>>>>>>>>>>>//
  //    Loading displacement 2 of 5    //
  //<<<<<<<<<<<<<<<<<<<<<<<<<<<<<<<<<<<//

*** tstart() called on bp1-compute00107.data.bp.acrc.priv
*** at Wed Apr 28 08:53:03 2021

   => Loading Basis Set <=

    Name: AUG-CC-PV(T+D)Z
    Role: ORBITAL
    Keyword: BASIS
    atoms 1-2 entry C          line   255 file /work/zw18965/.conda/envs/p4env/share/psi4/basis/aug-cc-pv_tpd_z.gbs 
    atoms 3-4 entry H          line    56 file /work/zw18965/.conda/envs/p4env/share/psi4/basis/aug-cc-pv_tpd_z.gbs 


         ---------------------------------------------------------
                                   SCF
               by Justin Turney, Rob Parrish, Andy Simmonett
                          and Daniel G. A. Smith
                              RKS Reference
                       24 Threads, 137329 MiB Core
         ---------------------------------------------------------

  ==> Geometry <==

    Molecular point group: d2h
    Full point group: D_inf_h

    Geometry (in Angstrom), charge = 0, multiplicity = 1:

       Center              X                  Y                   Z               Mass       
    ------------   -----------------  -----------------  -----------------  -----------------
         C            0.000000000000     0.000000000000    -0.603790089229    12.000000000000
         C            0.000000000000     0.000000000000     0.603790089229    12.000000000000
         H            0.000000000000     0.000000000000     1.666650000000     1.007825032230
         H            0.000000000000     0.000000000000    -1.666650000000     1.007825032230

  Running in d2h symmetry.

  Rotational constants: A = ************  B =      1.17488  C =      1.17488 [cm^-1]
  Rotational constants: A = ************  B =  35221.93903  C =  35221.93903 [MHz]
  Nuclear repulsion =   24.705855296097269

  Charge       = 0
  Multiplicity = 1
  Electrons    = 14
  Nalpha       = 7
  Nbeta        = 7

  ==> Algorithm <==

  SCF Algorithm Type is DF.
  DIIS enabled.
  MOM disabled.
  Fractional occupation disabled.
  Guess Type is SAD.
  Energy threshold   = 1.00e-08
  Density threshold  = 1.00e-08
  Integral threshold = 0.00e+00

  ==> Primary Basis <==

  Basis Set: AUG-CC-PV(T+D)Z
    Blend: AUG-CC-PV(T+D)Z
    Number of shells: 46
    Number of basis function: 138
    Number of Cartesian functions: 160
    Spherical Harmonics?: true
    Max angular momentum: 3

  ==> DFT Potential <==

   => Composite Functional: WB97X-V <= 

    wB97X-V Hyb-GGA Exchange-Correlation Functional

    N. Mardirossian and M. Head-Gordon, Phys. Chem. Chem. Phys. 16, 9904 (2014)

    Deriv               =              1
    GGA                 =           TRUE
    Meta                =          FALSE

    Exchange Hybrid     =           TRUE
    MP2 Hybrid          =          FALSE

   => Exchange-Correlation Functionals <=

    1.0000   wB97X-V range-separated functional

   => Exact (HF) Exchange <=

    0.8330            HF,LR [omega = 0.3000]
    0.1670               HF 

   => VV10 Non-Local Parameters <=

    VV10 B              =     6.0000E+00
    VV10 C              =     1.0000E-02

   => Molecular Quadrature <=

    Radial Scheme          =       TREUTLER
    Pruning Scheme         =           FLAT
    Nuclear Scheme         =       TREUTLER

    BS radius alpha        =              1
    Pruning alpha          =              1
    Radial Points          =             75
    Spherical Points       =            302
    Total Points           =          90600
    Total Blocks           =            744
    Max Points             =            256
    Max Functions          =            138

   => Loading Basis Set <=

    Name: (AUG-CC-PV(T+D)Z AUX)
    Role: JKFIT
    Keyword: DF_BASIS_SCF
    atoms 1-2 entry C          line   162 file /work/zw18965/.conda/envs/p4env/share/psi4/basis/aug-cc-pvtz-jkfit.gbs 
    atoms 3-4 entry H          line    70 file /work/zw18965/.conda/envs/p4env/share/psi4/basis/aug-cc-pvtz-jkfit.gbs 

  ==> Pre-Iterations <==

   -------------------------------------------------------
    Irrep   Nso     Nmo     Nalpha   Nbeta   Ndocc  Nsocc
   -------------------------------------------------------
     Ag        30      30       0       0       0       0
     B1g        7       7       0       0       0       0
     B2g       16      16       0       0       0       0
     B3g       16      16       0       0       0       0
     Au         7       7       0       0       0       0
     B1u       30      30       0       0       0       0
     B2u       16      16       0       0       0       0
     B3u       16      16       0       0       0       0
   -------------------------------------------------------
    Total     138     138       7       7       7       0
   -------------------------------------------------------

  ==> Integral Setup <==

  ==> DiskDFJK: Density-Fitted J/K Matrices <==

    J tasked:                  Yes
    K tasked:                  Yes
    wK tasked:                 Yes
    Omega:               3.000E-01
    OpenMP threads:             24
    Integrals threads:          24
    Memory [MiB]:           102650
    Algorithm:                Core
    Integral Cache:           NONE
    Schwarz Cutoff:          1E-12
    Fitting Condition:       1E-10

   => Auxiliary Basis Set <=

  Basis Set: (AUG-CC-PV(T+D)Z AUX)
    Blend: AUG-CC-PVTZ-JKFIT
    Number of shells: 88
    Number of basis function: 300
    Number of Cartesian functions: 372
    Spherical Harmonics?: true
    Max angular momentum: 4

  Cached 100.0% of DFT collocation blocks in 0.338 [GiB].

  Minimum eigenvalue in the overlap matrix is 8.5892445472E-06.
  Using Symmetric Orthogonalization.

  SCF Guess: Superposition of Atomic Densities via on-the-fly atomic UHF.

  ==> Iterations <==

                           Total Energy        Delta E     RMS |[F,P]|

   @DF-RKS iter SAD:   -76.44904010321932   -7.64490e+01   0.00000e+00 
   @DF-RKS iter   1:   -77.23573795733525   -7.86698e-01   8.40609e-03 DIIS
   @DF-RKS iter   2:   -77.29966846720639   -6.39305e-02   4.72563e-03 DIIS
   @DF-RKS iter   3:   -77.33055804514882   -3.08896e-02   1.65452e-04 DIIS
   @DF-RKS iter   4:   -77.33062452749883   -6.64824e-05   1.80214e-05 DIIS
   @DF-RKS iter   5:   -77.33062582627397   -1.29878e-06   1.82800e-06 DIIS
   @DF-RKS iter   6:   -77.33062583797630   -1.17023e-08   3.03133e-07 DIIS
   @DF-RKS iter   7:   -77.33062583829064   -3.14344e-10   3.66182e-08 DIIS
   @DF-RKS iter   8:   -77.33062583829593   -5.28644e-12   5.37106e-09 DIIS
  Energy and wave function converged.


  ==> Post-Iterations <==

    Orbital Energies [Eh]
    ---------------------

    Doubly Occupied:                                                      

       1Ag   -10.283430     1B1u  -10.281035     2Ag    -0.885155  
       2B1u   -0.688532     3Ag    -0.609742     1B2u   -0.398870  
       1B3u   -0.398870  

    Virtual:                                                              

       4Ag     0.033689     3B1u    0.036288     1B3g    0.082677  
       1B2g    0.082677     2B2u    0.094735     2B3u    0.094735  
       5Ag     0.106269     4B1u    0.109225     6Ag     0.139454  
       2B2g    0.149173     2B3g    0.149173     5B1u    0.214139  
       6B1u    0.244480     7Ag     0.255969     3B3u    0.270654  
       3B2u    0.270654     1B1g    0.280725     8Ag     0.280726  
       3B2g    0.366254     3B3g    0.366254     9Ag     0.368929  
       7B1u    0.382386     1Au     0.386450     8B1u    0.386451  
      10Ag     0.396113     4B2g    0.405831     4B3g    0.405831  
       4B2u    0.450811     4B3u    0.450811     9B1u    0.495779  
      10B1u    0.565935     5B3u    0.571363     5B2u    0.571363  
      11Ag     0.597689     5B2g    0.786172     5B3g    0.786172  
      11B1u    0.842331     2B1g    0.842823    12Ag     0.842824  
      13Ag     0.847258     6B2u    0.890608     6B3u    0.890608  
      14Ag     0.919801     3B1g    0.939223    15Ag     0.939223  
      12B1u    0.980582     2Au     0.980583     6B2g    0.981366  
       6B3g    0.981366     7B2u    0.987263     7B3u    0.987263  
      13B1u    0.990088    16Ag     1.089306     8B3u    1.108257  
       8B2u    1.108257    14B1u    1.133413     3Au     1.133416  
      15B1u    1.153420     7B3g    1.235470     7B2g    1.235470  
      16B1u    1.240526     8B3g    1.328111     8B2g    1.328111  
       9B3u    1.465925     9B2u    1.465925    17Ag     1.560445  
       4B1g    1.560453     9B2g    1.663452     9B3g    1.663452  
      18Ag     1.689561    10B2u    1.801854    10B3u    1.801854  
      17B1u    1.840482    19Ag     1.903017     4Au     1.930657  
      18B1u    1.930670    19B1u    2.030476    20Ag     2.058911  
      10B2g    2.242527    10B3g    2.242527    11B2u    2.606516  
      11B3u    2.606516    20B1u    2.657281    21Ag     2.809410  
      21B1u    2.911603     5B1g    2.963247    22Ag     2.963248  
      11B2g    2.999296    11B3g    2.999296    12B3u    3.118853  
      12B2u    3.118853    13B2u    3.171225    13B3u    3.171225  
      22B1u    3.246147     5Au     3.246151    23Ag     3.372396  
       6B1g    3.372403    24Ag     3.400688    12B3g    3.499357  
      12B2g    3.499357    25Ag     3.521546    14B2u    3.586084  
      14B3u    3.586084    13B2g    3.625549    13B3g    3.625549  
      23B1u    3.665980     6Au     3.900517    24B1u    3.900521  
      26Ag     3.971304     7B1g    3.971308    25B1u    4.100280  
      26B1u    4.458192     7Au     4.458192    27Ag     4.476197  
      15B2u    4.551195    15B3u    4.551195    14B2g    4.553687  
      14B3g    4.553687    15B2g    4.831677    15B3g    4.831677  
      27B1u    5.072002    28Ag     5.152976    16B3u    5.603645  
      16B2u    5.603645    28B1u    5.938294    29B1u    6.434583  
      16B2g    6.536106    16B3g    6.536106    29Ag     6.668820  
      30Ag    13.251167    30B1u   18.819077  

    Final Occupation by Irrep:
             Ag   B1g   B2g   B3g    Au   B1u   B2u   B3u 
    DOCC [     3,    0,    0,    0,    0,    2,    1,    1 ]

  @DF-RKS Final Energy:   -77.33062583829593

   => Energetics <=

    Nuclear Repulsion Energy =             24.7058552960972690
    One-Electron Energy =                -151.7511134152039176
    Two-Electron Energy =                  57.5382070239313705
    DFT Exchange-Correlation Energy =      -7.8812998042983446
    Empirical Dispersion Energy =           0.0000000000000000
    VV10 Nonlocal Energy =                  0.0577250611776944
    Total Energy =                        -77.3306258382959442

Computation Completed


Properties will be evaluated at   0.000000,   0.000000,   0.000000 [a0]

Properties computed using the SCF density matrix

  Nuclear Dipole Moment: [e a0]
     X:     0.0000      Y:     0.0000      Z:     0.0000

  Electronic Dipole Moment: [e a0]
     X:     0.0000      Y:     0.0000      Z:     0.0000

  Dipole Moment: [e a0]
     X:     0.0000      Y:     0.0000      Z:     0.0000     Total:     0.0000

  Dipole Moment: [D]
     X:     0.0000      Y:     0.0000      Z:     0.0000     Total:     0.0000


*** tstop() called on bp1-compute00107.data.bp.acrc.priv at Wed Apr 28 08:53:07 2021
Module time:
	user time   =      85.39 seconds =       1.42 minutes
	system time =       3.10 seconds =       0.05 minutes
	total time  =          4 seconds =       0.07 minutes
Total time:
	user time   =     169.04 seconds =       2.82 minutes
	system time =       7.24 seconds =       0.12 minutes
	total time  =          8 seconds =       0.13 minutes

  //>>>>>>>>>>>>>>>>>>>>>>>>>>>>>>>>>>>//
  //    Loading displacement 3 of 5    //
  //<<<<<<<<<<<<<<<<<<<<<<<<<<<<<<<<<<<//

*** tstart() called on bp1-compute00107.data.bp.acrc.priv
*** at Wed Apr 28 08:53:07 2021

   => Loading Basis Set <=

    Name: AUG-CC-PV(T+D)Z
    Role: ORBITAL
    Keyword: BASIS
    atoms 1-2 entry C          line   255 file /work/zw18965/.conda/envs/p4env/share/psi4/basis/aug-cc-pv_tpd_z.gbs 
    atoms 3-4 entry H          line    56 file /work/zw18965/.conda/envs/p4env/share/psi4/basis/aug-cc-pv_tpd_z.gbs 


         ---------------------------------------------------------
                                   SCF
               by Justin Turney, Rob Parrish, Andy Simmonett
                          and Daniel G. A. Smith
                              RKS Reference
                       24 Threads, 137329 MiB Core
         ---------------------------------------------------------

  ==> Geometry <==

    Molecular point group: d2h
    Full point group: D_inf_h

    Geometry (in Angstrom), charge = 0, multiplicity = 1:

       Center              X                  Y                   Z               Mass       
    ------------   -----------------  -----------------  -----------------  -----------------
         C            0.000000000000     0.000000000000    -0.602709910771    12.000000000000
         C            0.000000000000     0.000000000000     0.602709910771    12.000000000000
         H            0.000000000000     0.000000000000     1.666650000000     1.007825032230
         H            0.000000000000     0.000000000000    -1.666650000000     1.007825032230

  Running in d2h symmetry.

  Rotational constants: A = ************  B =      1.17744  C =      1.17744 [cm^-1]
  Rotational constants: A = ************  B =  35298.88593  C =  35298.88593 [MHz]
  Nuclear repulsion =   24.729394000008451

  Charge       = 0
  Multiplicity = 1
  Electrons    = 14
  Nalpha       = 7
  Nbeta        = 7

  ==> Algorithm <==

  SCF Algorithm Type is DF.
  DIIS enabled.
  MOM disabled.
  Fractional occupation disabled.
  Guess Type is SAD.
  Energy threshold   = 1.00e-08
  Density threshold  = 1.00e-08
  Integral threshold = 0.00e+00

  ==> Primary Basis <==

  Basis Set: AUG-CC-PV(T+D)Z
    Blend: AUG-CC-PV(T+D)Z
    Number of shells: 46
    Number of basis function: 138
    Number of Cartesian functions: 160
    Spherical Harmonics?: true
    Max angular momentum: 3

  ==> DFT Potential <==

   => Composite Functional: WB97X-V <= 

    wB97X-V Hyb-GGA Exchange-Correlation Functional

    N. Mardirossian and M. Head-Gordon, Phys. Chem. Chem. Phys. 16, 9904 (2014)

    Deriv               =              1
    GGA                 =           TRUE
    Meta                =          FALSE

    Exchange Hybrid     =           TRUE
    MP2 Hybrid          =          FALSE

   => Exchange-Correlation Functionals <=

    1.0000   wB97X-V range-separated functional

   => Exact (HF) Exchange <=

    0.8330            HF,LR [omega = 0.3000]
    0.1670               HF 

   => VV10 Non-Local Parameters <=

    VV10 B              =     6.0000E+00
    VV10 C              =     1.0000E-02

   => Molecular Quadrature <=

    Radial Scheme          =       TREUTLER
    Pruning Scheme         =           FLAT
    Nuclear Scheme         =       TREUTLER

    BS radius alpha        =              1
    Pruning alpha          =              1
    Radial Points          =             75
    Spherical Points       =            302
    Total Points           =          90600
    Total Blocks           =            744
    Max Points             =            256
    Max Functions          =            138

   => Loading Basis Set <=

    Name: (AUG-CC-PV(T+D)Z AUX)
    Role: JKFIT
    Keyword: DF_BASIS_SCF
    atoms 1-2 entry C          line   162 file /work/zw18965/.conda/envs/p4env/share/psi4/basis/aug-cc-pvtz-jkfit.gbs 
    atoms 3-4 entry H          line    70 file /work/zw18965/.conda/envs/p4env/share/psi4/basis/aug-cc-pvtz-jkfit.gbs 

  ==> Pre-Iterations <==

   -------------------------------------------------------
    Irrep   Nso     Nmo     Nalpha   Nbeta   Ndocc  Nsocc
   -------------------------------------------------------
     Ag        30      30       0       0       0       0
     B1g        7       7       0       0       0       0
     B2g       16      16       0       0       0       0
     B3g       16      16       0       0       0       0
     Au         7       7       0       0       0       0
     B1u       30      30       0       0       0       0
     B2u       16      16       0       0       0       0
     B3u       16      16       0       0       0       0
   -------------------------------------------------------
    Total     138     138       7       7       7       0
   -------------------------------------------------------

  ==> Integral Setup <==

  ==> DiskDFJK: Density-Fitted J/K Matrices <==

    J tasked:                  Yes
    K tasked:                  Yes
    wK tasked:                 Yes
    Omega:               3.000E-01
    OpenMP threads:             24
    Integrals threads:          24
    Memory [MiB]:           102650
    Algorithm:                Core
    Integral Cache:           NONE
    Schwarz Cutoff:          1E-12
    Fitting Condition:       1E-10

   => Auxiliary Basis Set <=

  Basis Set: (AUG-CC-PV(T+D)Z AUX)
    Blend: AUG-CC-PVTZ-JKFIT
    Number of shells: 88
    Number of basis function: 300
    Number of Cartesian functions: 372
    Spherical Harmonics?: true
    Max angular momentum: 4

  Cached 100.0% of DFT collocation blocks in 0.338 [GiB].

  Minimum eigenvalue in the overlap matrix is 8.5401790067E-06.
  Using Symmetric Orthogonalization.

  SCF Guess: Superposition of Atomic Densities via on-the-fly atomic UHF.

  ==> Iterations <==

                           Total Energy        Delta E     RMS |[F,P]|

   @DF-RKS iter SAD:   -76.45073040005319   -7.64507e+01   0.00000e+00 
   @DF-RKS iter   1:   -77.23506261235526   -7.84332e-01   8.44531e-03 DIIS
   @DF-RKS iter   2:   -77.29938361392998   -6.43210e-02   4.75529e-03 DIIS
   @DF-RKS iter   3:   -77.33065512057023   -3.12715e-02   1.66501e-04 DIIS
   @DF-RKS iter   4:   -77.33072198764894   -6.68671e-05   1.80295e-05 DIIS
   @DF-RKS iter   5:   -77.33072328765779   -1.30001e-06   1.84937e-06 DIIS
   @DF-RKS iter   6:   -77.33072329945904   -1.18012e-08   3.01758e-07 DIIS
   @DF-RKS iter   7:   -77.33072329977287   -3.13833e-10   3.73218e-08 DIIS
   @DF-RKS iter   8:   -77.33072329977816   -5.28644e-12   5.49180e-09 DIIS
  Energy and wave function converged.


  ==> Post-Iterations <==

    Orbital Energies [Eh]
    ---------------------

    Doubly Occupied:                                                      

       1Ag   -10.282881     1B1u  -10.280445     2Ag    -0.885470  
       2B1u   -0.687908     3Ag    -0.609491     1B3u   -0.399195  
       1B2u   -0.399195  

    Virtual:                                                              

       4Ag     0.033701     3B1u    0.036271     1B3g    0.082916  
       1B2g    0.082916     2B3u    0.094717     2B2u    0.094717  
       5Ag     0.106250     4B1u    0.109188     6Ag     0.139508  
       2B2g    0.149555     2B3g    0.149555     5B1u    0.214173  
       6B1u    0.244572     7Ag     0.255768     3B3u    0.270642  
       3B2u    0.270642     1B1g    0.280791     8Ag     0.280792  
       3B3g    0.366414     3B2g    0.366414     9Ag     0.369075  
       7B1u    0.382521     1Au     0.386491     8B1u    0.386492  
      10Ag     0.396087     4B3g    0.405963     4B2g    0.405963  
       4B3u    0.450727     4B2u    0.450727     9B1u    0.496088  
      10B1u    0.566144     5B3u    0.571242     5B2u    0.571242  
      11Ag     0.597457     5B3g    0.786304     5B2g    0.786304  
       2B1g    0.842914    12Ag     0.842914    11B1u    0.843252  
      13Ag     0.847598     6B2u    0.890601     6B3u    0.890601  
      14Ag     0.920221     3B1g    0.939232    15Ag     0.939232  
      12B1u    0.980756     2Au     0.980756     6B3g    0.981615  
       6B2g    0.981615     7B3u    0.987386     7B2u    0.987386  
      13B1u    0.990037    16Ag     1.089131     8B2u    1.108585  
       8B3u    1.108585    14B1u    1.133185     3Au     1.133188  
      15B1u    1.153771     7B3g    1.235817     7B2g    1.235817  
      16B1u    1.241931     8B3g    1.328272     8B2g    1.328272  
       9B3u    1.464761     9B2u    1.464761    17Ag     1.560786  
       4B1g    1.560793     9B3g    1.663626     9B2g    1.663626  
      18Ag     1.691124    10B3u    1.802425    10B2u    1.802425  
      17B1u    1.840578    19Ag     1.902552     4Au     1.931124  
      18B1u    1.931137    19B1u    2.031852    20Ag     2.060580  
      10B2g    2.242356    10B3g    2.242356    11B2u    2.606145  
      11B3u    2.606145    20B1u    2.657936    21Ag     2.808952  
      21B1u    2.913979     5B1g    2.962691    22Ag     2.962693  
      11B3g    3.000496    11B2g    3.000496    12B2u    3.120048  
      12B3u    3.120048    13B2u    3.170728    13B3u    3.170728  
      22B1u    3.246656     5Au     3.246660    23Ag     3.373457  
       6B1g    3.373464    24Ag     3.402260    12B3g    3.500445  
      12B2g    3.500445    25Ag     3.522225    14B3u    3.587372  
      14B2u    3.587372    13B3g    3.625584    13B2g    3.625584  
      23B1u    3.665164     6Au     3.901729    24B1u    3.901733  
      26Ag     3.971020     7B1g    3.971024    25B1u    4.100503  
      26B1u    4.459128     7Au     4.459128    27Ag     4.478305  
      15B2u    4.550181    15B3u    4.550181    14B2g    4.555034  
      14B3g    4.555034    15B3g    4.831433    15B2g    4.831433  
      27B1u    5.069146    28Ag     5.151106    16B3u    5.603517  
      16B2u    5.603517    28B1u    5.935764    29B1u    6.436055  
      16B2g    6.535269    16B3g    6.535269    29Ag     6.673291  
      30Ag    13.228374    30B1u   18.877795  

    Final Occupation by Irrep:
             Ag   B1g   B2g   B3g    Au   B1u   B2u   B3u 
    DOCC [     3,    0,    0,    0,    0,    2,    1,    1 ]

  @DF-RKS Final Energy:   -77.33072329977816

   => Energetics <=

    Nuclear Repulsion Energy =             24.7293940000084511
    One-Electron Energy =                -151.7998580723134410
    Two-Electron Energy =                  57.5643300173850392
    DFT Exchange-Correlation Energy =      -7.8823146217667910
    Empirical Dispersion Energy =           0.0000000000000000
    VV10 Nonlocal Energy =                  0.0577253769085716
    Total Energy =                        -77.3307232997781711

Computation Completed


Properties will be evaluated at   0.000000,   0.000000,   0.000000 [a0]

Properties computed using the SCF density matrix

  Nuclear Dipole Moment: [e a0]
     X:     0.0000      Y:     0.0000      Z:     0.0000

  Electronic Dipole Moment: [e a0]
     X:     0.0000      Y:     0.0000      Z:     0.0000

  Dipole Moment: [e a0]
     X:     0.0000      Y:     0.0000      Z:     0.0000     Total:     0.0000

  Dipole Moment: [D]
     X:     0.0000      Y:     0.0000      Z:     0.0000     Total:     0.0000


*** tstop() called on bp1-compute00107.data.bp.acrc.priv at Wed Apr 28 08:53:10 2021
Module time:
	user time   =      78.90 seconds =       1.32 minutes
	system time =       2.11 seconds =       0.04 minutes
	total time  =          3 seconds =       0.05 minutes
Total time:
	user time   =     248.10 seconds =       4.13 minutes
	system time =       9.35 seconds =       0.16 minutes
	total time  =         11 seconds =       0.18 minutes

  //>>>>>>>>>>>>>>>>>>>>>>>>>>>>>>>>>>>//
  //    Loading displacement 4 of 5    //
  //<<<<<<<<<<<<<<<<<<<<<<<<<<<<<<<<<<<//

*** tstart() called on bp1-compute00107.data.bp.acrc.priv
*** at Wed Apr 28 08:53:10 2021

   => Loading Basis Set <=

    Name: AUG-CC-PV(T+D)Z
    Role: ORBITAL
    Keyword: BASIS
    atoms 1-2 entry C          line   255 file /work/zw18965/.conda/envs/p4env/share/psi4/basis/aug-cc-pv_tpd_z.gbs 
    atoms 3-4 entry H          line    56 file /work/zw18965/.conda/envs/p4env/share/psi4/basis/aug-cc-pv_tpd_z.gbs 


         ---------------------------------------------------------
                                   SCF
               by Justin Turney, Rob Parrish, Andy Simmonett
                          and Daniel G. A. Smith
                              RKS Reference
                       24 Threads, 137329 MiB Core
         ---------------------------------------------------------

  ==> Geometry <==

    Molecular point group: d2h
    Full point group: D_inf_h

    Geometry (in Angstrom), charge = 0, multiplicity = 1:

       Center              X                  Y                   Z               Mass       
    ------------   -----------------  -----------------  -----------------  -----------------
         C            0.000000000000     0.000000000000    -0.603250000000    12.000000000000
         C            0.000000000000     0.000000000000     0.603250000000    12.000000000000
         H            0.000000000000     0.000000000000     1.664786353368     1.007825032230
         H            0.000000000000     0.000000000000    -1.664786353368     1.007825032230

  Running in d2h symmetry.

  Rotational constants: A = ************  B =      1.17719  C =      1.17719 [cm^-1]
  Rotational constants: A = ************  B =  35291.20161  C =  35291.20161 [MHz]
  Nuclear repulsion =   24.730570443607064

  Charge       = 0
  Multiplicity = 1
  Electrons    = 14
  Nalpha       = 7
  Nbeta        = 7

  ==> Algorithm <==

  SCF Algorithm Type is DF.
  DIIS enabled.
  MOM disabled.
  Fractional occupation disabled.
  Guess Type is SAD.
  Energy threshold   = 1.00e-08
  Density threshold  = 1.00e-08
  Integral threshold = 0.00e+00

  ==> Primary Basis <==

  Basis Set: AUG-CC-PV(T+D)Z
    Blend: AUG-CC-PV(T+D)Z
    Number of shells: 46
    Number of basis function: 138
    Number of Cartesian functions: 160
    Spherical Harmonics?: true
    Max angular momentum: 3

  ==> DFT Potential <==

   => Composite Functional: WB97X-V <= 

    wB97X-V Hyb-GGA Exchange-Correlation Functional

    N. Mardirossian and M. Head-Gordon, Phys. Chem. Chem. Phys. 16, 9904 (2014)

    Deriv               =              1
    GGA                 =           TRUE
    Meta                =          FALSE

    Exchange Hybrid     =           TRUE
    MP2 Hybrid          =          FALSE

   => Exchange-Correlation Functionals <=

    1.0000   wB97X-V range-separated functional

   => Exact (HF) Exchange <=

    0.8330            HF,LR [omega = 0.3000]
    0.1670               HF 

   => VV10 Non-Local Parameters <=

    VV10 B              =     6.0000E+00
    VV10 C              =     1.0000E-02

   => Molecular Quadrature <=

    Radial Scheme          =       TREUTLER
    Pruning Scheme         =           FLAT
    Nuclear Scheme         =       TREUTLER

    BS radius alpha        =              1
    Pruning alpha          =              1
    Radial Points          =             75
    Spherical Points       =            302
    Total Points           =          90600
    Total Blocks           =            742
    Max Points             =            256
    Max Functions          =            138

   => Loading Basis Set <=

    Name: (AUG-CC-PV(T+D)Z AUX)
    Role: JKFIT
    Keyword: DF_BASIS_SCF
    atoms 1-2 entry C          line   162 file /work/zw18965/.conda/envs/p4env/share/psi4/basis/aug-cc-pvtz-jkfit.gbs 
    atoms 3-4 entry H          line    70 file /work/zw18965/.conda/envs/p4env/share/psi4/basis/aug-cc-pvtz-jkfit.gbs 

  ==> Pre-Iterations <==

   -------------------------------------------------------
    Irrep   Nso     Nmo     Nalpha   Nbeta   Ndocc  Nsocc
   -------------------------------------------------------
     Ag        30      30       0       0       0       0
     B1g        7       7       0       0       0       0
     B2g       16      16       0       0       0       0
     B3g       16      16       0       0       0       0
     Au         7       7       0       0       0       0
     B1u       30      30       0       0       0       0
     B2u       16      16       0       0       0       0
     B3u       16      16       0       0       0       0
   -------------------------------------------------------
    Total     138     138       7       7       7       0
   -------------------------------------------------------

  ==> Integral Setup <==

  ==> DiskDFJK: Density-Fitted J/K Matrices <==

    J tasked:                  Yes
    K tasked:                  Yes
    wK tasked:                 Yes
    Omega:               3.000E-01
    OpenMP threads:             24
    Integrals threads:          24
    Memory [MiB]:           102650
    Algorithm:                Core
    Integral Cache:           NONE
    Schwarz Cutoff:          1E-12
    Fitting Condition:       1E-10

   => Auxiliary Basis Set <=

  Basis Set: (AUG-CC-PV(T+D)Z AUX)
    Blend: AUG-CC-PVTZ-JKFIT
    Number of shells: 88
    Number of basis function: 300
    Number of Cartesian functions: 372
    Spherical Harmonics?: true
    Max angular momentum: 4

  Cached 100.0% of DFT collocation blocks in 0.338 [GiB].

  Minimum eigenvalue in the overlap matrix is 8.5595393150E-06.
  Using Symmetric Orthogonalization.

  SCF Guess: Superposition of Atomic Densities via on-the-fly atomic UHF.

  ==> Iterations <==

                           Total Energy        Delta E     RMS |[F,P]|

   @DF-RKS iter SAD:   -76.45058686002704   -7.64506e+01   0.00000e+00 
   @DF-RKS iter   1:   -77.23547004556899   -7.84883e-01   8.42371e-03 DIIS
   @DF-RKS iter   2:   -77.29962049358143   -6.41504e-02   4.73406e-03 DIIS
   @DF-RKS iter   3:   -77.33059124811291   -3.09708e-02   1.65719e-04 DIIS
   @DF-RKS iter   4:   -77.33065784225582   -6.65941e-05   1.80366e-05 DIIS
   @DF-RKS iter   5:   -77.33065914285865   -1.30060e-06   1.82533e-06 DIIS
   @DF-RKS iter   6:   -77.33065915454263   -1.16840e-08   3.02744e-07 DIIS
   @DF-RKS iter   7:   -77.33065915485490   -3.12269e-10   3.61587e-08 DIIS
   @DF-RKS iter   8:   -77.33065915486011   -5.21538e-12   5.28104e-09 DIIS
  Energy and wave function converged.


  ==> Post-Iterations <==

    Orbital Energies [Eh]
    ---------------------

    Doubly Occupied:                                                      

       1Ag   -10.282999     1B1u  -10.280583     2Ag    -0.885399  
       2B1u   -0.688781     3Ag    -0.610079     1B3u   -0.399062  
       1B2u   -0.399062  

    Virtual:                                                              

       4Ag     0.033694     3B1u    0.036325     1B2g    0.082793  
       1B3g    0.082793     2B3u    0.094696     2B2u    0.094696  
       5Ag     0.106281     4B1u    0.109315     6Ag     0.139450  
       2B3g    0.149326     2B2g    0.149326     5B1u    0.214500  
       6B1u    0.244550     7Ag     0.256122     3B3u    0.270742  
       3B2u    0.270742     1B1g    0.280731     8Ag     0.280732  
       3B2g    0.366373     3B3g    0.366373     9Ag     0.368984  
       7B1u    0.382795     1Au     0.386470     8B1u    0.386470  
      10Ag     0.396197     4B2g    0.405934     4B3g    0.405934  
       4B3u    0.450492     4B2u    0.450492     9B1u    0.495682  
      10B1u    0.566173     5B3u    0.571758     5B2u    0.571758  
      11Ag     0.597569     5B2g    0.786338     5B3g    0.786338  
      11B1u    0.842328     2B1g    0.842775    12Ag     0.842775  
      13Ag     0.847905     6B3u    0.890836     6B2u    0.890836  
      14Ag     0.919259     3B1g    0.939549    15Ag     0.939549  
      12B1u    0.980712     2Au     0.980712     6B2g    0.981479  
       6B3g    0.981479     7B2u    0.987294     7B3u    0.987294  
      13B1u    0.990176    16Ag     1.089645     8B3u    1.108772  
       8B2u    1.108772    14B1u    1.133717     3Au     1.133720  
      15B1u    1.153946     7B3g    1.235616     7B2g    1.235616  
      16B1u    1.242148     8B2g    1.329288     8B3g    1.329288  
       9B2u    1.464855     9B3u    1.464855    17Ag     1.561236  
       4B1g    1.561244     9B2g    1.663549     9B3g    1.663549  
      18Ag     1.689710    10B3u    1.803026    10B2u    1.803026  
      17B1u    1.840632    19Ag     1.901864     4Au     1.931408  
      18B1u    1.931421    19B1u    2.031933    20Ag     2.057819  
      10B3g    2.243527    10B2g    2.243527    11B2u    2.607140  
      11B3u    2.607140    20B1u    2.658392    21Ag     2.809957  
      21B1u    2.908797     5B1g    2.962935    22Ag     2.962937  
      11B2g    2.999939    11B3g    2.999939    12B2u    3.119493  
      12B3u    3.119493    13B3u    3.170946    13B2u    3.170946  
      22B1u    3.245858     5Au     3.245862    23Ag     3.372775  
       6B1g    3.372782    24Ag     3.403644    12B2g    3.499868  
      12B3g    3.499868    25Ag     3.522038    14B3u    3.588524  
      14B2u    3.588524    13B3g    3.625829    13B2g    3.625829  
      23B1u    3.668915     6Au     3.902021    24B1u    3.902025  
      26Ag     3.972940     7B1g    3.972944    25B1u    4.101528  
      26B1u    4.461155     7Au     4.461155    27Ag     4.480590  
      15B2u    4.551705    15B3u    4.551705    14B3g    4.556571  
      14B2g    4.556571    15B3g    4.835580    15B2g    4.835580  
      27B1u    5.075081    28Ag     5.157257    16B2u    5.610675  
      16B3u    5.610675    28B1u    5.944509    29B1u    6.436052  
      16B3g    6.541922    16B2g    6.541922    29Ag     6.677513  
      30Ag    13.289661    30B1u   18.856934  

    Final Occupation by Irrep:
             Ag   B1g   B2g   B3g    Au   B1u   B2u   B3u 
    DOCC [     3,    0,    0,    0,    0,    2,    1,    1 ]

  @DF-RKS Final Energy:   -77.33065915486011

   => Energetics <=

    Nuclear Repulsion Energy =             24.7305704436070641
    One-Electron Energy =                -151.7989237231373636
    Two-Electron Energy =                  57.5628638745695156
    DFT Exchange-Correlation Energy =      -7.8828968848197967
    Empirical Dispersion Energy =           0.0000000000000000
    VV10 Nonlocal Energy =                  0.0577271349204538
    Total Energy =                        -77.3306591548601290

Computation Completed


Properties will be evaluated at   0.000000,   0.000000,   0.000000 [a0]

Properties computed using the SCF density matrix

  Nuclear Dipole Moment: [e a0]
     X:     0.0000      Y:     0.0000      Z:    -0.0000

  Electronic Dipole Moment: [e a0]
     X:     0.0000      Y:     0.0000      Z:     0.0000

  Dipole Moment: [e a0]
     X:     0.0000      Y:     0.0000      Z:    -0.0000     Total:     0.0000

  Dipole Moment: [D]
     X:     0.0000      Y:     0.0000      Z:    -0.0000     Total:     0.0000


*** tstop() called on bp1-compute00107.data.bp.acrc.priv at Wed Apr 28 08:53:13 2021
Module time:
	user time   =      78.86 seconds =       1.31 minutes
	system time =       2.27 seconds =       0.04 minutes
	total time  =          3 seconds =       0.05 minutes
Total time:
	user time   =     327.09 seconds =       5.45 minutes
	system time =      11.63 seconds =       0.19 minutes
	total time  =         14 seconds =       0.23 minutes

  //>>>>>>>>>>>>>>>>>>>>>>>>>>>>>>>>>>>//
  //    Loading displacement 5 of 5    //
  //<<<<<<<<<<<<<<<<<<<<<<<<<<<<<<<<<<<//

*** tstart() called on bp1-compute00107.data.bp.acrc.priv
*** at Wed Apr 28 08:53:13 2021

   => Loading Basis Set <=

    Name: AUG-CC-PV(T+D)Z
    Role: ORBITAL
    Keyword: BASIS
    atoms 1-2 entry C          line   255 file /work/zw18965/.conda/envs/p4env/share/psi4/basis/aug-cc-pv_tpd_z.gbs 
    atoms 3-4 entry H          line    56 file /work/zw18965/.conda/envs/p4env/share/psi4/basis/aug-cc-pv_tpd_z.gbs 


         ---------------------------------------------------------
                                   SCF
               by Justin Turney, Rob Parrish, Andy Simmonett
                          and Daniel G. A. Smith
                              RKS Reference
                       24 Threads, 137329 MiB Core
         ---------------------------------------------------------

  ==> Geometry <==

    Molecular point group: d2h
    Full point group: D_inf_h

    Geometry (in Angstrom), charge = 0, multiplicity = 1:

       Center              X                  Y                   Z               Mass       
    ------------   -----------------  -----------------  -----------------  -----------------
         C            0.000000000000     0.000000000000    -0.603250000000    12.000000000000
         C            0.000000000000     0.000000000000     0.603250000000    12.000000000000
         H            0.000000000000     0.000000000000     1.668513646632     1.007825032230
         H            0.000000000000     0.000000000000    -1.668513646632     1.007825032230

  Running in d2h symmetry.

  Rotational constants: A = ************  B =      1.17513  C =      1.17513 [cm^-1]
  Rotational constants: A = ************  B =  35229.59320  C =  35229.59320 [MHz]
  Nuclear repulsion =   24.704690992421998

  Charge       = 0
  Multiplicity = 1
  Electrons    = 14
  Nalpha       = 7
  Nbeta        = 7

  ==> Algorithm <==

  SCF Algorithm Type is DF.
  DIIS enabled.
  MOM disabled.
  Fractional occupation disabled.
  Guess Type is SAD.
  Energy threshold   = 1.00e-08
  Density threshold  = 1.00e-08
  Integral threshold = 0.00e+00

  ==> Primary Basis <==

  Basis Set: AUG-CC-PV(T+D)Z
    Blend: AUG-CC-PV(T+D)Z
    Number of shells: 46
    Number of basis function: 138
    Number of Cartesian functions: 160
    Spherical Harmonics?: true
    Max angular momentum: 3

  ==> DFT Potential <==

   => Composite Functional: WB97X-V <= 

    wB97X-V Hyb-GGA Exchange-Correlation Functional

    N. Mardirossian and M. Head-Gordon, Phys. Chem. Chem. Phys. 16, 9904 (2014)

    Deriv               =              1
    GGA                 =           TRUE
    Meta                =          FALSE

    Exchange Hybrid     =           TRUE
    MP2 Hybrid          =          FALSE

   => Exchange-Correlation Functionals <=

    1.0000   wB97X-V range-separated functional

   => Exact (HF) Exchange <=

    0.8330            HF,LR [omega = 0.3000]
    0.1670               HF 

   => VV10 Non-Local Parameters <=

    VV10 B              =     6.0000E+00
    VV10 C              =     1.0000E-02

   => Molecular Quadrature <=

    Radial Scheme          =       TREUTLER
    Pruning Scheme         =           FLAT
    Nuclear Scheme         =       TREUTLER

    BS radius alpha        =              1
    Pruning alpha          =              1
    Radial Points          =             75
    Spherical Points       =            302
    Total Points           =          90600
    Total Blocks           =            744
    Max Points             =            256
    Max Functions          =            138

   => Loading Basis Set <=

    Name: (AUG-CC-PV(T+D)Z AUX)
    Role: JKFIT
    Keyword: DF_BASIS_SCF
    atoms 1-2 entry C          line   162 file /work/zw18965/.conda/envs/p4env/share/psi4/basis/aug-cc-pvtz-jkfit.gbs 
    atoms 3-4 entry H          line    70 file /work/zw18965/.conda/envs/p4env/share/psi4/basis/aug-cc-pvtz-jkfit.gbs 

  ==> Pre-Iterations <==

   -------------------------------------------------------
    Irrep   Nso     Nmo     Nalpha   Nbeta   Ndocc  Nsocc
   -------------------------------------------------------
     Ag        30      30       0       0       0       0
     B1g        7       7       0       0       0       0
     B2g       16      16       0       0       0       0
     B3g       16      16       0       0       0       0
     Au         7       7       0       0       0       0
     B1u       30      30       0       0       0       0
     B2u       16      16       0       0       0       0
     B3u       16      16       0       0       0       0
   -------------------------------------------------------
    Total     138     138       7       7       7       0
   -------------------------------------------------------

  ==> Integral Setup <==

  ==> DiskDFJK: Density-Fitted J/K Matrices <==

    J tasked:                  Yes
    K tasked:                  Yes
    wK tasked:                 Yes
    Omega:               3.000E-01
    OpenMP threads:             24
    Integrals threads:          24
    Memory [MiB]:           102650
    Algorithm:                Core
    Integral Cache:           NONE
    Schwarz Cutoff:          1E-12
    Fitting Condition:       1E-10

   => Auxiliary Basis Set <=

  Basis Set: (AUG-CC-PV(T+D)Z AUX)
    Blend: AUG-CC-PVTZ-JKFIT
    Number of shells: 88
    Number of basis function: 300
    Number of Cartesian functions: 372
    Spherical Harmonics?: true
    Max angular momentum: 4

  Cached 100.0% of DFT collocation blocks in 0.338 [GiB].

  Minimum eigenvalue in the overlap matrix is 8.5698261432E-06.
  Using Symmetric Orthogonalization.

  SCF Guess: Superposition of Atomic Densities via on-the-fly atomic UHF.

  ==> Iterations <==

                           Total Energy        Delta E     RMS |[F,P]|

   @DF-RKS iter SAD:   -76.44917777693389   -7.64492e+01   0.00000e+00 
   @DF-RKS iter   1:   -77.23532607432286   -7.86148e-01   8.42767e-03 DIIS
   @DF-RKS iter   2:   -77.29942688567043   -6.41008e-02   4.74684e-03 DIIS
   @DF-RKS iter   3:   -77.33061664867732   -3.11898e-02   1.66231e-04 DIIS
   @DF-RKS iter   4:   -77.33068340271092   -6.67540e-05   1.80152e-05 DIIS
   @DF-RKS iter   5:   -77.33068470095147   -1.29824e-06   1.85225e-06 DIIS
   @DF-RKS iter   6:   -77.33068471277358   -1.18221e-08   3.02219e-07 DIIS
   @DF-RKS iter   7:   -77.33068471308970   -3.16120e-10   3.77785e-08 DIIS
   @DF-RKS iter   8:   -77.33068471309508   -5.38591e-12   5.56759e-09 DIIS
  Energy and wave function converged.


  ==> Post-Iterations <==

    Orbital Energies [Eh]
    ---------------------

    Doubly Occupied:                                                      

       1Ag   -10.283311     1B1u  -10.280897     2Ag    -0.885226  
       2B1u   -0.687660     3Ag    -0.609155     1B3u   -0.399003  
       1B2u   -0.399003  

    Virtual:                                                              

       4Ag     0.033699     3B1u    0.036246     1B2g    0.082801  
       1B3g    0.082801     2B3u    0.094756     2B2u    0.094756  
       5Ag     0.106238     4B1u    0.109108     6Ag     0.139516  
       2B3g    0.149401     2B2g    0.149401     5B1u    0.213807  
       6B1u    0.244505     7Ag     0.255613     3B2u    0.270555  
       3B3u    0.270555     1B1g    0.280785     8Ag     0.280786  
       3B2g    0.366295     3B3g    0.366295     9Ag     0.369018  
       7B1u    0.382113     1Au     0.386471     8B1u    0.386472  
      10Ag     0.396006     4B2g    0.405860     4B3g    0.405860  
       4B2u    0.451046     4B3u    0.451046     9B1u    0.496185  
      10B1u    0.565909     5B2u    0.570849     5B3u    0.570849  
      11Ag     0.597576     5B2g    0.786139     5B3g    0.786139  
       2B1g    0.842962    12Ag     0.842962    11B1u    0.843260  
      13Ag     0.846957     6B2u    0.890373     6B3u    0.890373  
      14Ag     0.920770     3B1g    0.938907    15Ag     0.938907  
      12B1u    0.980626     2Au     0.980626     6B2g    0.981501  
       6B3g    0.981501     7B3u    0.987355     7B2u    0.987355  
      13B1u    0.989955    16Ag     1.088796     8B2u    1.108068  
       8B3u    1.108068    14B1u    1.132882     3Au     1.132885  
      15B1u    1.153241     7B2g    1.235671     7B3g    1.235671  
      16B1u    1.240316     8B2g    1.327095     8B3g    1.327095  
       9B3u    1.465835     9B2u    1.465835    17Ag     1.559995  
       4B1g    1.560003     9B2g    1.663529     9B3g    1.663529  
      18Ag     1.690946    10B3u    1.801254    10B2u    1.801254  
      17B1u    1.840425    19Ag     1.903485     4Au     1.930373  
      18B1u    1.930386    19B1u    2.030406    20Ag     2.062018  
      10B3g    2.241350    10B2g    2.241350    11B3u    2.605520  
      11B2u    2.605520    20B1u    2.656850    21Ag     2.808412  
      21B1u    2.916762     5B1g    2.963001    22Ag     2.963003  
      11B2g    2.999860    11B3g    2.999860    12B2u    3.119413  
      12B3u    3.119413    13B3u    3.171007    13B2u    3.171007  
      22B1u    3.246948     5Au     3.246953    23Ag     3.373082  
       6B1g    3.373088    24Ag     3.399318    12B2g    3.499934  
      12B3g    3.499934    25Ag     3.521747    14B2u    3.584936  
      14B3u    3.584936    13B2g    3.625302    13B3g    3.625302  
      23B1u    3.662223     6Au     3.900229    24B1u    3.900232  
      26Ag     3.969388     7B1g    3.969393    25B1u    4.099263  
      26B1u    4.456171     7Au     4.456171    27Ag     4.473933  
      15B3u    4.549673    15B2u    4.549673    14B2g    4.552128  
      14B3g    4.552128    15B2g    4.827557    15B3g    4.827557  
      27B1u    5.066101    28Ag     5.146875    16B2u    5.596506  
      16B3u    5.596506    28B1u    5.929583    29B1u    6.434639  
      16B2g    6.529455    16B3g    6.529455    29Ag     6.664644  
      30Ag    13.189956    30B1u   18.840201  

    Final Occupation by Irrep:
             Ag   B1g   B2g   B3g    Au   B1u   B2u   B3u 
    DOCC [     3,    0,    0,    0,    0,    2,    1,    1 ]

  @DF-RKS Final Energy:   -77.33068471309508

   => Energetics <=

    Nuclear Repulsion Energy =             24.7046909924219982
    One-Electron Energy =                -151.7520579986780263
    Two-Electron Energy =                  57.5396778342646016
    DFT Exchange-Correlation Energy =      -7.8807188462353759
    Empirical Dispersion Energy =           0.0000000000000000
    VV10 Nonlocal Energy =                  0.0577233051317143
    Total Energy =                        -77.3306847130950814

Computation Completed


Properties will be evaluated at   0.000000,   0.000000,   0.000000 [a0]

Properties computed using the SCF density matrix

  Nuclear Dipole Moment: [e a0]
     X:     0.0000      Y:     0.0000      Z:    -0.0000

  Electronic Dipole Moment: [e a0]
     X:     0.0000      Y:     0.0000      Z:     0.0000

  Dipole Moment: [e a0]
     X:     0.0000      Y:     0.0000      Z:    -0.0000     Total:     0.0000

  Dipole Moment: [D]
     X:     0.0000      Y:     0.0000      Z:    -0.0000     Total:     0.0000


*** tstop() called on bp1-compute00107.data.bp.acrc.priv at Wed Apr 28 08:53:17 2021
Module time:
	user time   =      80.21 seconds =       1.34 minutes
	system time =       2.33 seconds =       0.04 minutes
	total time  =          4 seconds =       0.07 minutes
Total time:
	user time   =     407.47 seconds =       6.79 minutes
	system time =      13.97 seconds =       0.23 minutes
	total time  =         18 seconds =       0.30 minutes

         ----------------------------------------------------------
                                   FINDIF
                     R. A. King and Jonathon Misiewicz
         ---------------------------------------------------------

  Computing gradient from energies.
    Using 3-point formula.
    Energy without displacement:  -77.3306771219
    Check energies below for precision!
    Forces are for mass-weighted, symmetry-adapted cartesians (in au).

     Coord      Energy(-1)        Energy(+1)            Force
        0    -77.3306258383    -77.3307232998     -0.0097461482
        1    -77.3306591549    -77.3306847131     -0.0025558235


-------------------------------------------------------------
  ## New Matrix (Symmetry 0) ##
  Irrep: 1 Size: 4 x 3

                 1                   2                   3

    1     0.00000000000000     0.00000000000000    -0.02387309010312
    2     0.00000000000000     0.00000000000000     0.02387309010312
    3     0.00000000000000     0.00000000000000    -0.00181429720356
    4     0.00000000000000     0.00000000000000     0.00181429720356




			-----------------------------------------
			 OPTKING 2.0: for geometry optimizations 
			  - R.A. King,  Bethel University        
			-----------------------------------------
	At level 1: Red. Int., RFO, no backsteps, dynamic trust

	Internal coordinates to be generated automatically.
	Detected frag 1 with atoms:  1 2 3 4
	---Fragment 1 Bond Connectivity---
	 1 : 2 4
	 2 : 1 3
	 3 : 2
	 4 : 1

	---Fragment 1 Geometry and Gradient---
	 C           0.0000000000        0.0000000000       -1.1399772852
	 C           0.0000000000        0.0000000000        1.1399772852
	 H           0.0000000000        0.0000000000        3.1495120470
	 H           0.0000000000        0.0000000000       -3.1495120470
	             0.0000000000        0.0000000000       -0.0238730901
	             0.0000000000        0.0000000000        0.0238730901
	             0.0000000000        0.0000000000       -0.0018142972
	             0.0000000000        0.0000000000        0.0018142972

	Previous optimization step data not found.  Starting new optimization.

	---Fragment 1 Intrafragment Coordinates---
	 - Coordinate -           - BOHR/RAD -       - ANG/DEG -
	 R(1,2)           =         2.279955	       1.206500
	 R(1,4)           =         2.009535	       1.063400
	 R(2,3)           =         2.009535	       1.063400
	 L(1,2,3)         =         3.141593	     180.000000
	 l(1,2,3)         =         3.141593	     180.000000
	 L(2,1,4)         =         3.141593	     180.000000
	 l(2,1,4)         =         3.141593	     180.000000

	Current energy   :       -77.3306771219

	Generating empirical Hessian (Schlegel '84) for each fragment.
	Taking RFO optimization step.
	Going to follow RFO solution 1.
	Using RFO vector 1.
	Norm of target step-size    0.02272
	Projected energy change by RFO approximation:        -0.0004955938

	Back-transformation to cartesian coordinates...
	Successfully converged to displaced geometry.

	--- Internal Coordinate Step in ANG or DEG, aJ/ANG or AJ/DEG ---
	 ---------------------------------------------------------------------------
	   Coordinate                Previous        Force       Change         New 
	   ----------                --------       ------       ------       ------
	    1 R(1,2)          =      1.206500    -0.181736    -0.011481     1.195019
	    2 R(1,4)          =      1.063400     0.014947     0.002518     1.065918
	    3 R(2,3)          =      1.063400     0.014947     0.002518     1.065918
	    4 L(1,2,3)        =    180.000000     0.000000     0.000000   180.000000
	    5 l(1,2,3)        =    180.000000     0.000000     0.000000   180.000000
	    6 L(2,1,4)        =    180.000000     0.000000     0.000000   180.000000
	    7 l(2,1,4)        =    180.000000     0.000000     0.000000   180.000000
	 ---------------------------------------------------------------------------
	Successfully symmetrized geometry.

  ==> Convergence Check <==

  Measures of convergence in internal coordinates in au.
  Criteria marked as inactive (o), active & met (*), and active & unmet ( ).
  --------------------------------------------------------------------------------------------- ~
   Step     Total Energy     Delta E     MAX Force     RMS Force      MAX Disp      RMS Disp    ~
  --------------------------------------------------------------------------------------------- ~
    Convergence Criteria    1.00e-06 *    3.00e-04 *             o    1.20e-03 *             o  ~
  --------------------------------------------------------------------------------------------- ~
      1     -77.33067712   -7.73e+01      2.21e-02      8.39e-03 o    2.17e-02      8.59e-03 o  ~
  ---------------------------------------------------------------------------------------------

	Writing optimization data to binary file.
	Structure for next step:
	Cartesian Geometry (in Angstrom)
	    C    -0.0000000000  -0.0000000000  -0.5975095453
	    C    -0.0000000000   0.0000000000   0.5975095453
	    H     0.0000000000   0.0000000000   1.6634277005
	    H     0.0000000000   0.0000000000  -1.6634277005
			--------------------------
			 OPTKING Finished Execution 
			--------------------------

    Structure for next step:
    Molecular point group: d2h
    Full point group: D_inf_h

    Geometry (in Angstrom), charge = 0, multiplicity = 1:

    C           -0.000000000000     0.000000000000    -0.597509547617
    C            0.000000000000     0.000000000000     0.597509547617
    H            0.000000000000    -0.000000000000     1.663427707041
    H            0.000000000000    -0.000000000000    -1.663427707041

gradient() will perform gradient computation by finite difference of analytic energies.

         ----------------------------------------------------------
                                   FINDIF
                     R. A. King and Jonathon Misiewicz
         ---------------------------------------------------------

  Using finite-differences of energies to determine gradients.
    Generating geometries for use with 3-point formula.
    Displacement size will be 5.00e-03.
    Number of atoms is 4.
    Number of symmetric SALCs is 2.
    Translations projected? 1. Rotations projected? 1.
    Number of geometries (including reference) is 5.

  //>>>>>>>>>>>>>>>>>>>>>>>>>>>>>>>>>>>//
  //    Loading displacement 1 of 5    //
  //<<<<<<<<<<<<<<<<<<<<<<<<<<<<<<<<<<<//

*** tstart() called on bp1-compute00107.data.bp.acrc.priv
*** at Wed Apr 28 08:53:17 2021

   => Loading Basis Set <=

    Name: AUG-CC-PV(T+D)Z
    Role: ORBITAL
    Keyword: BASIS
    atoms 1-2 entry C          line   255 file /work/zw18965/.conda/envs/p4env/share/psi4/basis/aug-cc-pv_tpd_z.gbs 
    atoms 3-4 entry H          line    56 file /work/zw18965/.conda/envs/p4env/share/psi4/basis/aug-cc-pv_tpd_z.gbs 


         ---------------------------------------------------------
                                   SCF
               by Justin Turney, Rob Parrish, Andy Simmonett
                          and Daniel G. A. Smith
                              RKS Reference
                       24 Threads, 137329 MiB Core
         ---------------------------------------------------------

  ==> Geometry <==

    Molecular point group: d2h
    Full point group: D_inf_h

    Geometry (in Angstrom), charge = 0, multiplicity = 1:

       Center              X                  Y                   Z               Mass       
    ------------   -----------------  -----------------  -----------------  -----------------
         C            0.000000000000     0.000000000000    -0.597509547617    12.000000000000
         C           -0.000000000000     0.000000000000     0.597509547617    12.000000000000
         H           -0.000000000000     0.000000000000     1.663427707041     1.007825032230
         H           -0.000000000000     0.000000000000    -1.663427707041     1.007825032230

  Running in d2h symmetry.

  Rotational constants: A = ************  B =      1.19171  C =      1.19171 [cm^-1]
  Rotational constants: A = ************  B =  35726.66036  C =  35726.66036 [MHz]
  Nuclear repulsion =   24.866597603489954

  Charge       = 0
  Multiplicity = 1
  Electrons    = 14
  Nalpha       = 7
  Nbeta        = 7

  ==> Algorithm <==

  SCF Algorithm Type is DF.
  DIIS enabled.
  MOM disabled.
  Fractional occupation disabled.
  Guess Type is READ.
  Energy threshold   = 1.00e-08
  Density threshold  = 1.00e-08
  Integral threshold = 0.00e+00

  ==> Primary Basis <==

  Basis Set: AUG-CC-PV(T+D)Z
    Blend: AUG-CC-PV(T+D)Z
    Number of shells: 46
    Number of basis function: 138
    Number of Cartesian functions: 160
    Spherical Harmonics?: true
    Max angular momentum: 3

  ==> DFT Potential <==

   => Composite Functional: WB97X-V <= 

    wB97X-V Hyb-GGA Exchange-Correlation Functional

    N. Mardirossian and M. Head-Gordon, Phys. Chem. Chem. Phys. 16, 9904 (2014)

    Deriv               =              1
    GGA                 =           TRUE
    Meta                =          FALSE

    Exchange Hybrid     =           TRUE
    MP2 Hybrid          =          FALSE

   => Exchange-Correlation Functionals <=

    1.0000   wB97X-V range-separated functional

   => Exact (HF) Exchange <=

    0.8330            HF,LR [omega = 0.3000]
    0.1670               HF 

   => VV10 Non-Local Parameters <=

    VV10 B              =     6.0000E+00
    VV10 C              =     1.0000E-02

   => Molecular Quadrature <=

    Radial Scheme          =       TREUTLER
    Pruning Scheme         =           FLAT
    Nuclear Scheme         =       TREUTLER

    BS radius alpha        =              1
    Pruning alpha          =              1
    Radial Points          =             75
    Spherical Points       =            302
    Total Points           =          90600
    Total Blocks           =            744
    Max Points             =            256
    Max Functions          =            138

   => Loading Basis Set <=

    Name: (AUG-CC-PV(T+D)Z AUX)
    Role: JKFIT
    Keyword: DF_BASIS_SCF
    atoms 1-2 entry C          line   162 file /work/zw18965/.conda/envs/p4env/share/psi4/basis/aug-cc-pvtz-jkfit.gbs 
    atoms 3-4 entry H          line    70 file /work/zw18965/.conda/envs/p4env/share/psi4/basis/aug-cc-pvtz-jkfit.gbs 

   => Loading Basis Set <=

    Name: AUG-CC-PV(T+D)Z
    Role: ORBITAL
    Keyword: BASIS
    atoms 1-2 entry C          line   255 file /work/zw18965/.conda/envs/p4env/share/psi4/basis/aug-cc-pv_tpd_z.gbs 
    atoms 3-4 entry H          line    56 file /work/zw18965/.conda/envs/p4env/share/psi4/basis/aug-cc-pv_tpd_z.gbs 

  Reading orbitals from file 180, no projection.

  ==> Pre-Iterations <==

   -------------------------------------------------------
    Irrep   Nso     Nmo     Nalpha   Nbeta   Ndocc  Nsocc
   -------------------------------------------------------
     Ag        30      30       0       0       0       0
     B1g        7       7       0       0       0       0
     B2g       16      16       0       0       0       0
     B3g       16      16       0       0       0       0
     Au         7       7       0       0       0       0
     B1u       30      30       0       0       0       0
     B2u       16      16       0       0       0       0
     B3u       16      16       0       0       0       0
   -------------------------------------------------------
    Total     138     138       7       7       7       0
   -------------------------------------------------------

  ==> Integral Setup <==

  ==> DiskDFJK: Density-Fitted J/K Matrices <==

    J tasked:                  Yes
    K tasked:                  Yes
    wK tasked:                 Yes
    Omega:               3.000E-01
    OpenMP threads:             24
    Integrals threads:          24
    Memory [MiB]:           102650
    Algorithm:                Core
    Integral Cache:           NONE
    Schwarz Cutoff:          1E-12
    Fitting Condition:       1E-10

   => Auxiliary Basis Set <=

  Basis Set: (AUG-CC-PV(T+D)Z AUX)
    Blend: AUG-CC-PVTZ-JKFIT
    Number of shells: 88
    Number of basis function: 300
    Number of Cartesian functions: 372
    Spherical Harmonics?: true
    Max angular momentum: 4

  Cached 100.0% of DFT collocation blocks in 0.338 [GiB].

  Minimum eigenvalue in the overlap matrix is 8.3001010522E-06.
  Using Symmetric Orthogonalization.

  SCF Guess: Orbitals guess was supplied from a previous computation.

  ==> Iterations <==

                           Total Energy        Delta E     RMS |[F,P]|

   @DF-RKS iter   0:   -77.30369587956581   -7.73037e+01   1.16706e-03 
   @DF-RKS iter   1:   -77.33089433148980   -2.71985e-02   7.80579e-05 DIIS
   @DF-RKS iter   2:   -77.33090146589551   -7.13441e-06   1.74121e-05 DIIS
   @DF-RKS iter   3:   -77.33090173814436   -2.72249e-07   3.60493e-06 DIIS
   @DF-RKS iter   4:   -77.33090176377665   -2.56323e-08   1.52626e-06 DIIS
   @DF-RKS iter   5:   -77.33090176780587   -4.02922e-09   1.30540e-07 DIIS
   @DF-RKS iter   6:   -77.33090176789938   -9.35074e-11   1.78892e-08 DIIS
   @DF-RKS iter   7:   -77.33090176790093   -1.54898e-12   1.56281e-09 DIIS
  Energy and wave function converged.


  ==> Post-Iterations <==

    Orbital Energies [Eh]
    ---------------------

    Doubly Occupied:                                                      

       1Ag   -10.279959     1B1u  -10.277315     2Ag    -0.887138  
       2B1u   -0.685865     3Ag    -0.609056     1B3u   -0.400828  
       1B2u   -0.400828  

    Virtual:                                                              

       4Ag     0.033738     3B1u    0.036199     1B3g    0.084023  
       1B2g    0.084023     2B3u    0.094576     2B2u    0.094576  
       5Ag     0.106199     4B1u    0.109149     6Ag     0.139695  
       2B2g    0.151367     2B3g    0.151367     5B1u    0.214915  
       6B1u    0.245064     7Ag     0.255240     3B3u    0.270745  
       3B2u    0.270745     1B1g    0.281066     8Ag     0.281068  
       3B3g    0.367275     3B2g    0.367275     9Ag     0.369752  
       7B1u    0.383753     1Au     0.386682     8B1u    0.386683  
      10Ag     0.396120     4B3g    0.406672     4B2g    0.406672  
       4B3u    0.449821     4B2u    0.449821     9B1u    0.497154  
      10B1u    0.567345     5B2u    0.571463     5B3u    0.571463  
      11Ag     0.596344     5B3g    0.787130     5B2g    0.787130  
       2B1g    0.843190    12Ag     0.843191    11B1u    0.846842  
      13Ag     0.850027     6B3u    0.890965     6B2u    0.890965  
      14Ag     0.920991     3B1g    0.939838    15Ag     0.939838  
      12B1u    0.981662     2Au     0.981663     6B3g    0.982765  
       6B2g    0.982765     7B3u    0.987932     7B2u    0.987932  
      13B1u    0.989956    16Ag     1.089035     8B3u    1.110773  
       8B2u    1.110773    14B1u    1.132805     3Au     1.132808  
      15B1u    1.156035     7B2g    1.237438     7B3g    1.237438  
      16B1u    1.250641     8B3g    1.330962     8B2g    1.330962  
       9B2u    1.458310     9B3u    1.458310    17Ag     1.563500  
       4B1g    1.563507     9B3g    1.664499     9B2g    1.664499  
      18Ag     1.697544    10B3u    1.806784    10B2u    1.806784  
      17B1u    1.841224    19Ag     1.898941     4Au     1.934275  
      18B1u    1.934288    19B1u    2.039974    20Ag     2.065137  
      10B2g    2.243368    10B3g    2.243368    11B3u    2.605723  
      11B2u    2.605723    20B1u    2.662204    21Ag     2.808124  
      21B1u    2.919404     5B1g    2.960001    22Ag     2.960003  
      11B3g    3.006338    11B2g    3.006338    12B3u    3.125899  
      12B2u    3.125899    13B3u    3.168282    13B2u    3.168282  
      22B1u    3.248193     5Au     3.248198    23Ag     3.378336  
       6B1g    3.378343    24Ag     3.413292    12B2g    3.505672  
      12B3g    3.505672    25Ag     3.525847    14B3u    3.596758  
      14B2u    3.596758    13B3g    3.626186    13B2g    3.626186  
      23B1u    3.667241     6Au     3.909092    24B1u    3.909095  
      26Ag     3.972800     7B1g    3.972805    25B1u    4.103392  
      26B1u    4.468053     7Au     4.468053    27Ag     4.494244  
      15B3u    4.547074    15B2u    4.547074    14B2g    4.565209  
      14B3g    4.565209    15B3g    4.837254    15B2g    4.837254  
      27B1u    5.063940    28Ag     5.151275    16B2u    5.615224  
      16B3u    5.615224    28B1u    5.937309    29B1u    6.445907  
      16B3g    6.541757    16B2g    6.541757    29Ag     6.706651  
      30Ag    13.205678    30B1u   19.174122  

    Final Occupation by Irrep:
             Ag   B1g   B2g   B3g    Au   B1u   B2u   B3u 
    DOCC [     3,    0,    0,    0,    0,    2,    1,    1 ]

  @DF-RKS Final Energy:   -77.33090176790093

   => Energetics <=

    Nuclear Repulsion Energy =             24.8665976034899536
    One-Electron Energy =                -152.0775000887142880
    Two-Electron Energy =                  57.7114474593926374
    DFT Exchange-Correlation Energy =      -7.8891771036744709
    Empirical Dispersion Energy =           0.0000000000000000
    VV10 Nonlocal Energy =                  0.0577303616052424
    Total Energy =                        -77.3309017679009401

Computation Completed


Properties will be evaluated at   0.000000,   0.000000,   0.000000 [a0]

Properties computed using the SCF density matrix

  Nuclear Dipole Moment: [e a0]
     X:     0.0000      Y:     0.0000      Z:     0.0000

  Electronic Dipole Moment: [e a0]
     X:     0.0000      Y:     0.0000      Z:     0.0000

  Dipole Moment: [e a0]
     X:     0.0000      Y:     0.0000      Z:     0.0000     Total:     0.0000

  Dipole Moment: [D]
     X:     0.0000      Y:     0.0000      Z:     0.0000     Total:     0.0000


*** tstop() called on bp1-compute00107.data.bp.acrc.priv at Wed Apr 28 08:53:20 2021
Module time:
	user time   =      65.62 seconds =       1.09 minutes
	system time =       1.68 seconds =       0.03 minutes
	total time  =          3 seconds =       0.05 minutes
Total time:
	user time   =     473.46 seconds =       7.89 minutes
	system time =      15.67 seconds =       0.26 minutes
	total time  =         21 seconds =       0.35 minutes

  //>>>>>>>>>>>>>>>>>>>>>>>>>>>>>>>>>>>//
  //    Loading displacement 2 of 5    //
  //<<<<<<<<<<<<<<<<<<<<<<<<<<<<<<<<<<<//

*** tstart() called on bp1-compute00107.data.bp.acrc.priv
*** at Wed Apr 28 08:53:20 2021

   => Loading Basis Set <=

    Name: AUG-CC-PV(T+D)Z
    Role: ORBITAL
    Keyword: BASIS
    atoms 1-2 entry C          line   255 file /work/zw18965/.conda/envs/p4env/share/psi4/basis/aug-cc-pv_tpd_z.gbs 
    atoms 3-4 entry H          line    56 file /work/zw18965/.conda/envs/p4env/share/psi4/basis/aug-cc-pv_tpd_z.gbs 


         ---------------------------------------------------------
                                   SCF
               by Justin Turney, Rob Parrish, Andy Simmonett
                          and Daniel G. A. Smith
                              RKS Reference
                       24 Threads, 137329 MiB Core
         ---------------------------------------------------------

  ==> Geometry <==

    Molecular point group: d2h
    Full point group: D_inf_h

    Geometry (in Angstrom), charge = 0, multiplicity = 1:

[...]
         H            0.001789995126     0.000000000000    -1.663585316534     1.007825032230

  Running in c2v symmetry.

  Rotational constants: A = 2407987.46702  B =      1.19031  C =      1.19031 [cm^-1]
  Rotational constants: A = 72189648157.17369  B =  35684.64343  C =  35684.62580 [MHz]
  Nuclear repulsion =   24.853368009722374

  Charge       = 0
  Multiplicity = 1
  Electrons    = 14
  Nalpha       = 7
  Nbeta        = 7

  ==> Algorithm <==

  SCF Algorithm Type is DF.
  DIIS enabled.
  MOM disabled.
  Fractional occupation disabled.
  Guess Type is SAD.
  Energy threshold   = 1.00e-10
  Density threshold  = 1.00e-10
  Integral threshold = 0.00e+00

  ==> Primary Basis <==

  Basis Set: AUG-CC-PV(T+D)Z
    Blend: AUG-CC-PV(T+D)Z
    Number of shells: 46
    Number of basis function: 138
    Number of Cartesian functions: 160
    Spherical Harmonics?: true
    Max angular momentum: 3

  ==> DFT Potential <==

   => Composite Functional: WB97X-V <= 

    wB97X-V Hyb-GGA Exchange-Correlation Functional

    N. Mardirossian and M. Head-Gordon, Phys. Chem. Chem. Phys. 16, 9904 (2014)

    Deriv               =              1
    GGA                 =           TRUE
    Meta                =          FALSE

    Exchange Hybrid     =           TRUE
    MP2 Hybrid          =          FALSE

   => Exchange-Correlation Functionals <=

    1.0000   wB97X-V range-separated functional

   => Exact (HF) Exchange <=

    0.8330            HF,LR [omega = 0.3000]
    0.1670               HF 

   => VV10 Non-Local Parameters <=

    VV10 B              =     6.0000E+00
    VV10 C              =     1.0000E-02

   => Molecular Quadrature <=

    Radial Scheme          =       TREUTLER
    Pruning Scheme         =           FLAT
    Nuclear Scheme         =       TREUTLER

    BS radius alpha        =              1
    Pruning alpha          =              1
    Radial Points          =             75
    Spherical Points       =            302
    Total Points           =          90600
    Total Blocks           =            720
    Max Points             =            255
    Max Functions          =            138

   => Loading Basis Set <=

    Name: (AUG-CC-PV(T+D)Z AUX)
    Role: JKFIT
    Keyword: DF_BASIS_SCF
    atoms 1-2 entry C          line   162 file /work/zw18965/.conda/envs/p4env/share/psi4/basis/aug-cc-pvtz-jkfit.gbs 
    atoms 3-4 entry H          line    70 file /work/zw18965/.conda/envs/p4env/share/psi4/basis/aug-cc-pvtz-jkfit.gbs 

  ==> Pre-Iterations <==

   -------------------------------------------------------
    Irrep   Nso     Nmo     Nalpha   Nbeta   Ndocc  Nsocc
   -------------------------------------------------------
     A1        46      46       0       0       0       0
     A2        23      23       0       0       0       0
     B1        23      23       0       0       0       0
     B2        46      46       0       0       0       0
   -------------------------------------------------------
    Total     138     138       7       7       7       0
   -------------------------------------------------------

  ==> Integral Setup <==

  ==> DiskDFJK: Density-Fitted J/K Matrices <==

    J tasked:                  Yes
    K tasked:                  Yes
    wK tasked:                 Yes
    Omega:               3.000E-01
    OpenMP threads:             24
    Integrals threads:          24
    Memory [MiB]:           102649
    Algorithm:                Core
    Integral Cache:           NONE
    Schwarz Cutoff:          1E-12
    Fitting Condition:       1E-10

   => Auxiliary Basis Set <=

  Basis Set: (AUG-CC-PV(T+D)Z AUX)
    Blend: AUG-CC-PVTZ-JKFIT
    Number of shells: 88
    Number of basis function: 300
    Number of Cartesian functions: 372
    Spherical Harmonics?: true
    Max angular momentum: 4

  Cached 100.0% of DFT collocation blocks in 0.339 [GiB].

  Minimum eigenvalue in the overlap matrix is 8.3245182773E-06.
  Using Symmetric Orthogonalization.

  SCF Guess: Superposition of Atomic Densities via on-the-fly atomic UHF.

  ==> Iterations <==

                           Total Energy        Delta E     RMS |[F,P]|

   @DF-RKS iter SAD:   -76.45910583800251   -7.64591e+01   0.00000e+00 
   @DF-RKS iter   1:   -77.23196971555602   -7.72864e-01   6.40187e-03 DIIS
   @DF-RKS iter   2:   -77.29804564709622   -6.60759e-02   3.62316e-03 DIIS
   @DF-RKS iter   3:   -77.33083392624478   -3.27883e-02   1.26974e-04 DIIS
   @DF-RKS iter   4:   -77.33090249053004   -6.85643e-05   1.34602e-05 DIIS
   @DF-RKS iter   5:   -77.33090380085245   -1.31032e-06   1.43372e-06 DIIS
   @DF-RKS iter   6:   -77.33090381310733   -1.22549e-08   2.21192e-07 DIIS
   @DF-RKS iter   7:   -77.33090381342009   -3.12767e-10   2.91761e-08 DIIS
   @DF-RKS iter   8:   -77.33090381342501   -4.91696e-12   4.43712e-09 DIIS
   @DF-RKS iter   9:   -77.33090381342508   -7.10543e-14   8.95117e-10 DIIS
   @DF-RKS iter  10:   -77.33090381342510   -1.42109e-14   1.89726e-10 DIIS
   @DF-RKS iter  11:   -77.33090381342515   -5.68434e-14   2.19304e-11 DIIS
  Energy and wave function converged.


  ==> Post-Iterations <==

    Orbital Energies [Eh]
    ---------------------

    Doubly Occupied:                                                      

       1A1   -10.280250     1B2   -10.277629     2A1    -0.886972  
       2B2    -0.686132     3A1    -0.609147     1B1    -0.400659  
       4A1    -0.400659  

    Virtual:                                                              

       5A1     0.033733     3B2     0.036208     4B2     0.083910  
       1A2     0.083910     6A1     0.094588     2B1     0.094588  
       7A1     0.106206     5B2     0.109162     8A1     0.139671  
       6B2     0.151171     2A2     0.151171     7B2     0.214873  
       8B2     0.245015     9A1     0.255318     3B1     0.270742  
      10A1     0.270743     4B1     0.281036    11A1     0.281038  
       9B2     0.367187     3A2     0.367187    12A1     0.369679  
      10B2     0.383660     4A2     0.386659    11B2     0.386660  
      13A1     0.396124    12B2     0.406605     5A2     0.406605  
       5B1     0.449891    14A1     0.449893    13B2     0.497021  
      14B2     0.567235    15A1     0.571474     6B1     0.571480  
      16A1     0.596466    15B2     0.787051     6A2     0.787051  
       7B1     0.843151    17A1     0.843151    16B2     0.846425  
      18A1     0.849820     8B1     0.890946    19A1     0.890946  
      20A1     0.920833     9B1     0.939811    21A1     0.939811  
      17B2     0.981561     7A2     0.981562    18B2     0.982614  
       8A2     0.982654    10B1     0.987872    22A1     0.987872  
      19B2     0.990016    23A1     1.089077    11B1     1.110577  
      24A1     1.110584    20B2     1.132883     9A2     1.132886  
      21B2     1.155836    22B2     1.237271    10A2     1.237271  
      23B2     1.249781    11A2     1.330785    24B2     1.330797  
      12B1     1.458937    25A1     1.458938    26A1     1.563274  
      13B1     1.563282    25B2     1.664405    12A2     1.664406  
      27A1     1.696811    14B1     1.806409    28A1     1.806412  
      26B2     1.841168    29A1     1.899255    13A2     1.933992  
      27B2     1.934005    28B2     2.039184    30A1     2.064434  
      14A2     2.243367    29B2     2.243368    31A1     2.605844  
      15B1     2.605845    30B2     2.661830    32A1     2.808282  
      31B2     2.918367    16B1     2.960277    33A1     2.960279  
      15A2     3.005733    32B2     3.005765    34A1     3.125289  
      17B1     3.125290    35A1     3.168534    18B1     3.168534  
      33B2     3.247980    16A2     3.247984    36A1     3.377807  
      19B1     3.377814    37A1     3.412359    17A2     3.505121  
      34B2     3.505121    38A1     3.525474    20B1     3.595942  
      39A1     3.595953    35B2     3.626146    18A2     3.626146  
      36B2     3.667324    19A2     3.908407    37B2     3.908410  
      40A1     3.972781    21B1     3.972785    38B2     4.103199  
      39B2     4.467337    20A2     4.467337    41A1     4.492882  
      22B1     4.547496    42A1     4.547511    21A2     4.564379  
      40B2     4.564384    41B2     4.837035    22A2     4.837036  
      42B2     5.064855    43A1     5.151733    23B1     5.614665  
      44A1     5.614669    43B2     5.937767    44B2     6.444763  
      23A2     6.541670    45B2     6.541748    45A1     6.703711  
      46A1    13.212765    46B2    19.143978  

    Final Occupation by Irrep:
             A1    A2    B1    B2 
    DOCC [     4,    0,    1,    2 ]

  @DF-RKS Final Energy:   -77.33090381342515

   => Energetics <=

    Nuclear Repulsion Energy =             24.8533680097223737
    One-Electron Energy =                -152.0505177555567684
    Two-Electron Energy =                  57.6970717079411202
    DFT Exchange-Correlation Energy =      -7.8885557843854723
    Empirical Dispersion Energy =           0.0000000000000000
    VV10 Nonlocal Energy =                  0.0577300088536004
    Total Energy =                        -77.3309038134251523

Computation Completed


Properties will be evaluated at   0.000000,   0.000000,   0.000000 [a0]

Properties computed using the SCF density matrix

  Nuclear Dipole Moment: [e a0]
     X:     0.0034      Y:     0.0000      Z:    -0.0000

  Electronic Dipole Moment: [e a0]
     X:    -0.0018      Y:     0.0000      Z:     0.0000

  Dipole Moment: [e a0]
     X:     0.0016      Y:     0.0000      Z:    -0.0000     Total:     0.0016

  Dipole Moment: [D]
     X:     0.0041      Y:     0.0000      Z:    -0.0000     Total:     0.0041


*** tstop() called on bp1-compute00107.data.bp.acrc.priv at Wed Apr 28 08:54:48 2021
Module time:
	user time   =      90.82 seconds =       1.51 minutes
	system time =       2.18 seconds =       0.04 minutes
	total time  =          4 seconds =       0.07 minutes
Total time:
	user time   =    2496.74 seconds =      41.61 minutes
	system time =      69.17 seconds =       1.15 minutes
	total time  =        109 seconds =       1.82 minutes

         ----------------------------------------------------------
                                   FINDIF
                     R. A. King and Jonathon Misiewicz
         ---------------------------------------------------------

  Computing second-derivative from energies using projected, 
  symmetry-adapted, cartesian coordinates.

  12 energies passed in, including the reference geometry.
    Using 3-point formula.
    Energy without displacement:  -77.3309041661
    Check energies below for precision!
    0: -1        :       -77.3309010085
    0: 1         :       -77.3309017515
    1: -1        :       -77.3308990456
    1: 1         :       -77.3308992233
    0: 1, 1: 1   :       -77.3308934016
    0: -1, 1: -1 :       -77.3308929085
    2: -1        :       -77.3309037951
    3: -1        :       -77.3309038041
    4: -1        :       -77.3308987784
    5: -1        :       -77.3309037438
    6: -1        :       -77.3309038134

-------------------------------------------------------------


  ==> Harmonic Vibrational Analysis <==

  non-mass-weighted Hessian:       Symmetric? True   Hermitian? True   Lin Dep Dim?  5 (0)
  projection of translations (True) and rotations (True) removed 5 degrees of freedom (5)
  total projector:                 Symmetric? True   Hermitian? True   Lin Dep Dim?  5 (5)
  mass-weighted Hessian:           Symmetric? True   Hermitian? True   Lin Dep Dim?  5 (0)
  pre-proj  low-frequency mode:    0.0000i [cm^-1]
  pre-proj  low-frequency mode:    0.0000  [cm^-1]
  pre-proj  low-frequency mode:    0.0000  [cm^-1]
  pre-proj  low-frequency mode:    0.0000  [cm^-1]
  pre-proj  low-frequency mode:    0.0000  [cm^-1]
  pre-proj  all modes:['0.0000i' '0.0000' '0.0000' '0.0000' '0.0000' '863.5097' '874.8470'
 '885.6867' '944.9129' '2033.9955' '3374.8529' '3519.8776']
  projected mass-weighted Hessian: Symmetric? True   Hermitian? True   Lin Dep Dim?  5 (5)
  post-proj low-frequency mode:    0.0000i [cm^-1] (TR)
  post-proj low-frequency mode:    0.0000i [cm^-1] (TR)
  post-proj low-frequency mode:    0.0000i [cm^-1] (TR)
  post-proj low-frequency mode:    0.0000i [cm^-1] (TR)
  post-proj low-frequency mode:    0.0000  [cm^-1] (TR)
  post-proj  all modes:['0.0000i' '0.0000i' '0.0000i' '0.0000i' '0.0000' '863.5097' '874.8470'
 '885.6867' '944.9129' '2033.9955' '3374.8529' '3519.8776']

  Vibration                       6                   7                   8           
  Freq [cm^-1]                 863.5097            874.8470            885.6867       
  Irrep                          B3u                 B3g                 B2g          
  Reduced mass [u]              1.0848              1.5767              1.5767        
  Force const [mDyne/A]         0.4766              0.7110              0.7287        
  Turning point v=0 [a0]        0.3585              0.2954              0.2936        
  RMS dev v=0 [a0 u^1/2]        0.2640              0.2623              0.2607        
  Char temp [K]               1242.3983           1258.7100           1274.3060       
  ----------------------------------------------------------------------------------
      1   C               -0.06 -0.00  0.00   -0.00  0.16  0.00    0.16  0.00  0.00   
      2   C               -0.06  0.00  0.00    0.00 -0.16  0.00   -0.16 -0.00  0.00   
      3   H                0.70  0.00  0.00   -0.00  0.69 -0.00    0.69  0.00  0.00   
      4   H                0.70 -0.00  0.00    0.00 -0.69  0.00   -0.69 -0.00  0.00   

  Vibration                       9                   10                  11          
  Freq [cm^-1]                 944.9129           2033.9955           3374.8529       
  Irrep                          B2u                  Ag                 B1u          
  Reduced mass [u]              1.0848              3.6183              1.0848        
  Force const [mDyne/A]         0.5707              8.8197              7.2797        
  Turning point v=0 [a0]        0.3427              0.1279              0.1813        
  RMS dev v=0 [a0 u^1/2]        0.2524              0.1720              0.1336        
  Char temp [K]               1359.5192           2926.4667           4855.6619       
  ----------------------------------------------------------------------------------
      1   C               -0.00 -0.06 -0.00    0.00 -0.00  0.34   -0.00  0.00 -0.06   
      2   C               -0.00 -0.06 -0.00    0.00  0.00 -0.34   -0.00  0.00 -0.06   
      3   H               -0.00  0.70  0.00    0.00 -0.00 -0.62   -0.00 -0.00  0.70   
      4   H                0.00  0.70 -0.00    0.00 -0.00  0.62    0.00 -0.00  0.70   

  Vibration                       12          
  Freq [cm^-1]                3519.8776       
  Irrep                           Ag          
  Reduced mass [u]              1.2513        
  Force const [mDyne/A]         9.1338        
  Turning point v=0 [a0]        0.1653        
  RMS dev v=0 [a0 u^1/2]        0.1308        
  Char temp [K]               5064.3202       
  ----------------------------------------------------------------------------------
      1   C               -0.00 -0.00  0.11   
      2   C               -0.00 -0.00 -0.11   
      3   H                0.00 -0.00  0.70   
      4   H                0.00  0.00 -0.70   

  ==> Thermochemistry Components <==

  Entropy, S
    Electronic S            0.000 [cal/(mol K)]        0.000 [J/(mol K)]       0.00000000 [mEh/K] (multiplicity = 1)
    Translational S        35.704 [cal/(mol K)]      149.387 [J/(mol K)]       0.05689862 [mEh/K] (mol. weight = 26.0157 [u], P = 101325.00 [Pa])
    Rotational S           10.863 [cal/(mol K)]       45.451 [J/(mol K)]       0.01731118 [mEh/K] (symmetry no. = 2)
    Vibrational S           0.581 [cal/(mol K)]        2.433 [J/(mol K)]       0.00092654 [mEh/K]
  Total S                  47.149 [cal/(mol K)]      197.270 [J/(mol K)]       0.07513634 [mEh/K]
  Correction S              0.000 [cal/(mol K)]        0.000 [J/(mol K)]       0.00000000 [mEh/K]

  Constant volume heat capacity, Cv
    Electronic Cv           0.000 [cal/(mol K)]        0.000 [J/(mol K)]       0.00000000 [mEh/K]
    Translational Cv        2.981 [cal/(mol K)]       12.472 [J/(mol K)]       0.00475022 [mEh/K]
    Rotational Cv           1.987 [cal/(mol K)]        8.314 [J/(mol K)]       0.00316681 [mEh/K]
    Vibrational Cv          2.059 [cal/(mol K)]        8.615 [J/(mol K)]       0.00328120 [mEh/K]
  Total Cv                  7.027 [cal/(mol K)]       29.401 [J/(mol K)]       0.01119823 [mEh/K]
  Correction Cv             0.000 [cal/(mol K)]        0.000 [J/(mol K)]       0.00000000 [mEh/K]

  Constant pressure heat capacity, Cp
    Electronic Cp           0.000 [cal/(mol K)]        0.000 [J/(mol K)]       0.00000000 [mEh/K]
    Translational Cp        4.968 [cal/(mol K)]       20.786 [J/(mol K)]       0.00791703 [mEh/K]
    Rotational Cp           1.987 [cal/(mol K)]        8.314 [J/(mol K)]       0.00316681 [mEh/K]
    Vibrational Cp          2.059 [cal/(mol K)]        8.615 [J/(mol K)]       0.00328120 [mEh/K]
  Total Cp                  9.014 [cal/(mol K)]       37.715 [J/(mol K)]       0.01436504 [mEh/K]
  Correction Cp             0.000 [cal/(mol K)]        0.000 [J/(mol K)]       0.00000000 [mEh/K]

  ==> Thermochemistry Energy Analysis <==

  Raw electronic energy, E0
  Total E0, Electronic energy at well bottom at 0 [K]                  -77.33090417 [Eh]

  Zero-point energy, ZPE_vib = Sum_i nu_i / 2
    Electronic ZPE          0.000 [kcal/mol]        0.000 [kJ/mol]       0.00000000 [Eh]
    Translational ZPE       0.000 [kcal/mol]        0.000 [kJ/mol]       0.00000000 [Eh]
    Rotational ZPE          0.000 [kcal/mol]        0.000 [kJ/mol]       0.00000000 [Eh]
    Vibrational ZPE        17.866 [kcal/mol]       74.753 [kJ/mol]       0.02847182 [Eh]        6248.841 [cm^-1]
  Correction ZPE           17.866 [kcal/mol]       74.753 [kJ/mol]       0.02847182 [Eh]        6248.841 [cm^-1]
  Total ZPE, Electronic energy at 0 [K]                                -77.30243235 [Eh]

  Thermal Energy, E (includes ZPE)
    Electronic E            0.000 [kcal/mol]        0.000 [kJ/mol]       0.00000000 [Eh]
    Translational E         0.889 [kcal/mol]        3.718 [kJ/mol]       0.00141628 [Eh]
    Rotational E            0.592 [kcal/mol]        2.479 [kJ/mol]       0.00094418 [Eh]
    Vibrational E          18.007 [kcal/mol]       75.342 [kJ/mol]       0.02869613 [Eh]
  Correction E             19.488 [kcal/mol]       81.539 [kJ/mol]       0.03105660 [Eh]
  Total E, Electronic energy at  298.15 [K]                            -77.29984757 [Eh]

  Enthalpy, H_trans = E_trans + k_B * T
    Electronic H            0.000 [kcal/mol]        0.000 [kJ/mol]       0.00000000 [Eh]
    Translational H         1.481 [kcal/mol]        6.197 [kJ/mol]       0.00236046 [Eh]
    Rotational H            0.592 [kcal/mol]        2.479 [kJ/mol]       0.00094418 [Eh]
    Vibrational H          18.007 [kcal/mol]       75.342 [kJ/mol]       0.02869613 [Eh]
  Correction H             20.081 [kcal/mol]       84.018 [kJ/mol]       0.03200078 [Eh]
  Total H, Enthalpy at  298.15 [K]                                     -77.29890339 [Eh]

  Gibbs free energy, G = H - T * S
    Electronic G            0.000 [kcal/mol]        0.000 [kJ/mol]       0.00000000 [Eh]
    Translational G        -9.164 [kcal/mol]      -38.342 [kJ/mol]      -0.01460386 [Eh]
    Rotational G           -2.646 [kcal/mol]      -11.072 [kJ/mol]      -0.00421714 [Eh]
    Vibrational G          17.834 [kcal/mol]       74.616 [kJ/mol]       0.02841989 [Eh]
  Correction G              6.023 [kcal/mol]       25.202 [kJ/mol]       0.00959888 [Eh]
  Total G, Free enthalpy at  298.15 [K]                                -77.32130528 [Eh]

    Psi4 stopped on: Wednesday, 28 April 2021 08:54AM
    Psi4 wall time for execution: 0:01:49.37

*** Psi4 exiting successfully. Buy a developer a beer!
