
    -----------------------------------------------------------------------
          Psi4: An Open-Source Ab Initio Electronic Structure Package
                               Psi4 1.3.2 release

                         Git: Rev {HEAD} ecbda83 


    R. M. Parrish, L. A. Burns, D. G. A. Smith, A. C. Simmonett,
    A. E. DePrince III, E. G. Hohenstein, U. Bozkaya, A. Yu. Sokolov,
    R. Di Remigio, R. M. Richard, J. F. Gonthier, A. M. James,
    H. R. McAlexander, A. Kumar, M. Saitow, X. Wang, B. P. Pritchard,
    P. Verma, H. F. Schaefer III, K. Patkowski, R. A. King, E. F. Valeev,
    F. A. Evangelista, J. M. Turney, T. D. Crawford, and C. D. Sherrill,
    J. Chem. Theory Comput. 13(7) pp 3185--3197 (2017).
    (doi: 10.1021/acs.jctc.7b00174)


                         Additional Contributions by
    P. Kraus, H. Kruse, M. H. Lechner, M. C. Schieber, R. A. Shaw,
    A. Alenaizan, R. Galvelis, Z. L. Glick, S. Lehtola, and J. P. Misiewicz

    -----------------------------------------------------------------------


    Psi4 started on: Wednesday, 28 April 2021 08:53AM

    Process ID: 193046
    Host:       bp1-compute00116.data.bp.acrc.priv
    PSIDATADIR: /work/zw18965/.conda/envs/p4env/share/psi4
    Memory:     500.0 MiB
    Threads:    24
    
  ==> Input File <==

--------------------------------------------------------------------------
memory 144 GB

molecule {
0 1
Cl 0.0000000000 0.0000000000 0.0000000000
C 0.0000000000 0.0000000000 1.6357056100
N 0.0000000000 0.0000000000 2.7976884200
}

set dynamic_level 1
set basis aug-cc-pV(T+d)Z
 
optimize("wB97X-V")
frequencies("wB97X-V")
--------------------------------------------------------------------------

  Memory set to 134.110 GiB by Python driver.
gradient() will perform gradient computation by finite difference of analytic energies.

         ----------------------------------------------------------
                                   FINDIF
                     R. A. King and Jonathon Misiewicz
         ---------------------------------------------------------

  Using finite-differences of energies to determine gradients.
    Generating geometries for use with 3-point formula.
    Displacement size will be 5.00e-03.
    Number of atoms is 3.
    Number of symmetric SALCs is 2.
    Translations projected? 1. Rotations projected? 1.
    Number of geometries (including reference) is 5.

  //>>>>>>>>>>>>>>>>>>>>>>>>>>>>>>>>>>>//
  //    Loading displacement 1 of 5    //
  //<<<<<<<<<<<<<<<<<<<<<<<<<<<<<<<<<<<//

*** tstart() called on bp1-compute00116.data.bp.acrc.priv
*** at Wed Apr 28 08:53:46 2021

   => Loading Basis Set <=

    Name: AUG-CC-PV(T+D)Z
    Role: ORBITAL
    Keyword: BASIS
    atoms 1 entry CL         line  1012 file /work/zw18965/.conda/envs/p4env/share/psi4/basis/aug-cc-pv_tpd_z.gbs 
    atoms 2 entry C          line   255 file /work/zw18965/.conda/envs/p4env/share/psi4/basis/aug-cc-pv_tpd_z.gbs 
    atoms 3 entry N          line   301 file /work/zw18965/.conda/envs/p4env/share/psi4/basis/aug-cc-pv_tpd_z.gbs 


         ---------------------------------------------------------
                                   SCF
               by Justin Turney, Rob Parrish, Andy Simmonett
                          and Daniel G. A. Smith
                              RKS Reference
                       24 Threads, 137329 MiB Core
         ---------------------------------------------------------

  ==> Geometry <==

    Molecular point group: c2v
    Full point group: C_inf_v

    Geometry (in Angstrom), charge = 0, multiplicity = 1:

       Center              X                  Y                   Z               Mass       
    ------------   -----------------  -----------------  -----------------  -----------------
         CL           0.000000000000     0.000000000000    -0.964455422395    34.968852682000
         C            0.000000000000     0.000000000000     0.671250187605    12.000000000000
         N            0.000000000000     0.000000000000     1.833232997605    14.003074004430

  Running in c2v symmetry.

  Rotational constants: A = ************  B =      0.19834  C =      0.19834 [cm^-1]
  Rotational constants: A = ************  B =   5946.00023  C =   5946.00023 [MHz]
  Nuclear repulsion =   74.634432970989252

  Charge       = 0
  Multiplicity = 1
  Electrons    = 30
  Nalpha       = 15
  Nbeta        = 15

  ==> Algorithm <==

  SCF Algorithm Type is DF.
  DIIS enabled.
  MOM disabled.
  Fractional occupation disabled.
  Guess Type is SAD.
  Energy threshold   = 1.00e-08
  Density threshold  = 1.00e-08
  Integral threshold = 0.00e+00

  ==> Primary Basis <==

  Basis Set: AUG-CC-PV(T+D)Z
    Blend: AUG-CC-PV(T+D)Z
    Number of shells: 45
    Number of basis function: 147
    Number of Cartesian functions: 175
    Spherical Harmonics?: true
    Max angular momentum: 3

  ==> DFT Potential <==

   => Composite Functional: WB97X-V <= 

    wB97X-V Hyb-GGA Exchange-Correlation Functional

    N. Mardirossian and M. Head-Gordon, Phys. Chem. Chem. Phys. 16, 9904 (2014)

    Deriv               =              1
    GGA                 =           TRUE
    Meta                =          FALSE

    Exchange Hybrid     =           TRUE
    MP2 Hybrid          =          FALSE

   => Exchange-Correlation Functionals <=

    1.0000   wB97X-V range-separated functional

   => Exact (HF) Exchange <=

    0.8330            HF,LR [omega = 0.3000]
    0.1670               HF 

   => VV10 Non-Local Parameters <=

    VV10 B              =     6.0000E+00
    VV10 C              =     1.0000E-02

   => Molecular Quadrature <=

    Radial Scheme          =       TREUTLER
    Pruning Scheme         =           FLAT
    Nuclear Scheme         =       TREUTLER

    BS radius alpha        =              1
    Pruning alpha          =              1
    Radial Points          =             75
    Spherical Points       =            302
    Total Points           =          67773
    Total Blocks           =            600
    Max Points             =            253
    Max Functions          =            147

   => Loading Basis Set <=

    Name: (AUG-CC-PV(T+D)Z AUX)
    Role: JKFIT
    Keyword: DF_BASIS_SCF
    atoms 1 entry CL         line   816 file /work/zw18965/.conda/envs/p4env/share/psi4/basis/aug-cc-pvtz-jkfit.gbs 
    atoms 2 entry C          line   162 file /work/zw18965/.conda/envs/p4env/share/psi4/basis/aug-cc-pvtz-jkfit.gbs 
    atoms 3 entry N          line   224 file /work/zw18965/.conda/envs/p4env/share/psi4/basis/aug-cc-pvtz-jkfit.gbs 

  ==> Pre-Iterations <==

   -------------------------------------------------------
    Irrep   Nso     Nmo     Nalpha   Nbeta   Ndocc  Nsocc
   -------------------------------------------------------
     A1        61      61       0       0       0       0
     A2        16      16       0       0       0       0
     B1        35      35       0       0       0       0
     B2        35      35       0       0       0       0
   -------------------------------------------------------
    Total     147     147      15      15      15       0
   -------------------------------------------------------

  ==> Integral Setup <==

  ==> DiskDFJK: Density-Fitted J/K Matrices <==

    J tasked:                  Yes
    K tasked:                  Yes
    wK tasked:                 Yes
    Omega:               3.000E-01
    OpenMP threads:             24
    Integrals threads:          24
    Memory [MiB]:           102732
    Algorithm:                Core
    Integral Cache:           NONE
    Schwarz Cutoff:          1E-12
    Fitting Condition:       1E-10

   => Auxiliary Basis Set <=

  Basis Set: (AUG-CC-PV(T+D)Z AUX)
    Blend: AUG-CC-PVTZ-JKFIT
    Number of shells: 102
    Number of basis function: 354
    Number of Cartesian functions: 442
    Spherical Harmonics?: true
    Max angular momentum: 4

  Cached 100.0% of DFT collocation blocks in 0.258 [GiB].

  Minimum eigenvalue in the overlap matrix is 1.6351088911E-04.
  Using Symmetric Orthogonalization.

  SCF Guess: Superposition of Atomic Densities via on-the-fly atomic UHF.

  ==> Iterations <==

                           Total Energy        Delta E     RMS |[F,P]|

   @DF-RKS iter SAD:  -552.41393309612931   -5.52414e+02   0.00000e+00 
   @DF-RKS iter   1:  -552.77695609901411   -3.63023e-01   8.23624e-03 DIIS
   @DF-RKS iter   2:  -552.57750946094723    1.99447e-01   1.16174e-02 DIIS
   @DF-RKS iter   3:  -552.96731032642663   -3.89801e-01   1.02953e-03 DIIS
   @DF-RKS iter   4:  -552.97035124046340   -3.04091e-03   4.45712e-04 DIIS
   @DF-RKS iter   5:  -552.97098279207046   -6.31552e-04   1.03648e-04 DIIS
   @DF-RKS iter   6:  -552.97103506104020   -5.22690e-05   2.53034e-05 DIIS
   @DF-RKS iter   7:  -552.97104058727575   -5.52624e-06   4.22669e-06 DIIS
   @DF-RKS iter   8:  -552.97104071867534   -1.31400e-07   1.23622e-06 DIIS
   @DF-RKS iter   9:  -552.97104072705281   -8.37747e-09   2.36947e-07 DIIS
   @DF-RKS iter  10:  -552.97104072743446   -3.81647e-10   5.80571e-08 DIIS
   @DF-RKS iter  11:  -552.97104072745321   -1.87583e-11   6.69273e-09 DIIS
  Energy and wave function converged.


  ==> Post-Iterations <==

    Orbital Energies [Eh]
    ---------------------

    Doubly Occupied:                                                      

       1A1  -101.640218     2A1   -14.444699     3A1   -10.379952  
       4A1    -9.654474     5A1    -7.411803     1B2    -7.400765  
       1B1    -7.400765     6A1    -1.099650     7A1    -1.036214  
       8A1    -0.694013     2B1    -0.558231     2B2    -0.558231  
       9A1    -0.507401     3B1    -0.440782     3B2    -0.440782  

    Virtual:                                                              

      10A1     0.032336    11A1     0.072521    12A1     0.084056  
       4B1     0.085542     4B2     0.085542     5B1     0.088997  
       5B2     0.088997    13A1     0.123603     6B2     0.125150  
       6B1     0.125150    14A1     0.185240     7B1     0.201278  
       7B2     0.201278    15A1     0.215661    16A1     0.229019  
       1A2     0.229019    17A1     0.249681     2A2     0.355885  
      18A1     0.355886    19A1     0.362402     8B2     0.382703  
       8B1     0.382703     9B1     0.432617     9B2     0.432617  
      20A1     0.453273    10B1     0.460971    10B2     0.460971  
      21A1     0.533915    22A1     0.566381     3A2     0.566385  
      11B2     0.618098    11B1     0.618098    23A1     0.622995  
      24A1     0.639067    25A1     0.710631     4A2     0.710631  
      12B1     0.736219    12B2     0.736219    13B2     0.763688  
      13B1     0.763688    26A1     0.769382    27A1     0.827520  
      28A1     0.911405     5A2     0.911405    14B2     0.945099  
      14B1     0.945099    15B1     1.019173    15B2     1.019173  
      29A1     1.063953    30A1     1.100520    16B1     1.152051  
      16B2     1.152051     6A2     1.152571    31A1     1.152573  
      17B1     1.220931    17B2     1.220931    32A1     1.221568  
      33A1     1.362812    34A1     1.381512     7A2     1.381519  
      18B2     1.430989    18B1     1.430989    19B1     1.558089  
      19B2     1.558089    20B2     1.586780    20B1     1.586780  
      35A1     1.657698    36A1     1.709689     8A2     1.709689  
      37A1     1.753389    38A1     1.865536    21B2     1.877973  
      21B1     1.877973     9A2     2.030281    39A1     2.030285  
      22B1     2.145706    22B2     2.145706    40A1     2.169368  
      41A1     2.279676    10A2     2.279683    23B2     2.311774  
      23B1     2.311774    42A1     2.437046    24B2     2.542014  
      24B1     2.542014    43A1     2.697422    25B1     2.711460  
      25B2     2.711460    26B2     2.783122    26B1     2.783122  
      11A2     2.784501    44A1     2.784508    45A1     2.857036  
      27B1     3.069486    27B2     3.069486    12A2     3.169356  
      46A1     3.169358    28B1     3.239497    28B2     3.239497  
      47A1     3.325236    48A1     3.423326    49A1     3.427585  
      13A2     3.427590    29B1     3.477404    29B2     3.477404  
      30B2     3.733321    30B1     3.733321    50A1     3.914013  
      31B2     4.324854    31B1     4.324854    51A1     4.339477  
      52A1     4.642733    32B1     4.704759    32B2     4.704759  
      14A2     4.929504    53A1     4.929513    15A2     5.196607  
      54A1     5.196608    33B2     5.344234    33B1     5.344234  
      55A1     5.865920    34B2     5.975032    34B1     5.975032  
      56A1     6.047913    57A1     6.925701    16A2     8.264502  
      58A1     8.264504    35B1     8.392060    35B2     8.392060  
      59A1     8.826271    60A1    11.146596    61A1    17.158843  

    Final Occupation by Irrep:
             A1    A2    B1    B2 
    DOCC [     9,    0,    3,    3 ]

  @DF-RKS Final Energy:  -552.97104072745321

   => Energetics <=

    Nuclear Repulsion Energy =             74.6344329709892520
    One-Electron Energy =                -907.5353258406876193
    Two-Electron Energy =                 309.7722718881242940
    DFT Exchange-Correlation Energy =     -29.9668387125797651
    Empirical Dispersion Energy =           0.0000000000000000
    VV10 Nonlocal Energy =                  0.1244189667006039
    Total Energy =                       -552.9710407274532145

Computation Completed


Properties will be evaluated at   0.000000,   0.000000,   0.000000 [a0]

Properties computed using the SCF density matrix

  Nuclear Dipole Moment: [e a0]
     X:     0.0000      Y:     0.0000      Z:     0.8776

  Electronic Dipole Moment: [e a0]
     X:     0.0000      Y:     0.0000      Z:    -2.0442

  Dipole Moment: [e a0]
     X:     0.0000      Y:     0.0000      Z:    -1.1666     Total:     1.1666

  Dipole Moment: [D]
     X:     0.0000      Y:     0.0000      Z:    -2.9652     Total:     2.9652


*** tstop() called on bp1-compute00116.data.bp.acrc.priv at Wed Apr 28 08:53:51 2021
Module time:
	user time   =      94.56 seconds =       1.58 minutes
	system time =       5.52 seconds =       0.09 minutes
	total time  =          5 seconds =       0.08 minutes
Total time:
	user time   =      94.56 seconds =       1.58 minutes
	system time =       5.52 seconds =       0.09 minutes
	total time  =          5 seconds =       0.08 minutes

  //>>>>>>>>>>>>>>>>>>>>>>>>>>>>>>>>>>>//
  //    Loading displacement 2 of 5    //
  //<<<<<<<<<<<<<<<<<<<<<<<<<<<<<<<<<<<//

*** tstart() called on bp1-compute00116.data.bp.acrc.priv
*** at Wed Apr 28 08:53:51 2021

   => Loading Basis Set <=

    Name: AUG-CC-PV(T+D)Z
    Role: ORBITAL
    Keyword: BASIS
    atoms 1 entry CL         line  1012 file /work/zw18965/.conda/envs/p4env/share/psi4/basis/aug-cc-pv_tpd_z.gbs 
    atoms 2 entry C          line   255 file /work/zw18965/.conda/envs/p4env/share/psi4/basis/aug-cc-pv_tpd_z.gbs 
    atoms 3 entry N          line   301 file /work/zw18965/.conda/envs/p4env/share/psi4/basis/aug-cc-pv_tpd_z.gbs 


         ---------------------------------------------------------
                                   SCF
               by Justin Turney, Rob Parrish, Andy Simmonett
                          and Daniel G. A. Smith
                              RKS Reference
                       24 Threads, 137329 MiB Core
         ---------------------------------------------------------

  ==> Geometry <==

    Molecular point group: c2v
    Full point group: C_inf_v

    Geometry (in Angstrom), charge = 0, multiplicity = 1:

       Center              X                  Y                   Z               Mass       
    ------------   -----------------  -----------------  -----------------  -----------------
         CL           0.000000000000     0.000000000000    -0.964747620794    34.968852682000
         C            0.000000000000     0.000000000000     0.671643135099    12.000000000000
         N            0.000000000000     0.000000000000     1.833625945099    14.003074004430

  Running in c2v symmetry.

  Rotational constants: A = ************  B =      0.19823  C =      0.19823 [cm^-1]
  Rotational constants: A = ************  B =   5942.76847  C =   5942.76847 [MHz]
  Nuclear repulsion =   74.615105711215932

  Charge       = 0
  Multiplicity = 1
  Electrons    = 30
  Nalpha       = 15
  Nbeta        = 15

  ==> Algorithm <==

  SCF Algorithm Type is DF.
  DIIS enabled.
  MOM disabled.
  Fractional occupation disabled.
  Guess Type is SAD.
  Energy threshold   = 1.00e-08
  Density threshold  = 1.00e-08
  Integral threshold = 0.00e+00

  ==> Primary Basis <==

  Basis Set: AUG-CC-PV(T+D)Z
    Blend: AUG-CC-PV(T+D)Z
    Number of shells: 45
    Number of basis function: 147
    Number of Cartesian functions: 175
    Spherical Harmonics?: true
    Max angular momentum: 3

  ==> DFT Potential <==

   => Composite Functional: WB97X-V <= 

    wB97X-V Hyb-GGA Exchange-Correlation Functional

    N. Mardirossian and M. Head-Gordon, Phys. Chem. Chem. Phys. 16, 9904 (2014)

    Deriv               =              1
    GGA                 =           TRUE
    Meta                =          FALSE

    Exchange Hybrid     =           TRUE
    MP2 Hybrid          =          FALSE

   => Exchange-Correlation Functionals <=

    1.0000   wB97X-V range-separated functional

   => Exact (HF) Exchange <=

    0.8330            HF,LR [omega = 0.3000]
    0.1670               HF 

   => VV10 Non-Local Parameters <=

    VV10 B              =     6.0000E+00
    VV10 C              =     1.0000E-02

   => Molecular Quadrature <=

    Radial Scheme          =       TREUTLER
    Pruning Scheme         =           FLAT
    Nuclear Scheme         =       TREUTLER

    BS radius alpha        =              1
    Pruning alpha          =              1
    Radial Points          =             75
    Spherical Points       =            302
    Total Points           =          67773
    Total Blocks           =            600
    Max Points             =            253
    Max Functions          =            147

   => Loading Basis Set <=

    Name: (AUG-CC-PV(T+D)Z AUX)
    Role: JKFIT
    Keyword: DF_BASIS_SCF
    atoms 1 entry CL         line   816 file /work/zw18965/.conda/envs/p4env/share/psi4/basis/aug-cc-pvtz-jkfit.gbs 
    atoms 2 entry C          line   162 file /work/zw18965/.conda/envs/p4env/share/psi4/basis/aug-cc-pvtz-jkfit.gbs 
    atoms 3 entry N          line   224 file /work/zw18965/.conda/envs/p4env/share/psi4/basis/aug-cc-pvtz-jkfit.gbs 

  ==> Pre-Iterations <==

   -------------------------------------------------------
    Irrep   Nso     Nmo     Nalpha   Nbeta   Ndocc  Nsocc
   -------------------------------------------------------
     A1        61      61       0       0       0       0
     A2        16      16       0       0       0       0
     B1        35      35       0       0       0       0
     B2        35      35       0       0       0       0
   -------------------------------------------------------
    Total     147     147      15      15      15       0
   -------------------------------------------------------

  ==> Integral Setup <==

  ==> DiskDFJK: Density-Fitted J/K Matrices <==

    J tasked:                  Yes
    K tasked:                  Yes
    wK tasked:                 Yes
    Omega:               3.000E-01
    OpenMP threads:             24
    Integrals threads:          24
    Memory [MiB]:           102732
    Algorithm:                Core
    Integral Cache:           NONE
    Schwarz Cutoff:          1E-12
    Fitting Condition:       1E-10

   => Auxiliary Basis Set <=

  Basis Set: (AUG-CC-PV(T+D)Z AUX)
    Blend: AUG-CC-PVTZ-JKFIT
    Number of shells: 102
    Number of basis function: 354
    Number of Cartesian functions: 442
    Spherical Harmonics?: true
    Max angular momentum: 4

  Cached 100.0% of DFT collocation blocks in 0.258 [GiB].

  Minimum eigenvalue in the overlap matrix is 1.6361382500E-04.
  Using Symmetric Orthogonalization.

  SCF Guess: Superposition of Atomic Densities via on-the-fly atomic UHF.

  ==> Iterations <==

                           Total Energy        Delta E     RMS |[F,P]|

   @DF-RKS iter SAD:  -552.41292036748200   -5.52413e+02   0.00000e+00 
   @DF-RKS iter   1:  -552.77708620783062   -3.64166e-01   8.23405e-03 DIIS
   @DF-RKS iter   2:  -552.57770326828415    1.99383e-01   1.16153e-02 DIIS
   @DF-RKS iter   3:  -552.96730811140503   -3.89605e-01   1.02902e-03 DIIS
   @DF-RKS iter   4:  -552.97034726366314   -3.03915e-03   4.45359e-04 DIIS
   @DF-RKS iter   5:  -552.97097810207777   -6.30838e-04   1.03644e-04 DIIS
   @DF-RKS iter   6:  -552.97103039843626   -5.22964e-05   2.53099e-05 DIIS
   @DF-RKS iter   7:  -552.97103593305496   -5.53462e-06   4.22639e-06 DIIS
   @DF-RKS iter   8:  -552.97103606460746   -1.31552e-07   1.23725e-06 DIIS
   @DF-RKS iter   9:  -552.97103607300244   -8.39498e-09   2.37226e-07 DIIS
   @DF-RKS iter  10:  -552.97103607338477   -3.82329e-10   5.81221e-08 DIIS
   @DF-RKS iter  11:  -552.97103607340409   -1.93268e-11   6.69807e-09 DIIS
  Energy and wave function converged.


  ==> Post-Iterations <==

    Orbital Energies [Eh]
    ---------------------

    Doubly Occupied:                                                      

       1A1  -101.640233     2A1   -14.444754     3A1   -10.380019  
       4A1    -9.654470     5A1    -7.411806     1B2    -7.400760  
       1B1    -7.400760     6A1    -1.099523     7A1    -1.036196  
       8A1    -0.693929     2B2    -0.558131     2B1    -0.558131  
       9A1    -0.507434     3B1    -0.440845     3B2    -0.440845  

    Virtual:                                                              

      10A1     0.032279    11A1     0.072518    12A1     0.083905  
       4B2     0.085565     4B1     0.085565     5B1     0.088974  
       5B2     0.088974    13A1     0.123534     6B2     0.125146  
       6B1     0.125146    14A1     0.185223     7B1     0.201262  
       7B2     0.201262    15A1     0.215679    16A1     0.229037  
       1A2     0.229037    17A1     0.249685     2A2     0.355861  
      18A1     0.355862    19A1     0.362393     8B2     0.382644  
       8B1     0.382644     9B2     0.432596     9B1     0.432596  
      20A1     0.453189    10B2     0.461019    10B1     0.461019  
      21A1     0.533875    22A1     0.566361     3A2     0.566365  
      11B2     0.618091    11B1     0.618091    23A1     0.623063  
      24A1     0.639059    25A1     0.710667     4A2     0.710667  
      12B1     0.736169    12B2     0.736169    13B2     0.763602  
      13B1     0.763602    26A1     0.769385    27A1     0.827377  
      28A1     0.911391     5A2     0.911392    14B2     0.945138  
      14B1     0.945138    15B2     1.019167    15B1     1.019167  
      29A1     1.063596    30A1     1.100560    16B2     1.151982  
      16B1     1.151982     6A2     1.152433    31A1     1.152434  
      17B2     1.220675    17B1     1.220675    32A1     1.221508  
      33A1     1.362747    34A1     1.381416     7A2     1.381422  
      18B2     1.431060    18B1     1.431060    19B2     1.558056  
      19B1     1.558056    20B2     1.586719    20B1     1.586719  
      35A1     1.657551    36A1     1.709557     8A2     1.709558  
      37A1     1.753302    38A1     1.865383    21B2     1.877849  
      21B1     1.877849     9A2     2.030230    39A1     2.030234  
      22B2     2.145461    22B1     2.145461    40A1     2.169903  
      41A1     2.279512    10A2     2.279519    23B2     2.311810  
      23B1     2.311810    42A1     2.436831    24B2     2.542063  
      24B1     2.542063    43A1     2.696219    25B2     2.711453  
      25B1     2.711453    26B2     2.783164    26B1     2.783164  
      11A2     2.784750    44A1     2.784757    45A1     2.856931  
      27B1     3.068862    27B2     3.068862    12A2     3.169282  
      46A1     3.169284    28B1     3.239483    28B2     3.239483  
      47A1     3.325073    48A1     3.423481    49A1     3.427311  
      13A2     3.427316    29B1     3.476987    29B2     3.476987  
      30B2     3.733101    30B1     3.733101    50A1     3.913460  
      31B2     4.324527    31B1     4.324527    51A1     4.338951  
      52A1     4.642889    32B2     4.704711    32B1     4.704711  
      14A2     4.929408    53A1     4.929417    15A2     5.196482  
      54A1     5.196483    33B2     5.343991    33B1     5.343991  
      55A1     5.865620    34B2     5.974529    34B1     5.974529  
      56A1     6.047766    57A1     6.923836    16A2     8.264446  
      58A1     8.264448    35B1     8.391713    35B2     8.391713  
      59A1     8.823871    60A1    11.146122    61A1    17.155646  

    Final Occupation by Irrep:
             A1    A2    B1    B2 
    DOCC [     9,    0,    3,    3 ]

  @DF-RKS Final Energy:  -552.97103607340409

   => Energetics <=

    Nuclear Repulsion Energy =             74.6151057112159322
    One-Electron Energy =                -907.4971141999790234
    Two-Electron Energy =                 309.7531247957284108
    DFT Exchange-Correlation Energy =     -29.9665722912820698
    Empirical Dispersion Energy =           0.0000000000000000
    VV10 Nonlocal Energy =                  0.1244199109126324
    Total Energy =                       -552.9710360734040933

Computation Completed


Properties will be evaluated at   0.000000,   0.000000,   0.000000 [a0]

Properties computed using the SCF density matrix

  Nuclear Dipole Moment: [e a0]
     X:     0.0000      Y:     0.0000      Z:     0.8778

  Electronic Dipole Moment: [e a0]
     X:     0.0000      Y:     0.0000      Z:    -2.0439

  Dipole Moment: [e a0]
     X:     0.0000      Y:     0.0000      Z:    -1.1661     Total:     1.1661

  Dipole Moment: [D]
     X:     0.0000      Y:     0.0000      Z:    -2.9639     Total:     2.9639


*** tstop() called on bp1-compute00116.data.bp.acrc.priv at Wed Apr 28 08:53:55 2021
Module time:
	user time   =      95.76 seconds =       1.60 minutes
	system time =       3.65 seconds =       0.06 minutes
	total time  =          4 seconds =       0.07 minutes
Total time:
	user time   =     190.50 seconds =       3.17 minutes
	system time =       9.18 seconds =       0.15 minutes
	total time  =          9 seconds =       0.15 minutes

  //>>>>>>>>>>>>>>>>>>>>>>>>>>>>>>>>>>>//
  //    Loading displacement 3 of 5    //
  //<<<<<<<<<<<<<<<<<<<<<<<<<<<<<<<<<<<//

*** tstart() called on bp1-compute00116.data.bp.acrc.priv
*** at Wed Apr 28 08:53:55 2021

   => Loading Basis Set <=

    Name: AUG-CC-PV(T+D)Z
    Role: ORBITAL
    Keyword: BASIS
    atoms 1 entry CL         line  1012 file /work/zw18965/.conda/envs/p4env/share/psi4/basis/aug-cc-pv_tpd_z.gbs 
    atoms 2 entry C          line   255 file /work/zw18965/.conda/envs/p4env/share/psi4/basis/aug-cc-pv_tpd_z.gbs 
    atoms 3 entry N          line   301 file /work/zw18965/.conda/envs/p4env/share/psi4/basis/aug-cc-pv_tpd_z.gbs 


         ---------------------------------------------------------
                                   SCF
               by Justin Turney, Rob Parrish, Andy Simmonett
                          and Daniel G. A. Smith
                              RKS Reference
                       24 Threads, 137329 MiB Core
         ---------------------------------------------------------

  ==> Geometry <==

    Molecular point group: c2v
    Full point group: C_inf_v

    Geometry (in Angstrom), charge = 0, multiplicity = 1:

       Center              X                  Y                   Z               Mass       
    ------------   -----------------  -----------------  -----------------  -----------------
         CL           0.000000000000     0.000000000000    -0.964163223996    34.968852682000
         C            0.000000000000     0.000000000000     0.670857240111    12.000000000000
         N            0.000000000000     0.000000000000     1.832840050111    14.003074004430

  Running in c2v symmetry.

  Rotational constants: A = ************  B =      0.19845  C =      0.19845 [cm^-1]
  Rotational constants: A = ************  B =   5949.23453  C =   5949.23453 [MHz]
  Nuclear repulsion =   74.653774509946956

  Charge       = 0
  Multiplicity = 1
  Electrons    = 30
  Nalpha       = 15
  Nbeta        = 15

  ==> Algorithm <==

  SCF Algorithm Type is DF.
  DIIS enabled.
  MOM disabled.
  Fractional occupation disabled.
  Guess Type is SAD.
  Energy threshold   = 1.00e-08
  Density threshold  = 1.00e-08
  Integral threshold = 0.00e+00

  ==> Primary Basis <==

  Basis Set: AUG-CC-PV(T+D)Z
    Blend: AUG-CC-PV(T+D)Z
    Number of shells: 45
    Number of basis function: 147
    Number of Cartesian functions: 175
    Spherical Harmonics?: true
    Max angular momentum: 3

  ==> DFT Potential <==

   => Composite Functional: WB97X-V <= 

    wB97X-V Hyb-GGA Exchange-Correlation Functional

    N. Mardirossian and M. Head-Gordon, Phys. Chem. Chem. Phys. 16, 9904 (2014)

    Deriv               =              1
    GGA                 =           TRUE
    Meta                =          FALSE

    Exchange Hybrid     =           TRUE
    MP2 Hybrid          =          FALSE

   => Exchange-Correlation Functionals <=

    1.0000   wB97X-V range-separated functional

   => Exact (HF) Exchange <=

    0.8330            HF,LR [omega = 0.3000]
    0.1670               HF 

   => VV10 Non-Local Parameters <=

    VV10 B              =     6.0000E+00
    VV10 C              =     1.0000E-02

   => Molecular Quadrature <=

    Radial Scheme          =       TREUTLER
    Pruning Scheme         =           FLAT
    Nuclear Scheme         =       TREUTLER

    BS radius alpha        =              1
    Pruning alpha          =              1
    Radial Points          =             75
    Spherical Points       =            302
    Total Points           =          67773
    Total Blocks           =            599
    Max Points             =            253
    Max Functions          =            147

   => Loading Basis Set <=

    Name: (AUG-CC-PV(T+D)Z AUX)
    Role: JKFIT
    Keyword: DF_BASIS_SCF
    atoms 1 entry CL         line   816 file /work/zw18965/.conda/envs/p4env/share/psi4/basis/aug-cc-pvtz-jkfit.gbs 
    atoms 2 entry C          line   162 file /work/zw18965/.conda/envs/p4env/share/psi4/basis/aug-cc-pvtz-jkfit.gbs 
    atoms 3 entry N          line   224 file /work/zw18965/.conda/envs/p4env/share/psi4/basis/aug-cc-pvtz-jkfit.gbs 

  ==> Pre-Iterations <==

   -------------------------------------------------------
    Irrep   Nso     Nmo     Nalpha   Nbeta   Ndocc  Nsocc
   -------------------------------------------------------
     A1        61      61       0       0       0       0
     A2        16      16       0       0       0       0
     B1        35      35       0       0       0       0
     B2        35      35       0       0       0       0
   -------------------------------------------------------
    Total     147     147      15      15      15       0
   -------------------------------------------------------

  ==> Integral Setup <==

  ==> DiskDFJK: Density-Fitted J/K Matrices <==

    J tasked:                  Yes
    K tasked:                  Yes
    wK tasked:                 Yes
    Omega:               3.000E-01
    OpenMP threads:             24
    Integrals threads:          24
    Memory [MiB]:           102732
    Algorithm:                Core
    Integral Cache:           NONE
    Schwarz Cutoff:          1E-12
    Fitting Condition:       1E-10

   => Auxiliary Basis Set <=

  Basis Set: (AUG-CC-PV(T+D)Z AUX)
    Blend: AUG-CC-PVTZ-JKFIT
    Number of shells: 102
    Number of basis function: 354
    Number of Cartesian functions: 442
    Spherical Harmonics?: true
    Max angular momentum: 4

  Cached 100.0% of DFT collocation blocks in 0.258 [GiB].

  Minimum eigenvalue in the overlap matrix is 1.6340783500E-04.
  Using Symmetric Orthogonalization.

  SCF Guess: Superposition of Atomic Densities via on-the-fly atomic UHF.

  ==> Iterations <==

                           Total Energy        Delta E     RMS |[F,P]|

   @DF-RKS iter SAD:  -552.41495663775379   -5.52415e+02   0.00000e+00 
   @DF-RKS iter   1:  -552.77682660705943   -3.61870e-01   8.23841e-03 DIIS
   @DF-RKS iter   2:  -552.57731782571352    1.99509e-01   1.16195e-02 DIIS
   @DF-RKS iter   3:  -552.96731199494104   -3.89994e-01   1.03004e-03 DIIS
   @DF-RKS iter   4:  -552.97035465165141   -3.04266e-03   4.46060e-04 DIIS
   @DF-RKS iter   5:  -552.97098690063251   -6.32249e-04   1.03651e-04 DIIS
   @DF-RKS iter   6:  -552.97103914069362   -5.22401e-05   2.52967e-05 DIIS
   @DF-RKS iter   7:  -552.97104465837435   -5.51768e-06   4.22701e-06 DIIS
   @DF-RKS iter   8:  -552.97104478962513   -1.31251e-07   1.23519e-06 DIIS
   @DF-RKS iter   9:  -552.97104479798429   -8.35917e-09   2.36669e-07 DIIS
   @DF-RKS iter  10:  -552.97104479836480   -3.80510e-10   5.79925e-08 DIIS
   @DF-RKS iter  11:  -552.97104479838345   -1.86446e-11   6.68737e-09 DIIS
  Energy and wave function converged.


  ==> Post-Iterations <==

    Orbital Energies [Eh]
    ---------------------

    Doubly Occupied:                                                      

       1A1  -101.640203     2A1   -14.444643     3A1   -10.379885  
       4A1    -9.654478     5A1    -7.411801     1B1    -7.400770  
       1B2    -7.400770     6A1    -1.099777     7A1    -1.036231  
       8A1    -0.694097     2B1    -0.558331     2B2    -0.558331  
       9A1    -0.507367     3B2    -0.440719     3B1    -0.440719  

    Virtual:                                                              

      10A1     0.032393    11A1     0.072525    12A1     0.084206  
       4B1     0.085519     4B2     0.085519     5B2     0.089020  
       5B1     0.089020    13A1     0.123672     6B1     0.125155  
       6B2     0.125155    14A1     0.185257     7B2     0.201295  
       7B1     0.201295    15A1     0.215644    16A1     0.229001  
       1A2     0.229001    17A1     0.249676     2A2     0.355909  
      18A1     0.355909    19A1     0.362411     8B1     0.382762  
       8B2     0.382762     9B2     0.432638     9B1     0.432638  
      20A1     0.453357    10B2     0.460923    10B1     0.460923  
      21A1     0.533955    22A1     0.566401     3A2     0.566404  
      11B2     0.618105    11B1     0.618105    23A1     0.622928  
      24A1     0.639075    25A1     0.710595     4A2     0.710595  
      12B2     0.736268    12B1     0.736268    13B2     0.763774  
      13B1     0.763774    26A1     0.769379    27A1     0.827664  
      28A1     0.911419     5A2     0.911419    14B1     0.945061  
      14B2     0.945061    15B2     1.019178    15B1     1.019178  
      29A1     1.064310    30A1     1.100479    16B1     1.152120  
      16B2     1.152120     6A2     1.152710    31A1     1.152711  
      17B2     1.221186    17B1     1.221186    32A1     1.221628  
      33A1     1.362877    34A1     1.381609     7A2     1.381616  
      18B1     1.430917    18B2     1.430917    19B2     1.558122  
      19B1     1.558122    20B2     1.586840    20B1     1.586840  
      35A1     1.657845    36A1     1.709820     8A2     1.709821  
      37A1     1.753476    38A1     1.865689    21B2     1.878098  
      21B1     1.878098     9A2     2.030332    39A1     2.030336  
      22B2     2.145951    22B1     2.145951    40A1     2.168833  
      41A1     2.279840    10A2     2.279847    23B1     2.311739  
      23B2     2.311739    42A1     2.437260    24B2     2.541965  
      24B1     2.541965    43A1     2.698625    25B2     2.711468  
      25B1     2.711468    26B2     2.783080    26B1     2.783080  
      11A2     2.784251    44A1     2.784258    45A1     2.857140  
      27B2     3.070110    27B1     3.070110    12A2     3.169430  
      46A1     3.169432    28B2     3.239512    28B1     3.239512  
      47A1     3.325399    48A1     3.423170    49A1     3.427859  
      13A2     3.427864    29B1     3.477820    29B2     3.477820  
      30B2     3.733542    30B1     3.733542    50A1     3.914565  
      31B1     4.325182    31B2     4.325182    51A1     4.340001  
      52A1     4.642577    32B1     4.704807    32B2     4.704807  
      14A2     4.929599    53A1     4.929608    15A2     5.196732  
      54A1     5.196733    33B2     5.344478    33B1     5.344478  
      55A1     5.866219    34B1     5.975535    34B2     5.975535  
      56A1     6.048061    57A1     6.927567    16A2     8.264558  
      58A1     8.264560    35B2     8.392408    35B1     8.392408  
      59A1     8.828681    60A1    11.147078    61A1    17.162041  

    Final Occupation by Irrep:
             A1    A2    B1    B2 
    DOCC [     9,    0,    3,    3 ]

  @DF-RKS Final Energy:  -552.97104479838345

   => Energetics <=

    Nuclear Repulsion Energy =             74.6537745099469561
    One-Electron Energy =                -907.5735644810557687
    Two-Electron Energy =                 309.7914326661777409
    DFT Exchange-Correlation Energy =     -29.9671055162716726
    Empirical Dispersion Energy =           0.0000000000000000
    VV10 Nonlocal Energy =                  0.1244180228192202
    Total Energy =                       -552.9710447983835593

Computation Completed


Properties will be evaluated at   0.000000,   0.000000,   0.000000 [a0]

Properties computed using the SCF density matrix

  Nuclear Dipole Moment: [e a0]
     X:     0.0000      Y:     0.0000      Z:     0.8773

  Electronic Dipole Moment: [e a0]
     X:     0.0000      Y:     0.0000      Z:    -2.0445

  Dipole Moment: [e a0]
     X:     0.0000      Y:     0.0000      Z:    -1.1671     Total:     1.1671

  Dipole Moment: [D]
     X:     0.0000      Y:     0.0000      Z:    -2.9666     Total:     2.9666


*** tstop() called on bp1-compute00116.data.bp.acrc.priv at Wed Apr 28 08:53:59 2021
Module time:
	user time   =      87.45 seconds =       1.46 minutes
	system time =       2.75 seconds =       0.05 minutes
	total time  =          4 seconds =       0.07 minutes
Total time:
	user time   =     278.09 seconds =       4.63 minutes
	system time =      11.94 seconds =       0.20 minutes
	total time  =         13 seconds =       0.22 minutes

  //>>>>>>>>>>>>>>>>>>>>>>>>>>>>>>>>>>>//
  //    Loading displacement 4 of 5    //
  //<<<<<<<<<<<<<<<<<<<<<<<<<<<<<<<<<<<//

*** tstart() called on bp1-compute00116.data.bp.acrc.priv
*** at Wed Apr 28 08:53:59 2021

   => Loading Basis Set <=

    Name: AUG-CC-PV(T+D)Z
    Role: ORBITAL
    Keyword: BASIS
    atoms 1 entry CL         line  1012 file /work/zw18965/.conda/envs/p4env/share/psi4/basis/aug-cc-pv_tpd_z.gbs 
    atoms 2 entry C          line   255 file /work/zw18965/.conda/envs/p4env/share/psi4/basis/aug-cc-pv_tpd_z.gbs 
    atoms 3 entry N          line   301 file /work/zw18965/.conda/envs/p4env/share/psi4/basis/aug-cc-pv_tpd_z.gbs 


         ---------------------------------------------------------
                                   SCF
               by Justin Turney, Rob Parrish, Andy Simmonett
                          and Daniel G. A. Smith
                              RKS Reference
                       24 Threads, 137329 MiB Core
         ---------------------------------------------------------

  ==> Geometry <==

    Molecular point group: c2v
    Full point group: C_inf_v

    Geometry (in Angstrom), charge = 0, multiplicity = 1:

       Center              X                  Y                   Z               Mass       
    ------------   -----------------  -----------------  -----------------  -----------------
         CL           0.000000000000     0.000000000000    -0.964455422395    34.968852682000
         C            0.000000000000     0.000000000000     0.670689682129    12.000000000000
         N            0.000000000000     0.000000000000     1.833713325404    14.003074004430

  Running in c2v symmetry.

  Rotational constants: A = ************  B =      0.19830  C =      0.19830 [cm^-1]
  Rotational constants: A = ************  B =   5944.90643  C =   5944.90643 [MHz]
  Nuclear repulsion =   74.624763058425231

  Charge       = 0
  Multiplicity = 1
  Electrons    = 30
  Nalpha       = 15
  Nbeta        = 15

  ==> Algorithm <==

  SCF Algorithm Type is DF.
  DIIS enabled.
  MOM disabled.
  Fractional occupation disabled.
  Guess Type is SAD.
  Energy threshold   = 1.00e-08
  Density threshold  = 1.00e-08
  Integral threshold = 0.00e+00

  ==> Primary Basis <==

  Basis Set: AUG-CC-PV(T+D)Z
    Blend: AUG-CC-PV(T+D)Z
    Number of shells: 45
    Number of basis function: 147
    Number of Cartesian functions: 175
    Spherical Harmonics?: true
    Max angular momentum: 3

  ==> DFT Potential <==

   => Composite Functional: WB97X-V <= 

    wB97X-V Hyb-GGA Exchange-Correlation Functional

    N. Mardirossian and M. Head-Gordon, Phys. Chem. Chem. Phys. 16, 9904 (2014)

    Deriv               =              1
    GGA                 =           TRUE
    Meta                =          FALSE

    Exchange Hybrid     =           TRUE
    MP2 Hybrid          =          FALSE

   => Exchange-Correlation Functionals <=

    1.0000   wB97X-V range-separated functional

   => Exact (HF) Exchange <=

    0.8330            HF,LR [omega = 0.3000]
    0.1670               HF 

   => VV10 Non-Local Parameters <=

    VV10 B              =     6.0000E+00
    VV10 C              =     1.0000E-02

   => Molecular Quadrature <=

    Radial Scheme          =       TREUTLER
    Pruning Scheme         =           FLAT
    Nuclear Scheme         =       TREUTLER

    BS radius alpha        =              1
    Pruning alpha          =              1
    Radial Points          =             75
    Spherical Points       =            302
    Total Points           =          67773
    Total Blocks           =            600
    Max Points             =            253
    Max Functions          =            147

   => Loading Basis Set <=

    Name: (AUG-CC-PV(T+D)Z AUX)
    Role: JKFIT
    Keyword: DF_BASIS_SCF
    atoms 1 entry CL         line   816 file /work/zw18965/.conda/envs/p4env/share/psi4/basis/aug-cc-pvtz-jkfit.gbs 
    atoms 2 entry C          line   162 file /work/zw18965/.conda/envs/p4env/share/psi4/basis/aug-cc-pvtz-jkfit.gbs 
    atoms 3 entry N          line   224 file /work/zw18965/.conda/envs/p4env/share/psi4/basis/aug-cc-pvtz-jkfit.gbs 

  ==> Pre-Iterations <==

   -------------------------------------------------------
    Irrep   Nso     Nmo     Nalpha   Nbeta   Ndocc  Nsocc
   -------------------------------------------------------
     A1        61      61       0       0       0       0
     A2        16      16       0       0       0       0
     B1        35      35       0       0       0       0
     B2        35      35       0       0       0       0
   -------------------------------------------------------
    Total     147     147      15      15      15       0
   -------------------------------------------------------

  ==> Integral Setup <==

  ==> DiskDFJK: Density-Fitted J/K Matrices <==

    J tasked:                  Yes
    K tasked:                  Yes
    wK tasked:                 Yes
    Omega:               3.000E-01
    OpenMP threads:             24
    Integrals threads:          24
    Memory [MiB]:           102732
    Algorithm:                Core
    Integral Cache:           NONE
    Schwarz Cutoff:          1E-12
    Fitting Condition:       1E-10

   => Auxiliary Basis Set <=

  Basis Set: (AUG-CC-PV(T+D)Z AUX)
    Blend: AUG-CC-PVTZ-JKFIT
    Number of shells: 102
    Number of basis function: 354
    Number of Cartesian functions: 442
    Spherical Harmonics?: true
    Max angular momentum: 4

  Cached 100.0% of DFT collocation blocks in 0.258 [GiB].

  Minimum eigenvalue in the overlap matrix is 1.6348338760E-04.
  Using Symmetric Orthogonalization.

  SCF Guess: Superposition of Atomic Densities via on-the-fly atomic UHF.

  ==> Iterations <==

                           Total Energy        Delta E     RMS |[F,P]|

   @DF-RKS iter SAD:  -552.41333034853221   -5.52413e+02   0.00000e+00 
   @DF-RKS iter   1:  -552.77677556899937   -3.63445e-01   8.23540e-03 DIIS
   @DF-RKS iter   2:  -552.57578288827551    2.00993e-01   1.16381e-02 DIIS
   @DF-RKS iter   3:  -552.96725476090546   -3.91472e-01   1.02981e-03 DIIS
   @DF-RKS iter   4:  -552.97029770670906   -3.04295e-03   4.46388e-04 DIIS
   @DF-RKS iter   5:  -552.97093122725187   -6.33521e-04   1.03835e-04 DIIS
   @DF-RKS iter   6:  -552.97098368064144   -5.24534e-05   2.53775e-05 DIIS
   @DF-RKS iter   7:  -552.97098922847442   -5.54783e-06   4.24296e-06 DIIS
   @DF-RKS iter   8:  -552.97098936071870   -1.32244e-07   1.23887e-06 DIIS
   @DF-RKS iter   9:  -552.97098936913233   -8.41362e-09   2.37267e-07 DIIS
   @DF-RKS iter  10:  -552.97098936951545   -3.83125e-10   5.83254e-08 DIIS
   @DF-RKS iter  11:  -552.97098936953421   -1.87583e-11   6.74152e-09 DIIS
  Energy and wave function converged.


  ==> Post-Iterations <==

    Orbital Energies [Eh]
    ---------------------

    Doubly Occupied:                                                      

       1A1  -101.640259     2A1   -14.444937     3A1   -10.380185  
       4A1    -9.654528     5A1    -7.411851     1B2    -7.400820  
       1B1    -7.400820     6A1    -1.099635     7A1    -1.035994  
       8A1    -0.694162     2B2    -0.558244     2B1    -0.558244  
       9A1    -0.507442     3B1    -0.440572     3B2    -0.440572  

    Virtual:                                                              

      10A1     0.032357    11A1     0.072520    12A1     0.084125  
       4B2     0.085393     4B1     0.085393     5B1     0.088859  
       5B2     0.088859    13A1     0.123636     6B1     0.125141  
       6B2     0.125141    14A1     0.185235     7B1     0.201259  
       7B2     0.201259    15A1     0.215646    16A1     0.228998  
       1A2     0.228999    17A1     0.249672     2A2     0.355889  
      18A1     0.355890    19A1     0.362343     8B2     0.382715  
       8B1     0.382715     9B2     0.432602     9B1     0.432602  
      20A1     0.453248    10B2     0.460912    10B1     0.460912  
      21A1     0.533852    22A1     0.566380     3A2     0.566384  
      11B2     0.618085    11B1     0.618085    23A1     0.622972  
      24A1     0.638866    25A1     0.710545     4A2     0.710545  
      12B2     0.736204    12B1     0.736204    13B2     0.763595  
      13B1     0.763595    26A1     0.769274    27A1     0.827513  
      28A1     0.911435     5A2     0.911436    14B1     0.945059  
      14B2     0.945059    15B2     1.019245    15B1     1.019245  
      29A1     1.063140    30A1     1.100253    16B1     1.152081  
      16B2     1.152081     6A2     1.152597    31A1     1.152599  
      17B2     1.220860    17B1     1.220860    32A1     1.221582  
      33A1     1.362825    34A1     1.381610     7A2     1.381616  
      18B2     1.431076    18B1     1.431076    19B2     1.557761  
      19B1     1.557761    20B2     1.586600    20B1     1.586600  
      35A1     1.657844    36A1     1.709505     8A2     1.709505  
      37A1     1.753031    38A1     1.865346    21B2     1.877872  
      21B1     1.877872     9A2     2.030022    39A1     2.030026  
      22B1     2.145326    22B2     2.145326    40A1     2.169248  
      41A1     2.279543    10A2     2.279550    23B2     2.311663  
      23B1     2.311663    42A1     2.435691    24B2     2.542122  
      24B1     2.542122    43A1     2.698148    25B2     2.711778  
      25B1     2.711778    26B2     2.783040    26B1     2.783040  
      11A2     2.784252    44A1     2.784259    45A1     2.856843  
      27B2     3.069960    27B1     3.069960    12A2     3.169404  
      46A1     3.169405    28B2     3.239562    28B1     3.239562  
      47A1     3.324204    48A1     3.423575    49A1     3.427358  
      13A2     3.427363    29B2     3.476947    29B1     3.476947  
      30B2     3.732550    30B1     3.732550    50A1     3.913803  
      31B2     4.323848    31B1     4.323848    51A1     4.339100  
      52A1     4.641292    32B2     4.704577    32B1     4.704577  
      14A2     4.929040    53A1     4.929050    15A2     5.195476  
      54A1     5.195477    33B2     5.344130    33B1     5.344130  
      55A1     5.861937    34B2     5.972346    34B1     5.972346  
      56A1     6.046529    57A1     6.926505    16A2     8.264480  
      58A1     8.264481    35B2     8.392120    35B1     8.392120  
      59A1     8.827407    60A1    11.142476    61A1    17.126817  

    Final Occupation by Irrep:
             A1    A2    B1    B2 
    DOCC [     9,    0,    3,    3 ]

  @DF-RKS Final Energy:  -552.97098936953421

   => Energetics <=

    Nuclear Repulsion Energy =             74.6247630584252306
    One-Electron Energy =                -907.5157356361288521
    Two-Electron Energy =                 309.7617382209061816
    DFT Exchange-Correlation Energy =     -29.9661726823787333
    Empirical Dispersion Energy =           0.0000000000000000
    VV10 Nonlocal Energy =                  0.1244176696419471
    Total Energy =                       -552.9709893695343226

Computation Completed


Properties will be evaluated at   0.000000,   0.000000,   0.000000 [a0]

Properties computed using the SCF density matrix

  Nuclear Dipole Moment: [e a0]
     X:     0.0000      Y:     0.0000      Z:     0.8776

  Electronic Dipole Moment: [e a0]
     X:     0.0000      Y:     0.0000      Z:    -2.0452

  Dipole Moment: [e a0]
     X:     0.0000      Y:     0.0000      Z:    -1.1676     Total:     1.1676

  Dipole Moment: [D]
     X:     0.0000      Y:     0.0000      Z:    -2.9679     Total:     2.9679


*** tstop() called on bp1-compute00116.data.bp.acrc.priv at Wed Apr 28 08:54:03 2021
Module time:
	user time   =      87.01 seconds =       1.45 minutes
	system time =       2.76 seconds =       0.05 minutes
	total time  =          4 seconds =       0.07 minutes
Total time:
	user time   =     365.24 seconds =       6.09 minutes
	system time =      14.70 seconds =       0.24 minutes
	total time  =         17 seconds =       0.28 minutes

  //>>>>>>>>>>>>>>>>>>>>>>>>>>>>>>>>>>>//
  //    Loading displacement 5 of 5    //
  //<<<<<<<<<<<<<<<<<<<<<<<<<<<<<<<<<<<//

*** tstart() called on bp1-compute00116.data.bp.acrc.priv
*** at Wed Apr 28 08:54:03 2021

   => Loading Basis Set <=

    Name: AUG-CC-PV(T+D)Z
    Role: ORBITAL
    Keyword: BASIS
    atoms 1 entry CL         line  1012 file /work/zw18965/.conda/envs/p4env/share/psi4/basis/aug-cc-pv_tpd_z.gbs 
    atoms 2 entry C          line   255 file /work/zw18965/.conda/envs/p4env/share/psi4/basis/aug-cc-pv_tpd_z.gbs 
    atoms 3 entry N          line   301 file /work/zw18965/.conda/envs/p4env/share/psi4/basis/aug-cc-pv_tpd_z.gbs 


         ---------------------------------------------------------
                                   SCF
               by Justin Turney, Rob Parrish, Andy Simmonett
                          and Daniel G. A. Smith
                              RKS Reference
                       24 Threads, 137329 MiB Core
         ---------------------------------------------------------

  ==> Geometry <==

    Molecular point group: c2v
    Full point group: C_inf_v

    Geometry (in Angstrom), charge = 0, multiplicity = 1:

       Center              X                  Y                   Z               Mass       
    ------------   -----------------  -----------------  -----------------  -----------------
         CL           0.000000000000     0.000000000000    -0.964455422395    34.968852682000
         C            0.000000000000     0.000000000000     0.671810693081    12.000000000000
         N            0.000000000000     0.000000000000     1.832752669806    14.003074004430

  Running in c2v symmetry.

  Rotational constants: A = ************  B =      0.19837  C =      0.19837 [cm^-1]
  Rotational constants: A = ************  B =   5947.09346  C =   5947.09346 [MHz]
  Nuclear repulsion =   74.644142653370096

  Charge       = 0
  Multiplicity = 1
  Electrons    = 30
  Nalpha       = 15
  Nbeta        = 15

  ==> Algorithm <==

  SCF Algorithm Type is DF.
  DIIS enabled.
  MOM disabled.
  Fractional occupation disabled.
  Guess Type is SAD.
  Energy threshold   = 1.00e-08
  Density threshold  = 1.00e-08
  Integral threshold = 0.00e+00

  ==> Primary Basis <==

  Basis Set: AUG-CC-PV(T+D)Z
    Blend: AUG-CC-PV(T+D)Z
    Number of shells: 45
    Number of basis function: 147
    Number of Cartesian functions: 175
    Spherical Harmonics?: true
    Max angular momentum: 3

  ==> DFT Potential <==

   => Composite Functional: WB97X-V <= 

    wB97X-V Hyb-GGA Exchange-Correlation Functional

    N. Mardirossian and M. Head-Gordon, Phys. Chem. Chem. Phys. 16, 9904 (2014)

    Deriv               =              1
    GGA                 =           TRUE
    Meta                =          FALSE

    Exchange Hybrid     =           TRUE
    MP2 Hybrid          =          FALSE

   => Exchange-Correlation Functionals <=

    1.0000   wB97X-V range-separated functional

   => Exact (HF) Exchange <=

    0.8330            HF,LR [omega = 0.3000]
    0.1670               HF 

   => VV10 Non-Local Parameters <=

    VV10 B              =     6.0000E+00
    VV10 C              =     1.0000E-02

   => Molecular Quadrature <=

    Radial Scheme          =       TREUTLER
    Pruning Scheme         =           FLAT
    Nuclear Scheme         =       TREUTLER

    BS radius alpha        =              1
    Pruning alpha          =              1
    Radial Points          =             75
    Spherical Points       =            302
    Total Points           =          67773
    Total Blocks           =            599
    Max Points             =            253
    Max Functions          =            147

   => Loading Basis Set <=

    Name: (AUG-CC-PV(T+D)Z AUX)
    Role: JKFIT
    Keyword: DF_BASIS_SCF
    atoms 1 entry CL         line   816 file /work/zw18965/.conda/envs/p4env/share/psi4/basis/aug-cc-pvtz-jkfit.gbs 
    atoms 2 entry C          line   162 file /work/zw18965/.conda/envs/p4env/share/psi4/basis/aug-cc-pvtz-jkfit.gbs 
    atoms 3 entry N          line   224 file /work/zw18965/.conda/envs/p4env/share/psi4/basis/aug-cc-pvtz-jkfit.gbs 

  ==> Pre-Iterations <==

   -------------------------------------------------------
    Irrep   Nso     Nmo     Nalpha   Nbeta   Ndocc  Nsocc
   -------------------------------------------------------
     A1        61      61       0       0       0       0
     A2        16      16       0       0       0       0
     B1        35      35       0       0       0       0
     B2        35      35       0       0       0       0
   -------------------------------------------------------
    Total     147     147      15      15      15       0
   -------------------------------------------------------

  ==> Integral Setup <==

  ==> DiskDFJK: Density-Fitted J/K Matrices <==

    J tasked:                  Yes
    K tasked:                  Yes
    wK tasked:                 Yes
    Omega:               3.000E-01
    OpenMP threads:             24
    Integrals threads:          24
    Memory [MiB]:           102732
    Algorithm:                Core
    Integral Cache:           NONE
    Schwarz Cutoff:          1E-12
    Fitting Condition:       1E-10

   => Auxiliary Basis Set <=

  Basis Set: (AUG-CC-PV(T+D)Z AUX)
    Blend: AUG-CC-PVTZ-JKFIT
    Number of shells: 102
    Number of basis function: 354
    Number of Cartesian functions: 442
    Spherical Harmonics?: true
    Max angular momentum: 4

  Cached 100.0% of DFT collocation blocks in 0.258 [GiB].

  Minimum eigenvalue in the overlap matrix is 1.6353797261E-04.
  Using Symmetric Orthogonalization.

  SCF Guess: Superposition of Atomic Densities via on-the-fly atomic UHF.

  ==> Iterations <==

                           Total Energy        Delta E     RMS |[F,P]|

   @DF-RKS iter SAD:  -552.41454372196176   -5.52415e+02   0.00000e+00 
   @DF-RKS iter   1:  -552.77713088136636   -3.62587e-01   8.23710e-03 DIIS
   @DF-RKS iter   2:  -552.57922418818691    1.97907e-01   1.15967e-02 DIIS
   @DF-RKS iter   3:  -552.96736098699978   -3.88137e-01   1.02925e-03 DIIS
   @DF-RKS iter   4:  -552.97039987945152   -3.03889e-03   4.45035e-04 DIIS
   @DF-RKS iter   5:  -552.97102945740426   -6.29578e-04   1.03461e-04 DIIS
   @DF-RKS iter   6:  -552.97108154145326   -5.20840e-05   2.52296e-05 DIIS
   @DF-RKS iter   7:  -552.97108704609559   -5.50464e-06   4.21054e-06 DIIS
   @DF-RKS iter   8:  -552.97108717666038   -1.30565e-07   1.23358e-06 DIIS
   @DF-RKS iter   9:  -552.97108718500135   -8.34098e-09   2.36629e-07 DIIS
   @DF-RKS iter  10:  -552.97108718538232   -3.80965e-10   5.77916e-08 DIIS
   @DF-RKS iter  11:  -552.97108718540039   -1.80762e-11   6.64489e-09 DIIS
  Energy and wave function converged.


  ==> Post-Iterations <==

    Orbital Energies [Eh]
    ---------------------

    Doubly Occupied:                                                      

       1A1  -101.640177     2A1   -14.444460     3A1   -10.379719  
       4A1    -9.654421     5A1    -7.411756     1B2    -7.400710  
       1B1    -7.400710     6A1    -1.099667     7A1    -1.036431  
       8A1    -0.693865     2B2    -0.558219     2B1    -0.558219  
       9A1    -0.507359     3B1    -0.440991     3B2    -0.440991  

    Virtual:                                                              

      10A1     0.032315    11A1     0.072523    12A1     0.083987  
       4B2     0.085677     4B1     0.085677     5B1     0.089149  
       5B2     0.089149    13A1     0.123570     6B2     0.125159  
       6B1     0.125159    14A1     0.185245     7B2     0.201297  
       7B1     0.201297    15A1     0.215677    16A1     0.229039  
       1A2     0.229040    17A1     0.249689     2A2     0.355881  
      18A1     0.355882    19A1     0.362461     8B2     0.382691  
       8B1     0.382691     9B2     0.432632     9B1     0.432632  
      20A1     0.453297    10B1     0.461029    10B2     0.461029  
      21A1     0.533978    22A1     0.566382     3A2     0.566386  
      11B2     0.618110    11B1     0.618110    23A1     0.623018  
      24A1     0.639267    25A1     0.710717     4A2     0.710717  
      12B1     0.736233    12B2     0.736233    13B1     0.763781  
      13B2     0.763781    26A1     0.769489    27A1     0.827526  
      28A1     0.911375     5A2     0.911375    14B2     0.945140  
      14B1     0.945140    15B1     1.019100    15B2     1.019100  
      29A1     1.064760    30A1     1.100796    16B2     1.152021  
      16B1     1.152021     6A2     1.152545    31A1     1.152547  
      17B1     1.221001    17B2     1.221001    32A1     1.221554  
      33A1     1.362800    34A1     1.381415     7A2     1.381422  
      18B2     1.430901    18B1     1.430901    19B1     1.558417  
      19B2     1.558417    20B2     1.586960    20B1     1.586960  
      35A1     1.657553    36A1     1.709873     8A2     1.709873  
      37A1     1.753746    38A1     1.865727    21B1     1.878075  
      21B2     1.878075     9A2     2.030539    39A1     2.030543  
      22B2     2.146087    22B1     2.146087    40A1     2.169490  
      41A1     2.279809    10A2     2.279816    23B1     2.311886  
      23B2     2.311886    42A1     2.438402    24B1     2.541902  
      24B2     2.541902    43A1     2.696694    25B1     2.711144  
      25B2     2.711144    26B1     2.783203    26B2     2.783203  
      11A2     2.784749    44A1     2.784756    45A1     2.857229  
      27B1     3.069012    27B2     3.069012    12A2     3.169309  
      46A1     3.169311    28B2     3.239433    28B1     3.239433  
      47A1     3.326265    48A1     3.423076    49A1     3.427814  
      13A2     3.427819    29B1     3.477859    29B2     3.477859  
      30B2     3.734095    30B1     3.734095    50A1     3.914223  
      31B2     4.325861    31B1     4.325861    51A1     4.339848  
      52A1     4.644190    32B1     4.704942    32B2     4.704942  
      14A2     4.929968    53A1     4.929977    15A2     5.197739  
      54A1     5.197740    33B2     5.344338    33B1     5.344338  
      55A1     5.869919    34B2     5.977721    34B1     5.977721  
      56A1     6.049309    57A1     6.924897    16A2     8.264525  
      58A1     8.264526    35B1     8.391998    35B2     8.391998  
      59A1     8.825140    60A1    11.150719    61A1    17.190864  

    Final Occupation by Irrep:
             A1    A2    B1    B2 
    DOCC [     9,    0,    3,    3 ]

  @DF-RKS Final Energy:  -552.97108718540039

   => Energetics <=

    Nuclear Repulsion Energy =             74.6441426533700962
    One-Electron Energy =                -907.5549836140492062
    Two-Electron Energy =                 309.7828404259424815
    DFT Exchange-Correlation Energy =     -29.9675069180196019
    Empirical Dispersion Energy =           0.0000000000000000
    VV10 Nonlocal Energy =                  0.1244202673558263
    Total Energy =                       -552.9710871854003926

Computation Completed


Properties will be evaluated at   0.000000,   0.000000,   0.000000 [a0]

Properties computed using the SCF density matrix

  Nuclear Dipole Moment: [e a0]
     X:     0.0000      Y:     0.0000      Z:     0.8776

  Electronic Dipole Moment: [e a0]
     X:     0.0000      Y:     0.0000      Z:    -2.0432

  Dipole Moment: [e a0]
     X:     0.0000      Y:     0.0000      Z:    -1.1656     Total:     1.1656

  Dipole Moment: [D]
     X:     0.0000      Y:     0.0000      Z:    -2.9626     Total:     2.9626


*** tstop() called on bp1-compute00116.data.bp.acrc.priv at Wed Apr 28 08:54:07 2021
Module time:
	user time   =      87.63 seconds =       1.46 minutes
	system time =       2.59 seconds =       0.04 minutes
	total time  =          4 seconds =       0.07 minutes
Total time:
	user time   =     453.01 seconds =       7.55 minutes
	system time =      17.29 seconds =       0.29 minutes
	total time  =         21 seconds =       0.35 minutes

         ----------------------------------------------------------
                                   FINDIF
                     R. A. King and Jonathon Misiewicz
         ---------------------------------------------------------

  Computing gradient from energies.
    Using 3-point formula.
    Energy without displacement: -552.9710407275
    Check energies below for precision!
    Forces are for mass-weighted, symmetry-adapted cartesians (in au).

     Coord      Energy(-1)        Energy(+1)            Force
        0   -552.9710360734   -552.9710447984     -0.0008724979
        1   -552.9709893695   -552.9710871854     -0.0097815866


-------------------------------------------------------------
  ## New Matrix (Symmetry 0) ##
  Irrep: 1 Size: 3 x 3

                 1                   2                   3

    1     0.00000000000000     0.00000000000000    -0.00336939933815
    2     0.00000000000000     0.00000000000000    -0.02331069540490
    3     0.00000000000000     0.00000000000000     0.02668009474305




			-----------------------------------------
			 OPTKING 2.0: for geometry optimizations 
			  - R.A. King,  Bethel University        
			-----------------------------------------
	At level 1: Red. Int., RFO, no backsteps, dynamic trust

	Internal coordinates to be generated automatically.
	Detected frag 1 with atoms:  1 2 3
	---Fragment 1 Bond Connectivity---
	 1 : 2
	 2 : 1 3
	 3 : 2

	---Fragment 1 Geometry and Gradient---
	 CL          0.0000000000        0.0000000000       -1.8225566085
	 C           0.0000000000        0.0000000000        1.2684790162
	 N           0.0000000000        0.0000000000        3.4643082896
	             0.0000000000        0.0000000000       -0.0033693993
	             0.0000000000        0.0000000000       -0.0233106954
	             0.0000000000        0.0000000000        0.0266800947

	Previous optimization step data not found.  Starting new optimization.

	---Fragment 1 Intrafragment Coordinates---
	 - Coordinate -           - BOHR/RAD -       - ANG/DEG -
	 R(1,2)           =         3.091036	       1.635706
	 R(2,3)           =         2.195829	       1.161983
	 L(1,2,3)         =         3.141593	     180.000000
	 l(1,2,3)         =         3.141593	     180.000000

	Current energy   :      -552.9710407275

	Generating empirical Hessian (Schlegel '84) for each fragment.
	Taking RFO optimization step.
	Going to follow RFO solution 1.
	Using RFO vector 1.
	Norm of target step-size    0.02237
	Projected energy change by RFO approximation:        -0.0005873899

	Back-transformation to cartesian coordinates...
	Successfully converged to displaced geometry.

	--- Internal Coordinate Step in ANG or DEG, aJ/ANG or AJ/DEG ---
	 ---------------------------------------------------------------------------
	   Coordinate                Previous        Force       Change         New 
	   ----------                --------       ------       ------       ------
	    1 R(1,2)          =      1.635706    -0.027760    -0.003967     1.631739
	    2 R(2,3)          =      1.161983    -0.219810    -0.011155     1.150828
	    3 L(1,2,3)        =    180.000000     0.000000     0.000000   180.000000
	    4 l(1,2,3)        =    180.000000     0.000000     0.000000   180.000000
	 ---------------------------------------------------------------------------
	Successfully symmetrized geometry.

  ==> Convergence Check <==

  Measures of convergence in internal coordinates in au.
  Criteria marked as inactive (o), active & met (*), and active & unmet ( ).
  --------------------------------------------------------------------------------------------- ~
   Step     Total Energy     Delta E     MAX Force     RMS Force      MAX Disp      RMS Disp    ~
  --------------------------------------------------------------------------------------------- ~
    Convergence Criteria    1.00e-06 *    3.00e-04 *             o    1.20e-03 *             o  ~
  --------------------------------------------------------------------------------------------- ~
      1    -552.97104073   -5.53e+02      2.67e-02      1.34e-02 o    2.11e-02      1.12e-02 o  ~
  ---------------------------------------------------------------------------------------------

	Writing optimization data to binary file.
	Structure for next step:
	Cartesian Geometry (in Angstrom)
	   CL    -0.0000000000   0.0000000000  -0.9580924995
	    C     0.0000000000  -0.0000000000   0.6736463548
	    N     0.0000000000   0.0000000000   1.8244739015
			--------------------------
			 OPTKING Finished Execution 
			--------------------------

    Structure for next step:
    Molecular point group: c2v
    Full point group: C_inf_v

    Geometry (in Angstrom), charge = 0, multiplicity = 1:

    CL           0.000000000000     0.000000000000    -0.960201733812
    C           -0.000000000000     0.000000000000     0.671537126931
    N            0.000000000000    -0.000000000000     1.822364678171

gradient() will perform gradient computation by finite difference of analytic energies.

         ----------------------------------------------------------
                                   FINDIF
                     R. A. King and Jonathon Misiewicz
         ---------------------------------------------------------

  Using finite-differences of energies to determine gradients.
    Generating geometries for use with 3-point formula.
    Displacement size will be 5.00e-03.
    Number of atoms is 3.
    Number of symmetric SALCs is 2.
    Translations projected? 1. Rotations projected? 1.
    Number of geometries (including reference) is 5.

  //>>>>>>>>>>>>>>>>>>>>>>>>>>>>>>>>>>>//
  //    Loading displacement 1 of 5    //
  //<<<<<<<<<<<<<<<<<<<<<<<<<<<<<<<<<<<//

*** tstart() called on bp1-compute00116.data.bp.acrc.priv
*** at Wed Apr 28 08:54:07 2021

   => Loading Basis Set <=

    Name: AUG-CC-PV(T+D)Z
    Role: ORBITAL
    Keyword: BASIS
    atoms 1 entry CL         line  1012 file /work/zw18965/.conda/envs/p4env/share/psi4/basis/aug-cc-pv_tpd_z.gbs 
    atoms 2 entry C          line   255 file /work/zw18965/.conda/envs/p4env/share/psi4/basis/aug-cc-pv_tpd_z.gbs 
    atoms 3 entry N          line   301 file /work/zw18965/.conda/envs/p4env/share/psi4/basis/aug-cc-pv_tpd_z.gbs 


         ---------------------------------------------------------
                                   SCF
               by Justin Turney, Rob Parrish, Andy Simmonett
                          and Daniel G. A. Smith
                              RKS Reference
                       24 Threads, 137329 MiB Core
         ---------------------------------------------------------

  ==> Geometry <==

    Molecular point group: c2v
    Full point group: C_inf_v

    Geometry (in Angstrom), charge = 0, multiplicity = 1:

       Center              X                  Y                   Z               Mass       
    ------------   -----------------  -----------------  -----------------  -----------------
         CL          -0.000000000000     0.000000000000    -0.960201733812    34.968852682000
         C            0.000000000000     0.000000000000     0.671537126931    12.000000000000
         N           -0.000000000000     0.000000000000     1.822364678171    14.003074004430

  Running in c2v symmetry.

  Rotational constants: A = ************  B =      0.20031  C =      0.20031 [cm^-1]
  Rotational constants: A = ************  B =   6005.20870  C =   6005.20870 [MHz]
  Nuclear repulsion =   75.022381243531385

  Charge       = 0
  Multiplicity = 1
  Electrons    = 30
  Nalpha       = 15
  Nbeta        = 15

  ==> Algorithm <==

  SCF Algorithm Type is DF.
  DIIS enabled.
  MOM disabled.
  Fractional occupation disabled.
  Guess Type is READ.
  Energy threshold   = 1.00e-08
  Density threshold  = 1.00e-08
  Integral threshold = 0.00e+00

  ==> Primary Basis <==

  Basis Set: AUG-CC-PV(T+D)Z
    Blend: AUG-CC-PV(T+D)Z
    Number of shells: 45
    Number of basis function: 147
    Number of Cartesian functions: 175
    Spherical Harmonics?: true
    Max angular momentum: 3

  ==> DFT Potential <==

   => Composite Functional: WB97X-V <= 

    wB97X-V Hyb-GGA Exchange-Correlation Functional

    N. Mardirossian and M. Head-Gordon, Phys. Chem. Chem. Phys. 16, 9904 (2014)

    Deriv               =              1
    GGA                 =           TRUE
    Meta                =          FALSE

    Exchange Hybrid     =           TRUE
    MP2 Hybrid          =          FALSE

   => Exchange-Correlation Functionals <=

    1.0000   wB97X-V range-separated functional

   => Exact (HF) Exchange <=

    0.8330            HF,LR [omega = 0.3000]
    0.1670               HF 

   => VV10 Non-Local Parameters <=

    VV10 B              =     6.0000E+00
    VV10 C              =     1.0000E-02

   => Molecular Quadrature <=

    Radial Scheme          =       TREUTLER
    Pruning Scheme         =           FLAT
    Nuclear Scheme         =       TREUTLER

    BS radius alpha        =              1
    Pruning alpha          =              1
    Radial Points          =             75
    Spherical Points       =            302
    Total Points           =          67773
    Total Blocks           =            600
    Max Points             =            252
    Max Functions          =            147

   => Loading Basis Set <=

    Name: (AUG-CC-PV(T+D)Z AUX)
    Role: JKFIT
    Keyword: DF_BASIS_SCF
    atoms 1 entry CL         line   816 file /work/zw18965/.conda/envs/p4env/share/psi4/basis/aug-cc-pvtz-jkfit.gbs 
    atoms 2 entry C          line   162 file /work/zw18965/.conda/envs/p4env/share/psi4/basis/aug-cc-pvtz-jkfit.gbs 
    atoms 3 entry N          line   224 file /work/zw18965/.conda/envs/p4env/share/psi4/basis/aug-cc-pvtz-jkfit.gbs 

   => Loading Basis Set <=

    Name: AUG-CC-PV(T+D)Z
    Role: ORBITAL
    Keyword: BASIS
    atoms 1 entry CL         line  1012 file /work/zw18965/.conda/envs/p4env/share/psi4/basis/aug-cc-pv_tpd_z.gbs 
    atoms 2 entry C          line   255 file /work/zw18965/.conda/envs/p4env/share/psi4/basis/aug-cc-pv_tpd_z.gbs 
    atoms 3 entry N          line   301 file /work/zw18965/.conda/envs/p4env/share/psi4/basis/aug-cc-pv_tpd_z.gbs 

  Reading orbitals from file 180, no projection.

  ==> Pre-Iterations <==

   -------------------------------------------------------
    Irrep   Nso     Nmo     Nalpha   Nbeta   Ndocc  Nsocc
   -------------------------------------------------------
     A1        61      61       0       0       0       0
     A2        16      16       0       0       0       0
     B1        35      35       0       0       0       0
     B2        35      35       0       0       0       0
   -------------------------------------------------------
    Total     147     147      15      15      15       0
   -------------------------------------------------------

  ==> Integral Setup <==

  ==> DiskDFJK: Density-Fitted J/K Matrices <==

    J tasked:                  Yes
    K tasked:                  Yes
    wK tasked:                 Yes
    Omega:               3.000E-01
    OpenMP threads:             24
    Integrals threads:          24
    Memory [MiB]:           102732
    Algorithm:                Core
    Integral Cache:           NONE
    Schwarz Cutoff:          1E-12
    Fitting Condition:       1E-10

   => Auxiliary Basis Set <=

  Basis Set: (AUG-CC-PV(T+D)Z AUX)
    Blend: AUG-CC-PVTZ-JKFIT
    Number of shells: 102
    Number of basis function: 354
    Number of Cartesian functions: 442
    Spherical Harmonics?: true
    Max angular momentum: 4

  Cached 100.0% of DFT collocation blocks in 0.258 [GiB].

  Minimum eigenvalue in the overlap matrix is 1.6233100330E-04.
  Using Symmetric Orthogonalization.

  SCF Guess: Orbitals guess was supplied from a previous computation.

  ==> Iterations <==

                           Total Energy        Delta E     RMS |[F,P]|

   @DF-RKS iter   0:  -552.97410795273868   -5.52974e+02   6.73010e-04 
   @DF-RKS iter   1:  -552.97129453027105    2.81342e-03   1.19892e-04 DIIS
   @DF-RKS iter   2:  -552.97132138843324   -2.68582e-05   9.46883e-05 DIIS
   @DF-RKS iter   3:  -552.97134565691101   -2.42685e-05   8.63416e-06 DIIS
   @DF-RKS iter   4:  -552.97134581539262   -1.58482e-07   5.15961e-06 DIIS
   @DF-RKS iter   5:  -552.97134587414052   -5.87479e-08   2.71993e-06 DIIS
   @DF-RKS iter   6:  -552.97134589766210   -2.35216e-08   5.52518e-07 DIIS
   @DF-RKS iter   7:  -552.97134589926577   -1.60367e-09   8.53084e-08 DIIS
   @DF-RKS iter   8:  -552.97134589931261   -4.68390e-11   1.86191e-08 DIIS
   @DF-RKS iter   9:  -552.97134589931431   -1.70530e-12   3.86275e-09 DIIS
  Energy and wave function converged.


  ==> Post-Iterations <==

    Orbital Energies [Eh]
    ---------------------

    Doubly Occupied:                                                      

       1A1  -101.639553     2A1   -14.441310     3A1   -10.376461  
       4A1    -9.653950     5A1    -7.411253     1B2    -7.400238  
       1B1    -7.400238     6A1    -1.101712     7A1    -1.038760  
       8A1    -0.693648     2B2    -0.559584     2B1    -0.559584  
       9A1    -0.506453     3B2    -0.442109     3B1    -0.442109  

    Virtual:                                                              

      10A1     0.032917    11A1     0.072584    12A1     0.085499  
       4B2     0.086076     4B1     0.086076     5B2     0.091524  
       5B1     0.091524    13A1     0.124272     6B2     0.125327  
       6B1     0.125327    14A1     0.185530     7B2     0.201731  
       7B1     0.201731    15A1     0.215578    16A1     0.228976  
       1A2     0.228977    17A1     0.249703     2A2     0.356187  
      18A1     0.356188    19A1     0.363170     8B2     0.383423  
       8B1     0.383423     9B1     0.433080     9B2     0.433080  
      20A1     0.454749    10B2     0.460939    10B1     0.460939  
      21A1     0.535171    22A1     0.566664     3A2     0.566669  
      11B2     0.618321    11B1     0.618321    23A1     0.622220  
      24A1     0.641274    25A1     0.711038     4A2     0.711038  
      12B2     0.737113    12B1     0.737113    13B1     0.765947  
      13B2     0.765947    26A1     0.770475    27A1     0.829715  
      28A1     0.911285     5A2     0.911285    14B1     0.944968  
      14B2     0.944968    15B1     1.018447    15B2     1.018447  
      29A1     1.077313    30A1     1.103439    16B1     1.152741  
      16B2     1.152741     6A2     1.154298    31A1     1.154300  
      32A1     1.222462    17B2     1.225426    17B1     1.225426  
      33A1     1.363677    34A1     1.381903     7A2     1.381908  
      18B2     1.428970    18B1     1.428970    19B1     1.562138  
      19B2     1.562138    20B1     1.589611    20B2     1.589611  
      35A1     1.658284    36A1     1.713577     8A2     1.713578  
      37A1     1.758464    38A1     1.870003    21B2     1.880914  
      21B1     1.880914     9A2     2.033783    39A1     2.033787  
      22B2     2.153282    22B1     2.153282    40A1     2.162909  
      41A1     2.283437    10A2     2.283444    23B2     2.312433  
      23B1     2.312433    42A1     2.454673    24B2     2.539930  
      24B1     2.539930    43A1     2.707080    25B2     2.708388  
      25B1     2.708388    26B2     2.783386    26B1     2.783386  
      11A2     2.783513    44A1     2.783520    45A1     2.860710  
      27B2     3.073487    27B1     3.073487    12A2     3.170008  
      46A1     3.170010    28B2     3.239007    28B1     3.239007  
      47A1     3.338587    48A1     3.418615    49A1     3.434174  
      13A2     3.434179    29B2     3.488460    29B1     3.488460  
      30B2     3.745018    30B1     3.745018    50A1     3.924187  
      31B2     4.340254    31B1     4.340254    51A1     4.350042  
      52A1     4.657219    32B2     4.707460    32B1     4.707460  
      14A2     4.935956    53A1     4.935964    15A2     5.210622  
      54A1     5.210622    33B2     5.348860    33B1     5.348860  
      55A1     5.913914    34B2     6.011383    34B1     6.011383  
      56A1     6.065786    57A1     6.944144    16A2     8.265566  
      58A1     8.265567    35B2     8.396548    35B1     8.396548  
      59A1     8.849408    60A1    11.197606    61A1    17.550075  

    Final Occupation by Irrep:
             A1    A2    B1    B2 
    DOCC [     9,    0,    3,    3 ]

  @DF-RKS Final Energy:  -552.97134589931431

   => Energetics <=

    Nuclear Repulsion Energy =             75.0223812435313846
    One-Electron Energy =                -908.3068194205469581
    Two-Electron Energy =                 310.1666609099296466
    DFT Exchange-Correlation Energy =     -29.9779879167258514
    Empirical Dispersion Energy =           0.0000000000000000
    VV10 Nonlocal Energy =                  0.1244192844974935
    Total Energy =                       -552.9713458993142012

Computation Completed


Properties will be evaluated at   0.000000,   0.000000,   0.000000 [a0]

Properties computed using the SCF density matrix

  Nuclear Dipole Moment: [e a0]
     X:     0.0000      Y:    -0.0000      Z:     0.8737

  Electronic Dipole Moment: [e a0]
     X:     0.0000      Y:     0.0000      Z:    -2.0369

  Dipole Moment: [e a0]
     X:     0.0000      Y:    -0.0000      Z:    -1.1632     Total:     1.1632

  Dipole Moment: [D]
     X:     0.0000      Y:    -0.0000      Z:    -2.9566     Total:     2.9566


*** tstop() called on bp1-compute00116.data.bp.acrc.priv at Wed Apr 28 08:54:10 2021
Module time:
	user time   =      64.57 seconds =       1.08 minutes
	system time =       1.76 seconds =       0.03 minutes
	total time  =          3 seconds =       0.05 minutes
Total time:
	user time   =     517.99 seconds =       8.63 minutes
	system time =      19.07 seconds =       0.32 minutes
	total time  =         24 seconds =       0.40 minutes

  //>>>>>>>>>>>>>>>>>>>>>>>>>>>>>>>>>>>//
  //    Loading displacement 2 of 5    //
  //<<<<<<<<<<<<<<<<<<<<<<<<<<<<<<<<<<<//

*** tstart() called on bp1-compute00116.data.bp.acrc.priv
[...]
    atoms 2 entry C          line   255 file /work/zw18965/.conda/envs/p4env/share/psi4/basis/aug-cc-pv_tpd_z.gbs 
    atoms 3 entry N          line   301 file /work/zw18965/.conda/envs/p4env/share/psi4/basis/aug-cc-pv_tpd_z.gbs 


         ---------------------------------------------------------
                                   SCF
               by Justin Turney, Rob Parrish, Andy Simmonett
                          and Daniel G. A. Smith
                              RKS Reference
                       24 Threads, 137329 MiB Core
         ---------------------------------------------------------

  ==> Geometry <==

    Molecular point group: cs
    Full point group: Cs

    Geometry (in Angstrom), charge = 0, multiplicity = 1:

       Center              X                  Y                   Z               Mass       
    ------------   -----------------  -----------------  -----------------  -----------------
         CL           0.000000000000    -0.000093183592    -0.959957210900    34.968852682000
         C            0.000000000000     0.000656552591     0.671356672936    12.000000000000
         N            0.000000000000    -0.000329935254     1.821908689882    14.003074004430

  Running in cs symmetry.

  Rotational constants: A = 2407987.46702  B =      0.20041  C =      0.20041 [cm^-1]
  Rotational constants: A = 72189648157.17372  B =   6008.24979  C =   6008.24929 [MHz]
  Nuclear repulsion =   75.041311761385828

  Charge       = 0
  Multiplicity = 1
  Electrons    = 30
  Nalpha       = 15
  Nbeta        = 15

  ==> Algorithm <==

  SCF Algorithm Type is DF.
  DIIS enabled.
  MOM disabled.
  Fractional occupation disabled.
  Guess Type is SAD.
  Energy threshold   = 1.00e-10
  Density threshold  = 1.00e-10
  Integral threshold = 0.00e+00

  ==> Primary Basis <==

  Basis Set: AUG-CC-PV(T+D)Z
    Blend: AUG-CC-PV(T+D)Z
    Number of shells: 45
    Number of basis function: 147
    Number of Cartesian functions: 175
    Spherical Harmonics?: true
    Max angular momentum: 3

  ==> DFT Potential <==

   => Composite Functional: WB97X-V <= 

    wB97X-V Hyb-GGA Exchange-Correlation Functional

    N. Mardirossian and M. Head-Gordon, Phys. Chem. Chem. Phys. 16, 9904 (2014)

    Deriv               =              1
    GGA                 =           TRUE
    Meta                =          FALSE

    Exchange Hybrid     =           TRUE
    MP2 Hybrid          =          FALSE

   => Exchange-Correlation Functionals <=

    1.0000   wB97X-V range-separated functional

   => Exact (HF) Exchange <=

    0.8330            HF,LR [omega = 0.3000]
    0.1670               HF 

   => VV10 Non-Local Parameters <=

    VV10 B              =     6.0000E+00
    VV10 C              =     1.0000E-02

   => Molecular Quadrature <=

    Radial Scheme          =       TREUTLER
    Pruning Scheme         =           FLAT
    Nuclear Scheme         =       TREUTLER

    BS radius alpha        =              1
    Pruning alpha          =              1
    Radial Points          =             75
    Spherical Points       =            302
    Total Points           =          67773
    Total Blocks           =            590
    Max Points             =            255
    Max Functions          =            147

   => Loading Basis Set <=

    Name: (AUG-CC-PV(T+D)Z AUX)
    Role: JKFIT
    Keyword: DF_BASIS_SCF
    atoms 1 entry CL         line   816 file /work/zw18965/.conda/envs/p4env/share/psi4/basis/aug-cc-pvtz-jkfit.gbs 
    atoms 2 entry C          line   162 file /work/zw18965/.conda/envs/p4env/share/psi4/basis/aug-cc-pvtz-jkfit.gbs 
    atoms 3 entry N          line   224 file /work/zw18965/.conda/envs/p4env/share/psi4/basis/aug-cc-pvtz-jkfit.gbs 

  ==> Pre-Iterations <==

   -------------------------------------------------------
    Irrep   Nso     Nmo     Nalpha   Nbeta   Ndocc  Nsocc
   -------------------------------------------------------
     A'        96      96       0       0       0       0
     A"        51      51       0       0       0       0
   -------------------------------------------------------
    Total     147     147      15      15      15       0
   -------------------------------------------------------

  ==> Integral Setup <==

  ==> DiskDFJK: Density-Fitted J/K Matrices <==

    J tasked:                  Yes
    K tasked:                  Yes
    wK tasked:                 Yes
    Omega:               3.000E-01
    OpenMP threads:             24
    Integrals threads:          24
    Memory [MiB]:           102732
    Algorithm:                Core
    Integral Cache:           NONE
    Schwarz Cutoff:          1E-12
    Fitting Condition:       1E-10

   => Auxiliary Basis Set <=

  Basis Set: (AUG-CC-PV(T+D)Z AUX)
    Blend: AUG-CC-PVTZ-JKFIT
    Number of shells: 102
    Number of basis function: 354
    Number of Cartesian functions: 442
    Spherical Harmonics?: true
    Max angular momentum: 4

  Cached 100.0% of DFT collocation blocks in 0.258 [GiB].

  Minimum eigenvalue in the overlap matrix is 1.6225465679E-04.
  Using Symmetric Orthogonalization.

  SCF Guess: Superposition of Atomic Densities via on-the-fly atomic UHF.

  ==> Iterations <==

                           Total Energy        Delta E     RMS |[F,P]|

   @DF-RKS iter SAD:  -552.43625119095827   -5.52436e+02   0.00000e+00 
   @DF-RKS iter   1:  -552.77649959390578   -3.40248e-01   6.10794e-03 DIIS
   @DF-RKS iter   2:  -552.59261898337661    1.83881e-01   8.42720e-03 DIIS
   @DF-RKS iter   3:  -552.96762571436795   -3.75007e-01   7.62702e-04 DIIS
   @DF-RKS iter   4:  -552.97067005108863   -3.04434e-03   3.27251e-04 DIIS
   @DF-RKS iter   5:  -552.97129096045319   -6.20909e-04   7.49953e-05 DIIS
   @DF-RKS iter   6:  -552.97134082997002   -4.98695e-05   1.80075e-05 DIIS
   @DF-RKS iter   7:  -552.97134600492666   -5.17496e-06   2.99310e-06 DIIS
   @DF-RKS iter   8:  -552.97134612533125   -1.20405e-07   8.79640e-07 DIIS
   @DF-RKS iter   9:  -552.97134613306628   -7.73503e-09   1.69118e-07 DIIS
   @DF-RKS iter  10:  -552.97134613342109   -3.54817e-10   4.00701e-08 DIIS
   @DF-RKS iter  11:  -552.97134613343758   -1.64846e-11   4.52701e-09 DIIS
   @DF-RKS iter  12:  -552.97134613343815   -5.68434e-13   7.35557e-10 DIIS
   @DF-RKS iter  13:  -552.97134613343803    1.13687e-13   9.93871e-11 DIIS
  Energy and wave function converged.


  ==> Post-Iterations <==

    Orbital Energies [Eh]
    ---------------------

    Doubly Occupied:                                                      

       1Ap  -101.639529     2Ap   -14.441199     3Ap   -10.376343  
       4Ap    -9.653939     5Ap    -7.411238     1App   -7.400226  
       6Ap    -7.400226     7Ap    -1.101822     8Ap    -1.038833  
       9Ap    -0.693679     2App   -0.559665    10Ap    -0.559665  
      11Ap    -0.506413     3App   -0.442112    12Ap    -0.442112  

    Virtual:                                                              

      13Ap     0.032956    14Ap     0.072587    15Ap     0.085602  
       4App    0.086069    16Ap     0.086071     5App    0.091606  
      17Ap     0.091606    18Ap     0.124325     6App    0.125334  
      19Ap     0.125335    20Ap     0.185546    21Ap     0.201749  
       7App    0.201750    22Ap     0.215568    23Ap     0.228967  
       8App    0.228967    24Ap     0.249702     9App    0.356206  
      25Ap     0.356206    26Ap     0.363194    10App    0.383468  
      27Ap     0.383469    28Ap     0.433101    11App    0.433101  
      29Ap     0.454826    30Ap     0.460918    12App    0.460918  
      31Ap     0.535221    32Ap     0.566680    13App    0.566684  
      33Ap     0.618327    14App    0.618329    34Ap     0.622169  
      35Ap     0.641331    36Ap     0.711031    15App    0.711031  
      16App    0.737160    37Ap     0.737160    38Ap     0.766044  
      17App    0.766044    39Ap     0.770500    40Ap     0.829841  
      41Ap     0.911289    18App    0.911290    42Ap     0.944947  
      19App    0.944947    43Ap     1.018431    20App    1.018431  
      44Ap     1.077791    45Ap     1.103510    21App    1.152778  
      46Ap     1.152778    22App    1.154420    47Ap     1.154421  
      48Ap     1.222497    23App    1.225660    49Ap     1.225687  
      50Ap     1.363726    51Ap     1.381959    24App    1.381965  
      25App    1.428884    52Ap     1.428886    26App    1.562257  
      53Ap     1.562257    54Ap     1.589710    27App    1.589710  
      55Ap     1.658370    56Ap     1.713736    28App    1.713736  
      57Ap     1.758632    58Ap     1.870195    29App    1.881049  
      59Ap     1.881050    30App    2.033894    60Ap     2.033898  
      61Ap     2.153579    31App    2.153580    62Ap     2.162490  
      63Ap     2.283602    32App    2.283608    64Ap     2.312431  
      33App    2.312431    65Ap     2.455202    34App    2.539852  
      66Ap     2.539852    67Ap     2.707796    35App    2.708329  
      68Ap     2.708429    36App    2.783363    69Ap     2.783366  
      37App    2.783378    70Ap     2.783381    71Ap     2.860854  
      38App    3.073881    72Ap     3.073883    39App    3.170065  
      73Ap     3.170067    40App    3.239002    74Ap     3.239002  
      75Ap     3.338994    76Ap     3.418436    77Ap     3.434472  
      41App    3.434477    42App    3.488943    78Ap     3.488943  
      79Ap     3.745419    43App    3.745420    80Ap     3.924689  
      81Ap     4.340779    44App    4.340782    82Ap     4.350492  
      83Ap     4.657547    84Ap     4.707551    45App    4.707551  
      46App    4.936165    85Ap     4.936173    47App    5.211027  
      86Ap     5.211028    48App    5.349092    87Ap     5.349092  
      88Ap     5.915257    89Ap     6.012520    49App    6.012525  
      90Ap     6.066333    91Ap     6.945489    50App    8.265620  
      92Ap     8.265621    93Ap     8.396835    51App    8.396836  
      94Ap     8.851170    95Ap    11.199117    96Ap    17.561343  

    Final Occupation by Irrep:
             Ap   App 
    DOCC [    12,    3 ]

  @DF-RKS Final Energy:  -552.97134613343803

   => Energetics <=

    Nuclear Repulsion Energy =             75.0413117613858276
    One-Electron Energy =                -908.3443441334223962
    Two-Electron Energy =                 310.1856616424659023
    DFT Exchange-Correlation Energy =     -29.9783942473771177
    Empirical Dispersion Energy =           0.0000000000000000
    VV10 Nonlocal Energy =                  0.1244188435096943
    Total Energy =                       -552.9713461334380327

Computation Completed


Properties will be evaluated at   0.000000,   0.000000,   0.000000 [a0]

Properties computed using the SCF density matrix

  Nuclear Dipole Moment: [e a0]
     X:     0.0000      Y:     0.0001      Z:     0.8735

  Electronic Dipole Moment: [e a0]
     X:     0.0000      Y:     0.0002      Z:    -2.0369

  Dipole Moment: [e a0]
     X:     0.0000      Y:     0.0003      Z:    -1.1634     Total:     1.1634

  Dipole Moment: [D]
     X:     0.0000      Y:     0.0008      Z:    -2.9571     Total:     2.9571


*** tstop() called on bp1-compute00116.data.bp.acrc.priv at Wed Apr 28 08:55:30 2021
Module time:
	user time   =      93.45 seconds =       1.56 minutes
	system time =       2.66 seconds =       0.04 minutes
	total time  =          4 seconds =       0.07 minutes
Total time:
	user time   =    2362.24 seconds =      39.37 minutes
	system time =      75.02 seconds =       1.25 minutes
	total time  =        104 seconds =       1.73 minutes

         ----------------------------------------------------------
                                   FINDIF
                     R. A. King and Jonathon Misiewicz
         ---------------------------------------------------------

  Computing second-derivative from energies using projected, 
  symmetry-adapted, cartesian coordinates.

  9 energies passed in, including the reference geometry.
    Using 3-point formula.
    Energy without displacement: -552.9713462130
    Check energies below for precision!
    0: -1        :      -552.9713458456
    0: 1         :      -552.9713459768
    1: -1        :      -552.9713437268
    1: 1         :      -552.9713434335
    0: 1, 1: 1   :      -552.9713436473
    0: -1, 1: -1 :      -552.9713438042
    2: -1        :      -552.9713461330
    3: -1        :      -552.9713461334

-------------------------------------------------------------


  ==> Harmonic Vibrational Analysis <==

  non-mass-weighted Hessian:       Symmetric? True   Hermitian? True   Lin Dep Dim?  5 (0)
  projection of translations (True) and rotations (True) removed 5 degrees of freedom (5)
  total projector:                 Symmetric? True   Hermitian? True   Lin Dep Dim?  5 (5)
  mass-weighted Hessian:           Symmetric? True   Hermitian? True   Lin Dep Dim?  5 (0)
  pre-proj  low-frequency mode:    0.0000i [cm^-1]
  pre-proj  low-frequency mode:    0.0000i [cm^-1]
  pre-proj  low-frequency mode:    0.0000i [cm^-1]
  pre-proj  low-frequency mode:    0.0000  [cm^-1]
  pre-proj  low-frequency mode:    0.0000  [cm^-1]
  pre-proj  all modes:['0.0000i' '0.0000i' '0.0000i' '0.0000' '0.0000' '410.1829' '411.1819'
 '770.0969' '2368.6947']
  projected mass-weighted Hessian: Symmetric? True   Hermitian? True   Lin Dep Dim?  5 (5)
  post-proj low-frequency mode:    0.0000i [cm^-1] (TR)
  post-proj low-frequency mode:    0.0000i [cm^-1] (TR)
  post-proj low-frequency mode:    0.0000i [cm^-1] (TR)
  post-proj low-frequency mode:    0.0000i [cm^-1] (TR)
  post-proj low-frequency mode:    0.0000  [cm^-1] (TR)
  post-proj  all modes:['0.0000i' '0.0000i' '0.0000i' '0.0000i' '0.0000' '410.1829' '411.1819'
 '770.0969' '2368.6947']

  Vibration                       6                   7                   8           
  Freq [cm^-1]                 410.1829            411.1819            770.0969       
  Irrep                           B2                  B1                  A1          
  Reduced mass [u]             12.7610             12.7610             17.9686        
  Force const [mDyne/A]         1.2650              1.2712              6.2785        
  Turning point v=0 [a0]        0.1517              0.1515              0.0933        
  RMS dev v=0 [a0 u^1/2]        0.3831              0.3826              0.2796        
  Char temp [K]                590.1619            591.5991           1107.9980       
  ----------------------------------------------------------------------------------
      1   CL              -0.00 -0.13  0.00   -0.13  0.00 -0.00   -0.00  0.00  0.47   
      2   C               -0.00  0.89  0.00    0.89  0.00 -0.00    0.00  0.00 -0.54   
      3   N                0.00 -0.45  0.00   -0.45 -0.00 -0.00    0.00  0.00 -0.70   

  Vibration                       9           
  Freq [cm^-1]                2368.6947       
  Irrep                           A1          
  Reduced mass [u]             12.7409        
  Force const [mDyne/A]        42.1180        
  Turning point v=0 [a0]        0.0632        
  RMS dev v=0 [a0 u^1/2]        0.1594        
  Char temp [K]               3408.0243       
  ----------------------------------------------------------------------------------
      1   CL              -0.00  0.00 -0.04   
      2   C               -0.00  0.00  0.80   
      3   N               -0.00  0.00 -0.59   

  ==> Thermochemistry Components <==

  Entropy, S
    Electronic S            0.000 [cal/(mol K)]        0.000 [J/(mol K)]       0.00000000 [mEh/K] (multiplicity = 1)
    Translational S        38.243 [cal/(mol K)]      160.010 [J/(mol K)]       0.06094445 [mEh/K] (mol. weight = 60.9719 [u], P = 101325.00 [Pa])
    Rotational S           15.781 [cal/(mol K)]       66.027 [J/(mol K)]       0.02514820 [mEh/K] (symmetry no. = 1)
    Vibrational S           2.082 [cal/(mol K)]        8.710 [J/(mol K)]       0.00331746 [mEh/K]
  Total S                  56.106 [cal/(mol K)]      234.746 [J/(mol K)]       0.08941010 [mEh/K]
  Correction S              0.000 [cal/(mol K)]        0.000 [J/(mol K)]       0.00000000 [mEh/K]

  Constant volume heat capacity, Cv
    Electronic Cv           0.000 [cal/(mol K)]        0.000 [J/(mol K)]       0.00000000 [mEh/K]
    Translational Cv        2.981 [cal/(mol K)]       12.472 [J/(mol K)]       0.00475022 [mEh/K]
    Rotational Cv           1.987 [cal/(mol K)]        8.314 [J/(mol K)]       0.00316681 [mEh/K]
    Vibrational Cv          3.598 [cal/(mol K)]       15.055 [J/(mol K)]       0.00573406 [mEh/K]
  Total Cv                  8.566 [cal/(mol K)]       35.841 [J/(mol K)]       0.01365109 [mEh/K]
  Correction Cv             0.000 [cal/(mol K)]        0.000 [J/(mol K)]       0.00000000 [mEh/K]

  Constant pressure heat capacity, Cp
    Electronic Cp           0.000 [cal/(mol K)]        0.000 [J/(mol K)]       0.00000000 [mEh/K]
    Translational Cp        4.968 [cal/(mol K)]       20.786 [J/(mol K)]       0.00791703 [mEh/K]
    Rotational Cp           1.987 [cal/(mol K)]        8.314 [J/(mol K)]       0.00316681 [mEh/K]
    Vibrational Cp          3.598 [cal/(mol K)]       15.055 [J/(mol K)]       0.00573406 [mEh/K]
  Total Cp                 10.553 [cal/(mol K)]       44.155 [J/(mol K)]       0.01681790 [mEh/K]
  Correction Cp             0.000 [cal/(mol K)]        0.000 [J/(mol K)]       0.00000000 [mEh/K]

  ==> Thermochemistry Energy Analysis <==

  Raw electronic energy, E0
  Total E0, Electronic energy at well bottom at 0 [K]                 -552.97134621 [Eh]

  Zero-point energy, ZPE_vib = Sum_i nu_i / 2
    Electronic ZPE          0.000 [kcal/mol]        0.000 [kJ/mol]       0.00000000 [Eh]
    Translational ZPE       0.000 [kcal/mol]        0.000 [kJ/mol]       0.00000000 [Eh]
    Rotational ZPE          0.000 [kcal/mol]        0.000 [kJ/mol]       0.00000000 [Eh]
    Vibrational ZPE         5.661 [kcal/mol]       23.687 [kJ/mol]       0.00902190 [Eh]        1980.078 [cm^-1]
  Correction ZPE            5.661 [kcal/mol]       23.687 [kJ/mol]       0.00902190 [Eh]        1980.078 [cm^-1]
  Total ZPE, Electronic energy at 0 [K]                               -552.96232431 [Eh]

  Thermal Energy, E (includes ZPE)
    Electronic E            0.000 [kcal/mol]        0.000 [kJ/mol]       0.00000000 [Eh]
    Translational E         0.889 [kcal/mol]        3.718 [kJ/mol]       0.00141628 [Eh]
    Rotational E            0.592 [kcal/mol]        2.479 [kJ/mol]       0.00094418 [Eh]
    Vibrational E           6.092 [kcal/mol]       25.488 [kJ/mol]       0.00970771 [Eh]
  Correction E              7.573 [kcal/mol]       31.685 [kJ/mol]       0.01206818 [Eh]
  Total E, Electronic energy at  298.15 [K]                           -552.95927804 [Eh]

  Enthalpy, H_trans = E_trans + k_B * T
    Electronic H            0.000 [kcal/mol]        0.000 [kJ/mol]       0.00000000 [Eh]
    Translational H         1.481 [kcal/mol]        6.197 [kJ/mol]       0.00236046 [Eh]
    Rotational H            0.592 [kcal/mol]        2.479 [kJ/mol]       0.00094418 [Eh]
    Vibrational H           6.092 [kcal/mol]       25.488 [kJ/mol]       0.00970771 [Eh]
  Correction H              8.165 [kcal/mol]       34.164 [kJ/mol]       0.01301236 [Eh]
  Total H, Enthalpy at  298.15 [K]                                    -552.95833385 [Eh]

  Gibbs free energy, G = H - T * S
    Electronic G            0.000 [kcal/mol]        0.000 [kJ/mol]       0.00000000 [Eh]
    Translational G        -9.921 [kcal/mol]      -41.509 [kJ/mol]      -0.01581013 [Eh]
    Rotational G           -4.113 [kcal/mol]      -17.207 [kJ/mol]      -0.00655375 [Eh]
    Vibrational G           5.471 [kcal/mol]       22.891 [kJ/mol]       0.00871861 [Eh]
  Correction G             -8.563 [kcal/mol]      -35.826 [kJ/mol]      -0.01364526 [Eh]
  Total G, Free enthalpy at  298.15 [K]                               -552.98499147 [Eh]

    Psi4 stopped on: Wednesday, 28 April 2021 08:55AM
    Psi4 wall time for execution: 0:01:43.91

*** Psi4 exiting successfully. Buy a developer a beer!
