
    -----------------------------------------------------------------------
          Psi4: An Open-Source Ab Initio Electronic Structure Package
                               Psi4 1.3.2 release

                         Git: Rev {HEAD} ecbda83 


    R. M. Parrish, L. A. Burns, D. G. A. Smith, A. C. Simmonett,
    A. E. DePrince III, E. G. Hohenstein, U. Bozkaya, A. Yu. Sokolov,
    R. Di Remigio, R. M. Richard, J. F. Gonthier, A. M. James,
    H. R. McAlexander, A. Kumar, M. Saitow, X. Wang, B. P. Pritchard,
    P. Verma, H. F. Schaefer III, K. Patkowski, R. A. King, E. F. Valeev,
    F. A. Evangelista, J. M. Turney, T. D. Crawford, and C. D. Sherrill,
    J. Chem. Theory Comput. 13(7) pp 3185--3197 (2017).
    (doi: 10.1021/acs.jctc.7b00174)


                         Additional Contributions by
    P. Kraus, H. Kruse, M. H. Lechner, M. C. Schieber, R. A. Shaw,
    A. Alenaizan, R. Galvelis, Z. L. Glick, S. Lehtola, and J. P. Misiewicz

    -----------------------------------------------------------------------


    Psi4 started on: Tuesday, 27 April 2021 05:21PM

    Process ID: 276723
    Host:       bp1-compute00046.data.bp.acrc.priv
    PSIDATADIR: /work/zw18965/.conda/envs/p4env/share/psi4
    Memory:     500.0 MiB
    Threads:    24
    
  ==> Input File <==

--------------------------------------------------------------------------
memory 144 GB

molecule {
0 1
C 0.0000000000 0.0000000000 0.0000000000
O 0.0000000000 0.0000000000 1.1314000000
}

set dynamic_level 1
set basis aug-cc-pV(T+d)Z
 
optimize("wB97X-V")
frequencies("wB97X-V")
--------------------------------------------------------------------------

  Memory set to 134.110 GiB by Python driver.
gradient() will perform gradient computation by finite difference of analytic energies.

         ----------------------------------------------------------
                                   FINDIF
                     R. A. King and Jonathon Misiewicz
         ---------------------------------------------------------

  Using finite-differences of energies to determine gradients.
    Generating geometries for use with 3-point formula.
    Displacement size will be 5.00e-03.
    Number of atoms is 2.
    Number of symmetric SALCs is 1.
    Translations projected? 1. Rotations projected? 1.
    Number of geometries (including reference) is 3.

  //>>>>>>>>>>>>>>>>>>>>>>>>>>>>>>>>>>>//
  //    Loading displacement 1 of 3    //
  //<<<<<<<<<<<<<<<<<<<<<<<<<<<<<<<<<<<//

*** tstart() called on bp1-compute00046.data.bp.acrc.priv
*** at Tue Apr 27 17:21:08 2021

   => Loading Basis Set <=

    Name: AUG-CC-PV(T+D)Z
    Role: ORBITAL
    Keyword: BASIS
    atoms 1 entry C          line   255 file /work/zw18965/.conda/envs/p4env/share/psi4/basis/aug-cc-pv_tpd_z.gbs 
    atoms 2 entry O          line   347 file /work/zw18965/.conda/envs/p4env/share/psi4/basis/aug-cc-pv_tpd_z.gbs 


         ---------------------------------------------------------
                                   SCF
               by Justin Turney, Rob Parrish, Andy Simmonett
                          and Daniel G. A. Smith
                              RKS Reference
                       24 Threads, 137329 MiB Core
         ---------------------------------------------------------

  ==> Geometry <==

    Molecular point group: c2v
    Full point group: C_inf_v

    Geometry (in Angstrom), charge = 0, multiplicity = 1:

       Center              X                  Y                   Z               Mass       
    ------------   -----------------  -----------------  -----------------  -----------------
         C            0.000000000000     0.000000000000    -0.646426204420    12.000000000000
         O            0.000000000000     0.000000000000     0.484973795580    15.994914619570

  Running in c2v symmetry.

  Rotational constants: A = ************  B =      1.92079  C =      1.92079 [cm^-1]
  Rotational constants: A = ************  B =  57583.86692  C =  57583.86692 [MHz]
  Nuclear repulsion =   22.450509202899067

  Charge       = 0
  Multiplicity = 1
  Electrons    = 14
  Nalpha       = 7
  Nbeta        = 7

  ==> Algorithm <==

  SCF Algorithm Type is DF.
  DIIS enabled.
  MOM disabled.
  Fractional occupation disabled.
  Guess Type is SAD.
  Energy threshold   = 1.00e-08
  Density threshold  = 1.00e-08
  Integral threshold = 0.00e+00

  ==> Primary Basis <==

  Basis Set: AUG-CC-PV(T+D)Z
    Blend: AUG-CC-PV(T+D)Z
    Number of shells: 28
    Number of basis function: 92
    Number of Cartesian functions: 110
    Spherical Harmonics?: true
    Max angular momentum: 3

  ==> DFT Potential <==

   => Composite Functional: WB97X-V <= 

    wB97X-V Hyb-GGA Exchange-Correlation Functional

    N. Mardirossian and M. Head-Gordon, Phys. Chem. Chem. Phys. 16, 9904 (2014)

    Deriv               =              1
    GGA                 =           TRUE
    Meta                =          FALSE

    Exchange Hybrid     =           TRUE
    MP2 Hybrid          =          FALSE

   => Exchange-Correlation Functionals <=

    1.0000   wB97X-V range-separated functional

   => Exact (HF) Exchange <=

    0.8330            HF,LR [omega = 0.3000]
    0.1670               HF 

   => VV10 Non-Local Parameters <=

    VV10 B              =     6.0000E+00
    VV10 C              =     1.0000E-02

   => Molecular Quadrature <=

    Radial Scheme          =       TREUTLER
    Pruning Scheme         =           FLAT
    Nuclear Scheme         =       TREUTLER

    BS radius alpha        =              1
    Pruning alpha          =              1
    Radial Points          =             75
    Spherical Points       =            302
    Total Points           =          45300
    Total Blocks           =            420
    Max Points             =            256
    Max Functions          =             92

   => Loading Basis Set <=

    Name: (AUG-CC-PV(T+D)Z AUX)
    Role: JKFIT
    Keyword: DF_BASIS_SCF
    atoms 1 entry C          line   162 file /work/zw18965/.conda/envs/p4env/share/psi4/basis/aug-cc-pvtz-jkfit.gbs 
    atoms 2 entry O          line   286 file /work/zw18965/.conda/envs/p4env/share/psi4/basis/aug-cc-pvtz-jkfit.gbs 

  ==> Pre-Iterations <==

   -------------------------------------------------------
    Irrep   Nso     Nmo     Nalpha   Nbeta   Ndocc  Nsocc
   -------------------------------------------------------
     A1        38      38       0       0       0       0
     A2        10      10       0       0       0       0
     B1        22      22       0       0       0       0
     B2        22      22       0       0       0       0
   -------------------------------------------------------
    Total      92      92       7       7       7       0
   -------------------------------------------------------

  ==> Integral Setup <==

  ==> DiskDFJK: Density-Fitted J/K Matrices <==

    J tasked:                  Yes
    K tasked:                  Yes
    wK tasked:                 Yes
    Omega:               3.000E-01
    OpenMP threads:             24
    Integrals threads:          24
    Memory [MiB]:           102880
    Algorithm:                Core
    Integral Cache:           NONE
    Schwarz Cutoff:          1E-12
    Fitting Condition:       1E-10

   => Auxiliary Basis Set <=

  Basis Set: (AUG-CC-PV(T+D)Z AUX)
    Blend: AUG-CC-PVTZ-JKFIT
    Number of shells: 60
    Number of basis function: 208
    Number of Cartesian functions: 262
    Spherical Harmonics?: true
    Max angular momentum: 4

  Cached 100.0% of DFT collocation blocks in 0.114 [GiB].

  Minimum eigenvalue in the overlap matrix is 4.7601428730E-04.
  Using Symmetric Orthogonalization.

  SCF Guess: Superposition of Atomic Densities via on-the-fly atomic UHF.

  ==> Iterations <==

                           Total Energy        Delta E     RMS |[F,P]|

   @DF-RKS iter SAD:  -112.56268880574085   -1.12563e+02   0.00000e+00 
   @DF-RKS iter   1:  -113.28420230322074   -7.21513e-01   6.93036e-03 DIIS
   @DF-RKS iter   2:  -113.26625102690197    1.79513e-02   8.34444e-03 DIIS
   @DF-RKS iter   3:  -113.32034591107376   -5.40949e-02   1.05730e-03 DIIS
   @DF-RKS iter   4:  -113.32144685422891   -1.10094e-03   1.19911e-04 DIIS
   @DF-RKS iter   5:  -113.32146472263237   -1.78684e-05   1.93193e-05 DIIS
   @DF-RKS iter   6:  -113.32146543942791   -7.16796e-07   3.72861e-06 DIIS
   @DF-RKS iter   7:  -113.32146548508094   -4.56530e-08   4.86380e-07 DIIS
   @DF-RKS iter   8:  -113.32146548605483   -9.73898e-10   1.11797e-07 DIIS
   @DF-RKS iter   9:  -113.32146548607268   -1.78488e-11   8.48774e-09 DIIS
  Energy and wave function converged.


  ==> Post-Iterations <==

    Orbital Energies [Eh]
    ---------------------

    Doubly Occupied:                                                      

       1A1   -19.325499     2A1   -10.392556     3A1    -1.295886  
       4A1    -0.697048     1B2    -0.589723     1B1    -0.589723  
       5A1    -0.493636  

    Virtual:                                                              

       2B1     0.051314     2B2     0.051314     6A1     0.068517  
       7A1     0.090788     3B1     0.105297     3B2     0.105297  
       8A1     0.180935     4B1     0.189577     4B2     0.189577  
       9A1     0.252417    10A1     0.283401     1A2     0.283401  
      11A1     0.374155     5B1     0.392775     5B2     0.392775  
       6B2     0.462476     6B1     0.462476    12A1     0.475947  
      13A1     0.623573     2A2     0.675792    14A1     0.675792  
      15A1     0.690108     7B1     0.770724     7B2     0.770724  
      16A1     0.916533    17A1     0.967138     3A2     0.967139  
       8B2     0.997487     8B1     0.997487     9B2     1.021354  
       9B1     1.021354    10B2     1.149181    10B1     1.149181  
      18A1     1.184563    19A1     1.216629     4A2     1.216631  
      20A1     1.285732    11B2     1.387247    11B1     1.387247  
      21A1     1.390101     5A2     2.005435    22A1     2.005437  
      12B2     2.015709    12B1     2.015709    13B1     2.135796  
      13B2     2.135796    23A1     2.170683    24A1     2.283680  
      14B2     2.397267    14B1     2.397267     6A2     2.440666  
      25A1     2.440670    26A1     2.497293    15B2     2.778804  
      15B1     2.778804    27A1     3.181600     7A2     3.181603  
      16B1     3.242011    16B2     3.242011    28A1     3.264135  
      17B2     3.411165    17B1     3.411165    29A1     3.538135  
       8A2     3.538138    18B2     3.689589    18B1     3.689589  
      30A1     3.756537    31A1     4.091977    19B2     4.894775  
      19B1     4.894775    32A1     4.954354    20B1     6.120251  
      20B2     6.120251    33A1     6.394752     9A2     6.394753  
      10A2     6.612267    34A1     6.612269    21B2     6.734228  
      21B1     6.734228    35A1     6.820537    22B2     7.015758  
      22B1     7.015758    36A1     7.178309    37A1    11.964614  
      38A1    14.545623  

    Final Occupation by Irrep:
             A1    A2    B1    B2 
    DOCC [     5,    0,    1,    1 ]

  @DF-RKS Final Energy:  -113.32146548607268

   => Energetics <=

    Nuclear Repulsion Energy =             22.4505092028990667
    One-Electron Energy =                -198.1608269272510654
    Two-Electron Energy =                  72.1669587777344645
    DFT Exchange-Correlation Energy =      -9.8372318489075745
    Empirical Dispersion Energy =           0.0000000000000000
    VV10 Nonlocal Energy =                  0.0591253094524321
    Total Energy =                       -113.3214654860726824

Computation Completed


Properties will be evaluated at   0.000000,   0.000000,   0.000000 [a0]

Properties computed using the SCF density matrix

  Nuclear Dipole Moment: [e a0]
     X:     0.0000      Y:     0.0000      Z:     0.0023

  Electronic Dipole Moment: [e a0]
     X:     0.0000      Y:     0.0000      Z:     0.0228

  Dipole Moment: [e a0]
     X:     0.0000      Y:     0.0000      Z:     0.0251     Total:     0.0251

  Dipole Moment: [D]
     X:     0.0000      Y:     0.0000      Z:     0.0639     Total:     0.0639


*** tstop() called on bp1-compute00046.data.bp.acrc.priv at Tue Apr 27 17:21:11 2021
Module time:
	user time   =      53.04 seconds =       0.88 minutes
	system time =       2.46 seconds =       0.04 minutes
	total time  =          3 seconds =       0.05 minutes
Total time:
	user time   =      53.04 seconds =       0.88 minutes
	system time =       2.46 seconds =       0.04 minutes
	total time  =          3 seconds =       0.05 minutes

  //>>>>>>>>>>>>>>>>>>>>>>>>>>>>>>>>>>>//
  //    Loading displacement 2 of 3    //
  //<<<<<<<<<<<<<<<<<<<<<<<<<<<<<<<<<<<//

*** tstart() called on bp1-compute00046.data.bp.acrc.priv
*** at Tue Apr 27 17:21:11 2021

   => Loading Basis Set <=

    Name: AUG-CC-PV(T+D)Z
    Role: ORBITAL
    Keyword: BASIS
    atoms 1 entry C          line   255 file /work/zw18965/.conda/envs/p4env/share/psi4/basis/aug-cc-pv_tpd_z.gbs 
    atoms 2 entry O          line   347 file /work/zw18965/.conda/envs/p4env/share/psi4/basis/aug-cc-pv_tpd_z.gbs 


         ---------------------------------------------------------
                                   SCF
               by Justin Turney, Rob Parrish, Andy Simmonett
                          and Daniel G. A. Smith
                              RKS Reference
                       24 Threads, 137329 MiB Core
         ---------------------------------------------------------

  ==> Geometry <==

    Molecular point group: c2v
    Full point group: C_inf_v

    Geometry (in Angstrom), charge = 0, multiplicity = 1:

       Center              X                  Y                   Z               Mass       
    ------------   -----------------  -----------------  -----------------  -----------------
         C            0.000000000000     0.000000000000    -0.647003544760    12.000000000000
         O            0.000000000000     0.000000000000     0.485406938504    15.994914619570

  Running in c2v symmetry.

  Rotational constants: A = ************  B =      1.91736  C =      1.91736 [cm^-1]
  Rotational constants: A = ************  B =  57481.14520  C =  57481.14520 [MHz]
  Nuclear repulsion =   22.430475951585748

  Charge       = 0
  Multiplicity = 1
  Electrons    = 14
  Nalpha       = 7
  Nbeta        = 7

  ==> Algorithm <==

  SCF Algorithm Type is DF.
  DIIS enabled.
  MOM disabled.
  Fractional occupation disabled.
  Guess Type is SAD.
  Energy threshold   = 1.00e-08
  Density threshold  = 1.00e-08
  Integral threshold = 0.00e+00

  ==> Primary Basis <==

  Basis Set: AUG-CC-PV(T+D)Z
    Blend: AUG-CC-PV(T+D)Z
    Number of shells: 28
    Number of basis function: 92
    Number of Cartesian functions: 110
    Spherical Harmonics?: true
    Max angular momentum: 3

  ==> DFT Potential <==

   => Composite Functional: WB97X-V <= 

    wB97X-V Hyb-GGA Exchange-Correlation Functional

    N. Mardirossian and M. Head-Gordon, Phys. Chem. Chem. Phys. 16, 9904 (2014)

    Deriv               =              1
    GGA                 =           TRUE
    Meta                =          FALSE

    Exchange Hybrid     =           TRUE
    MP2 Hybrid          =          FALSE

   => Exchange-Correlation Functionals <=

    1.0000   wB97X-V range-separated functional

   => Exact (HF) Exchange <=

    0.8330            HF,LR [omega = 0.3000]
    0.1670               HF 

   => VV10 Non-Local Parameters <=

    VV10 B              =     6.0000E+00
    VV10 C              =     1.0000E-02

   => Molecular Quadrature <=

    Radial Scheme          =       TREUTLER
    Pruning Scheme         =           FLAT
    Nuclear Scheme         =       TREUTLER

    BS radius alpha        =              1
    Pruning alpha          =              1
    Radial Points          =             75
    Spherical Points       =            302
    Total Points           =          45300
    Total Blocks           =            421
    Max Points             =            256
    Max Functions          =             92

   => Loading Basis Set <=

    Name: (AUG-CC-PV(T+D)Z AUX)
    Role: JKFIT
    Keyword: DF_BASIS_SCF
    atoms 1 entry C          line   162 file /work/zw18965/.conda/envs/p4env/share/psi4/basis/aug-cc-pvtz-jkfit.gbs 
    atoms 2 entry O          line   286 file /work/zw18965/.conda/envs/p4env/share/psi4/basis/aug-cc-pvtz-jkfit.gbs 

  ==> Pre-Iterations <==

   -------------------------------------------------------
    Irrep   Nso     Nmo     Nalpha   Nbeta   Ndocc  Nsocc
   -------------------------------------------------------
     A1        38      38       0       0       0       0
     A2        10      10       0       0       0       0
     B1        22      22       0       0       0       0
     B2        22      22       0       0       0       0
   -------------------------------------------------------
    Total      92      92       7       7       7       0
   -------------------------------------------------------

  ==> Integral Setup <==

  ==> DiskDFJK: Density-Fitted J/K Matrices <==

    J tasked:                  Yes
    K tasked:                  Yes
    wK tasked:                 Yes
    Omega:               3.000E-01
    OpenMP threads:             24
    Integrals threads:          24
    Memory [MiB]:           102880
    Algorithm:                Core
    Integral Cache:           NONE
    Schwarz Cutoff:          1E-12
    Fitting Condition:       1E-10

   => Auxiliary Basis Set <=

  Basis Set: (AUG-CC-PV(T+D)Z AUX)
    Blend: AUG-CC-PVTZ-JKFIT
    Number of shells: 60
    Number of basis function: 208
    Number of Cartesian functions: 262
    Spherical Harmonics?: true
    Max angular momentum: 4

  Cached 100.0% of DFT collocation blocks in 0.114 [GiB].

  Minimum eigenvalue in the overlap matrix is 4.7664870791E-04.
  Using Symmetric Orthogonalization.

  SCF Guess: Superposition of Atomic Densities via on-the-fly atomic UHF.

  ==> Iterations <==

                           Total Energy        Delta E     RMS |[F,P]|

   @DF-RKS iter SAD:  -112.56097351645191   -1.12561e+02   0.00000e+00 
   @DF-RKS iter   1:  -113.28416000662801   -7.23186e-01   6.92991e-03 DIIS
   @DF-RKS iter   2:  -113.26586237141707    1.82976e-02   8.36902e-03 DIIS
   @DF-RKS iter   3:  -113.32032850430636   -5.44661e-02   1.05387e-03 DIIS
   @DF-RKS iter   4:  -113.32142365931810   -1.09516e-03   1.19931e-04 DIIS
   @DF-RKS iter   5:  -113.32144152391656   -1.78646e-05   1.93298e-05 DIIS
   @DF-RKS iter   6:  -113.32144224066990   -7.16753e-07   3.73206e-06 DIIS
   @DF-RKS iter   7:  -113.32144228635890   -4.56890e-08   4.87190e-07 DIIS
   @DF-RKS iter   8:  -113.32144228733591   -9.77010e-10   1.12342e-07 DIIS
   @DF-RKS iter   9:  -113.32144228735386   -1.79483e-11   8.53016e-09 DIIS
  Energy and wave function converged.


  ==> Post-Iterations <==

    Orbital Energies [Eh]
    ---------------------

    Doubly Occupied:                                                      

       1A1   -19.325550     2A1   -10.392938     3A1    -1.295328  
       4A1    -0.697043     1B1    -0.589360     1B2    -0.589360  
       5A1    -0.493723  

    Virtual:                                                              

       2B1     0.051080     2B2     0.051080     6A1     0.068529  
       7A1     0.090766     3B1     0.105162     3B2     0.105162  
       8A1     0.180920     4B1     0.189594     4B2     0.189594  
       9A1     0.252407    10A1     0.283393     1A2     0.283393  
      11A1     0.374088     5B1     0.392671     5B2     0.392671  
       6B1     0.462516     6B2     0.462516    12A1     0.475878  
      13A1     0.623527     2A2     0.675789    14A1     0.675789  
      15A1     0.689183     7B1     0.770665     7B2     0.770665  
      16A1     0.916317    17A1     0.967038     3A2     0.967038  
       8B2     0.997249     8B1     0.997249     9B2     1.021327  
       9B1     1.021327    10B1     1.149242    10B2     1.149242  
      18A1     1.184262    19A1     1.216464     4A2     1.216465  
      20A1     1.285632    11B1     1.386941    11B2     1.386941  
      21A1     1.389514     5A2     2.005416    22A1     2.005418  
      12B2     2.015539    12B1     2.015539    13B1     2.135547  
      13B2     2.135547    23A1     2.170143    24A1     2.283101  
      14B2     2.396212    14B1     2.396212     6A2     2.440207  
      25A1     2.440211    26A1     2.497281    15B2     2.779641  
      15B1     2.779641    27A1     3.181401     7A2     3.181404  
      16B2     3.241915    16B1     3.241915    28A1     3.263037  
      17B2     3.410690    17B1     3.410690    29A1     3.537148  
       8A2     3.537151    18B1     3.688760    18B2     3.688760  
      30A1     3.755235    31A1     4.091422    19B2     4.892156  
      19B1     4.892156    32A1     4.951035    20B1     6.120253  
      20B2     6.120253    33A1     6.394198     9A2     6.394200  
      10A2     6.612177    34A1     6.612180    21B2     6.732367  
      21B1     6.732367    35A1     6.818346    22B2     7.016024  
      22B1     7.016024    36A1     7.176986    37A1    11.957441  
      38A1    14.520901  

    Final Occupation by Irrep:
             A1    A2    B1    B2 
    DOCC [     5,    0,    1,    1 ]

  @DF-RKS Final Energy:  -113.32144228735386

   => Energetics <=

    Nuclear Repulsion Energy =             22.4304759515857484
    One-Electron Energy =                -198.1227831840711247
    Two-Electron Energy =                  72.1481380248413444
    DFT Exchange-Correlation Energy =      -9.8363982779971941
    Empirical Dispersion Energy =           0.0000000000000000
    VV10 Nonlocal Energy =                  0.0591251982873695
    Total Energy =                       -113.3214422873538467

Computation Completed


Properties will be evaluated at   0.000000,   0.000000,   0.000000 [a0]

Properties computed using the SCF density matrix

  Nuclear Dipole Moment: [e a0]
     X:     0.0000      Y:     0.0000      Z:     0.0023

  Electronic Dipole Moment: [e a0]
     X:     0.0000      Y:     0.0000      Z:     0.0213

  Dipole Moment: [e a0]
     X:     0.0000      Y:     0.0000      Z:     0.0236     Total:     0.0236

  Dipole Moment: [D]
     X:     0.0000      Y:     0.0000      Z:     0.0601     Total:     0.0601


*** tstop() called on bp1-compute00046.data.bp.acrc.priv at Tue Apr 27 17:21:13 2021
Module time:
	user time   =      56.28 seconds =       0.94 minutes
	system time =       2.71 seconds =       0.05 minutes
	total time  =          2 seconds =       0.03 minutes
Total time:
	user time   =     109.46 seconds =       1.82 minutes
	system time =       5.18 seconds =       0.09 minutes
	total time  =          5 seconds =       0.08 minutes

  //>>>>>>>>>>>>>>>>>>>>>>>>>>>>>>>>>>>//
  //    Loading displacement 3 of 3    //
  //<<<<<<<<<<<<<<<<<<<<<<<<<<<<<<<<<<<//

*** tstart() called on bp1-compute00046.data.bp.acrc.priv
*** at Tue Apr 27 17:21:13 2021

   => Loading Basis Set <=

    Name: AUG-CC-PV(T+D)Z
    Role: ORBITAL
    Keyword: BASIS
    atoms 1 entry C          line   255 file /work/zw18965/.conda/envs/p4env/share/psi4/basis/aug-cc-pv_tpd_z.gbs 
    atoms 2 entry O          line   347 file /work/zw18965/.conda/envs/p4env/share/psi4/basis/aug-cc-pv_tpd_z.gbs 


         ---------------------------------------------------------
                                   SCF
               by Justin Turney, Rob Parrish, Andy Simmonett
                          and Daniel G. A. Smith
                              RKS Reference
                       24 Threads, 137329 MiB Core
         ---------------------------------------------------------

  ==> Geometry <==

    Molecular point group: c2v
    Full point group: C_inf_v

    Geometry (in Angstrom), charge = 0, multiplicity = 1:

       Center              X                  Y                   Z               Mass       
    ------------   -----------------  -----------------  -----------------  -----------------
         C            0.000000000000     0.000000000000    -0.645848864080    12.000000000000
         O            0.000000000000     0.000000000000     0.484540652657    15.994914619570

  Running in c2v symmetry.

  Rotational constants: A = ************  B =      1.92423  C =      1.92423 [cm^-1]
  Rotational constants: A = ************  B =  57686.86423  C =  57686.86423 [MHz]
  Nuclear repulsion =   22.470578270654173

  Charge       = 0
  Multiplicity = 1
  Electrons    = 14
  Nalpha       = 7
  Nbeta        = 7

  ==> Algorithm <==

  SCF Algorithm Type is DF.
  DIIS enabled.
  MOM disabled.
  Fractional occupation disabled.
  Guess Type is SAD.
  Energy threshold   = 1.00e-08
  Density threshold  = 1.00e-08
  Integral threshold = 0.00e+00

  ==> Primary Basis <==

  Basis Set: AUG-CC-PV(T+D)Z
    Blend: AUG-CC-PV(T+D)Z
    Number of shells: 28
    Number of basis function: 92
    Number of Cartesian functions: 110
    Spherical Harmonics?: true
    Max angular momentum: 3

  ==> DFT Potential <==

   => Composite Functional: WB97X-V <= 

    wB97X-V Hyb-GGA Exchange-Correlation Functional

    N. Mardirossian and M. Head-Gordon, Phys. Chem. Chem. Phys. 16, 9904 (2014)

    Deriv               =              1
    GGA                 =           TRUE
    Meta                =          FALSE

    Exchange Hybrid     =           TRUE
    MP2 Hybrid          =          FALSE

   => Exchange-Correlation Functionals <=

    1.0000   wB97X-V range-separated functional

   => Exact (HF) Exchange <=

    0.8330            HF,LR [omega = 0.3000]
    0.1670               HF 

   => VV10 Non-Local Parameters <=

    VV10 B              =     6.0000E+00
    VV10 C              =     1.0000E-02

   => Molecular Quadrature <=

    Radial Scheme          =       TREUTLER
    Pruning Scheme         =           FLAT
    Nuclear Scheme         =       TREUTLER

    BS radius alpha        =              1
    Pruning alpha          =              1
    Radial Points          =             75
    Spherical Points       =            302
    Total Points           =          45300
    Total Blocks           =            420
    Max Points             =            256
    Max Functions          =             92

   => Loading Basis Set <=

    Name: (AUG-CC-PV(T+D)Z AUX)
    Role: JKFIT
    Keyword: DF_BASIS_SCF
    atoms 1 entry C          line   162 file /work/zw18965/.conda/envs/p4env/share/psi4/basis/aug-cc-pvtz-jkfit.gbs 
    atoms 2 entry O          line   286 file /work/zw18965/.conda/envs/p4env/share/psi4/basis/aug-cc-pvtz-jkfit.gbs 

  ==> Pre-Iterations <==

   -------------------------------------------------------
    Irrep   Nso     Nmo     Nalpha   Nbeta   Ndocc  Nsocc
   -------------------------------------------------------
     A1        38      38       0       0       0       0
     A2        10      10       0       0       0       0
     B1        22      22       0       0       0       0
     B2        22      22       0       0       0       0
   -------------------------------------------------------
    Total      92      92       7       7       7       0
   -------------------------------------------------------

  ==> Integral Setup <==

  ==> DiskDFJK: Density-Fitted J/K Matrices <==

    J tasked:                  Yes
    K tasked:                  Yes
    wK tasked:                 Yes
    Omega:               3.000E-01
    OpenMP threads:             24
    Integrals threads:          24
    Memory [MiB]:           102880
    Algorithm:                Core
    Integral Cache:           NONE
    Schwarz Cutoff:          1E-12
    Fitting Condition:       1E-10

   => Auxiliary Basis Set <=

  Basis Set: (AUG-CC-PV(T+D)Z AUX)
    Blend: AUG-CC-PVTZ-JKFIT
    Number of shells: 60
    Number of basis function: 208
    Number of Cartesian functions: 262
    Spherical Harmonics?: true
    Max angular momentum: 4

  Cached 100.0% of DFT collocation blocks in 0.114 [GiB].

  Minimum eigenvalue in the overlap matrix is 4.7538188022E-04.
  Using Symmetric Orthogonalization.

  SCF Guess: Superposition of Atomic Densities via on-the-fly atomic UHF.

  ==> Iterations <==

                           Total Energy        Delta E     RMS |[F,P]|

   @DF-RKS iter SAD:  -112.56440492306535   -1.12564e+02   0.00000e+00 
   @DF-RKS iter   1:  -113.28423873495771   -7.19834e-01   6.93093e-03 DIIS
   @DF-RKS iter   2:  -113.26663144190756    1.76073e-02   8.32003e-03 DIIS
   @DF-RKS iter   3:  -113.32035872423077   -5.37273e-02   1.06074e-03 DIIS
   @DF-RKS iter   4:  -113.32146547380277   -1.10675e-03   1.19892e-04 DIIS
   @DF-RKS iter   5:  -113.32148334629072   -1.78725e-05   1.93086e-05 DIIS
   @DF-RKS iter   6:  -113.32148406312299   -7.16832e-07   3.72519e-06 DIIS
   @DF-RKS iter   7:  -113.32148410874063   -4.56176e-08   4.85573e-07 DIIS
   @DF-RKS iter   8:  -113.32148410971111   -9.70473e-10   1.11256e-07 DIIS
   @DF-RKS iter   9:  -113.32148410972886   -1.77494e-11   8.44581e-09 DIIS
  Energy and wave function converged.


  ==> Post-Iterations <==

    Orbital Energies [Eh]
    ---------------------

    Doubly Occupied:                                                      

       1A1   -19.325447     2A1   -10.392174     3A1    -1.296445  
       4A1    -0.697053     1B1    -0.590087     1B2    -0.590087  
       5A1    -0.493549  

    Virtual:                                                              

       2B2     0.051548     2B1     0.051548     6A1     0.068506  
       7A1     0.090809     3B2     0.105434     3B1     0.105434  
       8A1     0.180949     4B2     0.189559     4B1     0.189559  
       9A1     0.252427    10A1     0.283409     1A2     0.283409  
      11A1     0.374222     5B2     0.392880     5B1     0.392880  
       6B2     0.462437     6B1     0.462437    12A1     0.476016  
      13A1     0.623619     2A2     0.675794    14A1     0.675795  
      15A1     0.691030     7B2     0.770782     7B1     0.770782  
      16A1     0.916752    17A1     0.967239     3A2     0.967239  
       8B2     0.997724     8B1     0.997724     9B1     1.021382  
       9B2     1.021382    10B2     1.149119    10B1     1.149119  
      18A1     1.184864    19A1     1.216795     4A2     1.216796  
      20A1     1.285827    11B2     1.387553    11B1     1.387553  
      21A1     1.390700     5A2     2.005455    22A1     2.005457  
      12B2     2.015880    12B1     2.015880    13B2     2.136045  
      13B1     2.136045    23A1     2.171222    24A1     2.284258  
      14B2     2.398325    14B1     2.398325     6A2     2.441124  
      25A1     2.441128    26A1     2.497311    15B2     2.777965  
      15B1     2.777965    27A1     3.181799     7A2     3.181802  
      16B2     3.242106    16B1     3.242106    28A1     3.265231  
      17B1     3.411641    17B2     3.411641    29A1     3.539124  
       8A2     3.539127    18B2     3.690421    18B1     3.690421  
      30A1     3.757840    31A1     4.092525    19B1     4.897391  
      19B2     4.897391    32A1     4.957690    20B2     6.120249  
      20B1     6.120249    33A1     6.395307     9A2     6.395308  
      10A2     6.612357    34A1     6.612360    21B1     6.736098  
      21B2     6.736098    35A1     6.822741    22B1     7.015486  
      22B2     7.015486    36A1     7.179637    37A1    11.971749  
      38A1    14.570427  

    Final Occupation by Irrep:
             A1    A2    B1    B2 
    DOCC [     5,    0,    1,    1 ]

  @DF-RKS Final Energy:  -113.32148410972886

   => Energetics <=

    Nuclear Repulsion Energy =             22.4705782706541726
    One-Electron Energy =                -198.1989310289665696
    Two-Electron Energy =                  72.1858106982258363
    DFT Exchange-Correlation Energy =      -9.8380674721393255
    Empirical Dispersion Energy =           0.0000000000000000
    VV10 Nonlocal Energy =                  0.0591254224970134
    Total Energy =                       -113.3214841097288570

Computation Completed


Properties will be evaluated at   0.000000,   0.000000,   0.000000 [a0]

Properties computed using the SCF density matrix

  Nuclear Dipole Moment: [e a0]
     X:     0.0000      Y:     0.0000      Z:     0.0023

  Electronic Dipole Moment: [e a0]
     X:     0.0000      Y:     0.0000      Z:     0.0243

  Dipole Moment: [e a0]
     X:     0.0000      Y:     0.0000      Z:     0.0266     Total:     0.0266

  Dipole Moment: [D]
     X:     0.0000      Y:     0.0000      Z:     0.0677     Total:     0.0677


*** tstop() called on bp1-compute00046.data.bp.acrc.priv at Tue Apr 27 17:21:16 2021
Module time:
	user time   =      55.77 seconds =       0.93 minutes
	system time =       2.27 seconds =       0.04 minutes
	total time  =          3 seconds =       0.05 minutes
Total time:
	user time   =     165.37 seconds =       2.76 minutes
	system time =       7.45 seconds =       0.12 minutes
	total time  =          8 seconds =       0.13 minutes

         ----------------------------------------------------------
                                   FINDIF
                     R. A. King and Jonathon Misiewicz
         ---------------------------------------------------------

  Computing gradient from energies.
    Using 3-point formula.
    Energy without displacement: -113.3214654861
    Check energies below for precision!
    Forces are for mass-weighted, symmetry-adapted cartesians (in au).

     Coord      Energy(-1)        Energy(+1)            Force
        0   -113.3214422874   -113.3214841097     -0.0041822375


-------------------------------------------------------------
  ## New Matrix (Symmetry 0) ##
  Irrep: 1 Size: 2 x 3

                 1                   2                   3

    1     0.00000000000000     0.00000000000000    -0.01095092246889
    2     0.00000000000000     0.00000000000000     0.01095092246889




			-----------------------------------------
			 OPTKING 2.0: for geometry optimizations 
			  - R.A. King,  Bethel University        
			-----------------------------------------
	At level 1: Red. Int., RFO, no backsteps, dynamic trust

	Internal coordinates to be generated automatically.
	Detected frag 1 with atoms:  1 2
	---Fragment 1 Bond Connectivity---
	 1 : 2
	 2 : 1

	---Fragment 1 Geometry and Gradient---
	 C           0.0000000000        0.0000000000       -1.2215684867
	 O           0.0000000000        0.0000000000        0.9164676517
	             0.0000000000        0.0000000000       -0.0109509225
	             0.0000000000        0.0000000000        0.0109509225

	Previous optimization step data not found.  Starting new optimization.

	---Fragment 1 Intrafragment Coordinates---
	 - Coordinate -           - BOHR/RAD -       - ANG/DEG -
	 R(1,2)           =         2.138036	       1.131400

	Current energy   :      -113.3214654861

	Generating empirical Hessian (Schlegel '84) for each fragment.
	Taking RFO optimization step.
	Going to follow RFO solution 1.
	Using RFO vector 1.
	Norm of target step-size    0.00737
	Projected energy change by RFO approximation:        -0.0000535615

	Back-transformation to cartesian coordinates...
	Successfully converged to displaced geometry.

	--- Internal Coordinate Step in ANG or DEG, aJ/ANG or AJ/DEG ---
	 ---------------------------------------------------------------------------
	   Coordinate                Previous        Force       Change         New 
	   ----------                --------       ------       ------       ------
	    1 R(1,2)          =      1.131400    -0.090222    -0.003902     1.127498
	 ---------------------------------------------------------------------------
	Successfully symmetrized geometry.

  ==> Convergence Check <==

  Measures of convergence in internal coordinates in au.
  Criteria marked as inactive (o), active & met (*), and active & unmet ( ).
  --------------------------------------------------------------------------------------------- ~
   Step     Total Energy     Delta E     MAX Force     RMS Force      MAX Disp      RMS Disp    ~
  --------------------------------------------------------------------------------------------- ~
    Convergence Criteria    1.00e-06 *    3.00e-04 *             o    1.20e-03 *             o  ~
  --------------------------------------------------------------------------------------------- ~
      1    -113.32146549   -1.13e+02      1.10e-02      1.10e-02 o    7.37e-03      7.37e-03 o  ~
  ---------------------------------------------------------------------------------------------

	Writing optimization data to binary file.
	Structure for next step:
	Cartesian Geometry (in Angstrom)
	    C     0.0000000000   0.0000000000  -0.6444751044
	    O     0.0000000000   0.0000000000   0.4830226962
			--------------------------
			 OPTKING Finished Execution 
			--------------------------

    Structure for next step:
    Molecular point group: c2v
    Full point group: C_inf_v

    Geometry (in Angstrom), charge = 0, multiplicity = 1:

    C            0.000000000000     0.000000000000    -0.644196682567
    O            0.000000000000     0.000000000000     0.483301122555

gradient() will perform gradient computation by finite difference of analytic energies.

         ----------------------------------------------------------
                                   FINDIF
                     R. A. King and Jonathon Misiewicz
         ---------------------------------------------------------

  Using finite-differences of energies to determine gradients.
    Generating geometries for use with 3-point formula.
    Displacement size will be 5.00e-03.
    Number of atoms is 2.
    Number of symmetric SALCs is 1.
    Translations projected? 1. Rotations projected? 1.
    Number of geometries (including reference) is 3.

  //>>>>>>>>>>>>>>>>>>>>>>>>>>>>>>>>>>>//
  //    Loading displacement 1 of 3    //
  //<<<<<<<<<<<<<<<<<<<<<<<<<<<<<<<<<<<//

*** tstart() called on bp1-compute00046.data.bp.acrc.priv
*** at Tue Apr 27 17:21:16 2021

   => Loading Basis Set <=

    Name: AUG-CC-PV(T+D)Z
    Role: ORBITAL
    Keyword: BASIS
    atoms 1 entry C          line   255 file /work/zw18965/.conda/envs/p4env/share/psi4/basis/aug-cc-pv_tpd_z.gbs 
    atoms 2 entry O          line   347 file /work/zw18965/.conda/envs/p4env/share/psi4/basis/aug-cc-pv_tpd_z.gbs 


         ---------------------------------------------------------
                                   SCF
               by Justin Turney, Rob Parrish, Andy Simmonett
                          and Daniel G. A. Smith
                              RKS Reference
                       24 Threads, 137329 MiB Core
         ---------------------------------------------------------

  ==> Geometry <==

    Molecular point group: c2v
    Full point group: C_inf_v

    Geometry (in Angstrom), charge = 0, multiplicity = 1:

       Center              X                  Y                   Z               Mass       
    ------------   -----------------  -----------------  -----------------  -----------------
         C            0.000000000000     0.000000000000    -0.644196682567    12.000000000000
         O            0.000000000000     0.000000000000     0.483301122555    15.994914619570

  Running in c2v symmetry.

  Rotational constants: A = ************  B =      1.93411  C =      1.93411 [cm^-1]
  Rotational constants: A = ************  B =  57983.14452  C =  57983.14452 [MHz]
  Nuclear repulsion =   22.528208921359177

  Charge       = 0
  Multiplicity = 1
  Electrons    = 14
  Nalpha       = 7
  Nbeta        = 7

  ==> Algorithm <==

  SCF Algorithm Type is DF.
  DIIS enabled.
  MOM disabled.
  Fractional occupation disabled.
  Guess Type is READ.
  Energy threshold   = 1.00e-08
  Density threshold  = 1.00e-08
  Integral threshold = 0.00e+00

  ==> Primary Basis <==

  Basis Set: AUG-CC-PV(T+D)Z
    Blend: AUG-CC-PV(T+D)Z
    Number of shells: 28
    Number of basis function: 92
    Number of Cartesian functions: 110
    Spherical Harmonics?: true
    Max angular momentum: 3

  ==> DFT Potential <==

   => Composite Functional: WB97X-V <= 

    wB97X-V Hyb-GGA Exchange-Correlation Functional

    N. Mardirossian and M. Head-Gordon, Phys. Chem. Chem. Phys. 16, 9904 (2014)

    Deriv               =              1
    GGA                 =           TRUE
    Meta                =          FALSE

    Exchange Hybrid     =           TRUE
    MP2 Hybrid          =          FALSE

   => Exchange-Correlation Functionals <=

    1.0000   wB97X-V range-separated functional

   => Exact (HF) Exchange <=

    0.8330            HF,LR [omega = 0.3000]
    0.1670               HF 

   => VV10 Non-Local Parameters <=

    VV10 B              =     6.0000E+00
    VV10 C              =     1.0000E-02

   => Molecular Quadrature <=

    Radial Scheme          =       TREUTLER
    Pruning Scheme         =           FLAT
    Nuclear Scheme         =       TREUTLER

    BS radius alpha        =              1
    Pruning alpha          =              1
    Radial Points          =             75
    Spherical Points       =            302
    Total Points           =          45300
    Total Blocks           =            421
    Max Points             =            256
    Max Functions          =             92

   => Loading Basis Set <=

    Name: (AUG-CC-PV(T+D)Z AUX)
    Role: JKFIT
    Keyword: DF_BASIS_SCF
    atoms 1 entry C          line   162 file /work/zw18965/.conda/envs/p4env/share/psi4/basis/aug-cc-pvtz-jkfit.gbs 
    atoms 2 entry O          line   286 file /work/zw18965/.conda/envs/p4env/share/psi4/basis/aug-cc-pvtz-jkfit.gbs 

   => Loading Basis Set <=

    Name: AUG-CC-PV(T+D)Z
    Role: ORBITAL
    Keyword: BASIS
    atoms 1 entry C          line   255 file /work/zw18965/.conda/envs/p4env/share/psi4/basis/aug-cc-pv_tpd_z.gbs 
    atoms 2 entry O          line   347 file /work/zw18965/.conda/envs/p4env/share/psi4/basis/aug-cc-pv_tpd_z.gbs 

  Reading orbitals from file 180, no projection.

  ==> Pre-Iterations <==

   -------------------------------------------------------
    Irrep   Nso     Nmo     Nalpha   Nbeta   Ndocc  Nsocc
   -------------------------------------------------------
     A1        38      38       0       0       0       0
     A2        10      10       0       0       0       0
     B1        22      22       0       0       0       0
     B2        22      22       0       0       0       0
   -------------------------------------------------------
    Total      92      92       7       7       7       0
   -------------------------------------------------------

  ==> Integral Setup <==

  ==> DiskDFJK: Density-Fitted J/K Matrices <==

    J tasked:                  Yes
    K tasked:                  Yes
    wK tasked:                 Yes
    Omega:               3.000E-01
    OpenMP threads:             24
    Integrals threads:          24
    Memory [MiB]:           102880
    Algorithm:                Core
    Integral Cache:           NONE
    Schwarz Cutoff:          1E-12
    Fitting Condition:       1E-10

   => Auxiliary Basis Set <=

  Basis Set: (AUG-CC-PV(T+D)Z AUX)
    Blend: AUG-CC-PVTZ-JKFIT
    Number of shells: 60
    Number of basis function: 208
    Number of Cartesian functions: 262
    Spherical Harmonics?: true
    Max angular momentum: 4

  Cached 100.0% of DFT collocation blocks in 0.114 [GiB].

  Minimum eigenvalue in the overlap matrix is 4.7358326250E-04.
  Using Symmetric Orthogonalization.

  SCF Guess: Orbitals guess was supplied from a previous computation.

  ==> Iterations <==

                           Total Energy        Delta E     RMS |[F,P]|

   @DF-RKS iter   0:  -113.32414756040198   -1.13324e+02   3.84478e-04 
   @DF-RKS iter   1:  -113.32150568235851    2.64188e-03   7.98165e-05 DIIS
   @DF-RKS iter   2:  -113.32150363822348    2.04414e-06   1.02849e-04 DIIS
   @DF-RKS iter   3:  -113.32151175648112   -8.11826e-06   9.90098e-06 DIIS
   @DF-RKS iter   4:  -113.32151183289790   -7.64168e-08   2.25759e-06 DIIS
   @DF-RKS iter   5:  -113.32151183822798   -5.33008e-09   2.69240e-07 DIIS
   @DF-RKS iter   6:  -113.32151183835687   -1.28892e-10   3.47662e-08 DIIS
   @DF-RKS iter   7:  -113.32151183835902   -2.14584e-12   4.91349e-09 DIIS
  Energy and wave function converged.


  ==> Post-Iterations <==

    Orbital Energies [Eh]
    ---------------------

    Doubly Occupied:                                                      

       1A1   -19.325296     2A1   -10.391079     3A1    -1.298047  
       4A1    -0.697067     1B2    -0.591132     1B1    -0.591132  
       5A1    -0.493298  

    Virtual:                                                              

       2B1     0.052210     2B2     0.052210     6A1     0.068472  
       7A1     0.090871     3B1     0.105832     3B2     0.105832  
       8A1     0.180990     4B1     0.189509     4B2     0.189509  
       9A1     0.252454    10A1     0.283430     1A2     0.283430  
      11A1     0.374409     5B1     0.393181     5B2     0.393181  
       6B1     0.462326     6B2     0.462326    12A1     0.476213  
      13A1     0.623751     2A2     0.675802    14A1     0.675802  
      15A1     0.693653     7B1     0.770950     7B2     0.770950  
      16A1     0.917397    17A1     0.967527     3A2     0.967527  
       8B1     0.998403     8B2     0.998403     9B1     1.021460  
       9B2     1.021460    10B2     1.148943    10B1     1.148943  
      18A1     1.185726    19A1     1.217269     4A2     1.217271  
      20A1     1.286068    11B1     1.388437    11B2     1.388437  
      21A1     1.392486     5A2     2.005513    22A1     2.005515  
      12B1     2.016370    12B2     2.016370    13B1     2.136751  
      13B2     2.136751    23A1     2.172758    24A1     2.285900  
      14B1     2.401364    14B2     2.401364     6A2     2.442434  
      25A1     2.442438    26A1     2.497399    15B1     2.775559  
      15B2     2.775559    27A1     3.182372     7A2     3.182375  
      16B1     3.242380    16B2     3.242380    28A1     3.268358  
      17B1     3.413007    17B2     3.413007    29A1     3.541970  
       8A2     3.541972    18B1     3.692821    18B2     3.692821  
      30A1     3.761578    31A1     4.094062    19B1     4.904868  
      19B2     4.904868    32A1     4.967331    20B2     6.120247  
      20B1     6.120247    33A1     6.396902     9A2     6.396904  
      10A2     6.612620    34A1     6.612623    21B2     6.741494  
      21B1     6.741494    35A1     6.829116    22B1     7.014678  
      22B2     7.014678    36A1     7.183457    37A1    11.991958  
      38A1    14.641859  

    Final Occupation by Irrep:
             A1    A2    B1    B2 
    DOCC [     5,    0,    1,    1 ]

  @DF-RKS Final Energy:  -113.32151183835902

   => Energetics <=

    Nuclear Repulsion Energy =             22.5282089213591767
    One-Electron Energy =                -198.3083091408933285
    Two-Electron Energy =                  72.2399328650774066
    DFT Exchange-Correlation Energy =      -9.8404702404091466
    Empirical Dispersion Energy =           0.0000000000000000
    VV10 Nonlocal Energy =                  0.0591257565068615
    Total Energy =                       -113.3215118383590294

Computation Completed


Properties will be evaluated at   0.000000,   0.000000,   0.000000 [a0]

Properties computed using the SCF density matrix

  Nuclear Dipole Moment: [e a0]
     X:     0.0000      Y:     0.0000      Z:     0.0023

  Electronic Dipole Moment: [e a0]
     X:     0.0000      Y:     0.0000      Z:     0.0286

  Dipole Moment: [e a0]
     X:     0.0000      Y:     0.0000      Z:     0.0310     Total:     0.0310

  Dipole Moment: [D]
     X:     0.0000      Y:     0.0000      Z:     0.0787     Total:     0.0787


*** tstop() called on bp1-compute00046.data.bp.acrc.priv at Tue Apr 27 17:21:18 2021
Module time:
	user time   =      40.24 seconds =       0.67 minutes
	system time =       1.55 seconds =       0.03 minutes
	total time  =          2 seconds =       0.03 minutes
Total time:
	user time   =     205.96 seconds =       3.43 minutes
	system time =       9.01 seconds =       0.15 minutes
	total time  =         10 seconds =       0.17 minutes

  //>>>>>>>>>>>>>>>>>>>>>>>>>>>>>>>>>>>//
  //    Loading displacement 2 of 3    //
  //<<<<<<<<<<<<<<<<<<<<<<<<<<<<<<<<<<<//

*** tstart() called on bp1-compute00046.data.bp.acrc.priv
*** at Tue Apr 27 17:21:18 2021

   => Loading Basis Set <=

    Name: AUG-CC-PV(T+D)Z
    Role: ORBITAL
    Keyword: BASIS
    atoms 1 entry C          line   255 file /work/zw18965/.conda/envs/p4env/share/psi4/basis/aug-cc-pv_tpd_z.gbs 
    atoms 2 entry O          line   347 file /work/zw18965/.conda/envs/p4env/share/psi4/basis/aug-cc-pv_tpd_z.gbs 


         ---------------------------------------------------------
                                   SCF
               by Justin Turney, Rob Parrish, Andy Simmonett
                          and Daniel G. A. Smith
                              RKS Reference
                       24 Threads, 137329 MiB Core
         ---------------------------------------------------------

  ==> Geometry <==

    Molecular point group: c2v
    Full point group: C_inf_v

    Geometry (in Angstrom), charge = 0, multiplicity = 1:

       Center              X                  Y                   Z               Mass       
    ------------   -----------------  -----------------  -----------------  -----------------
         C            0.000000000000     0.000000000000    -0.644774022907    12.000000000000
         O            0.000000000000     0.000000000000     0.483734265478    15.994914619570

  Running in c2v symmetry.

  Rotational constants: A = ************  B =      1.93065  C =      1.93065 [cm^-1]
  Rotational constants: A = ************  B =  57879.35306  C =  57879.35306 [MHz]
  Nuclear repulsion =   22.508036824884201

  Charge       = 0
  Multiplicity = 1
  Electrons    = 14
  Nalpha       = 7
  Nbeta        = 7

  ==> Algorithm <==

  SCF Algorithm Type is DF.
  DIIS enabled.
  MOM disabled.
  Fractional occupation disabled.
  Guess Type is READ.
  Energy threshold   = 1.00e-08
  Density threshold  = 1.00e-08
  Integral threshold = 0.00e+00

  ==> Primary Basis <==

  Basis Set: AUG-CC-PV(T+D)Z
    Blend: AUG-CC-PV(T+D)Z
    Number of shells: 28
    Number of basis function: 92
    Number of Cartesian functions: 110
    Spherical Harmonics?: true
    Max angular momentum: 3

  ==> DFT Potential <==

   => Composite Functional: WB97X-V <= 

    wB97X-V Hyb-GGA Exchange-Correlation Functional

    N. Mardirossian and M. Head-Gordon, Phys. Chem. Chem. Phys. 16, 9904 (2014)

    Deriv               =              1
    GGA                 =           TRUE
    Meta                =          FALSE

    Exchange Hybrid     =           TRUE
    MP2 Hybrid          =          FALSE

   => Exchange-Correlation Functionals <=

    1.0000   wB97X-V range-separated functional

   => Exact (HF) Exchange <=

    0.8330            HF,LR [omega = 0.3000]
    0.1670               HF 

   => VV10 Non-Local Parameters <=

    VV10 B              =     6.0000E+00
    VV10 C              =     1.0000E-02

   => Molecular Quadrature <=

    Radial Scheme          =       TREUTLER
    Pruning Scheme         =           FLAT
    Nuclear Scheme         =       TREUTLER

    BS radius alpha        =              1
    Pruning alpha          =              1
    Radial Points          =             75
    Spherical Points       =            302
    Total Points           =          45300
    Total Blocks           =            421
    Max Points             =            256
    Max Functions          =             92

   => Loading Basis Set <=

    Name: (AUG-CC-PV(T+D)Z AUX)
    Role: JKFIT
    Keyword: DF_BASIS_SCF
    atoms 1 entry C          line   162 file /work/zw18965/.conda/envs/p4env/share/psi4/basis/aug-cc-pvtz-jkfit.gbs 
    atoms 2 entry O          line   286 file /work/zw18965/.conda/envs/p4env/share/psi4/basis/aug-cc-pvtz-jkfit.gbs 

   => Loading Basis Set <=

    Name: AUG-CC-PV(T+D)Z
    Role: ORBITAL
    Keyword: BASIS
    atoms 1 entry C          line   255 file /work/zw18965/.conda/envs/p4env/share/psi4/basis/aug-cc-pv_tpd_z.gbs 
    atoms 2 entry O          line   347 file /work/zw18965/.conda/envs/p4env/share/psi4/basis/aug-cc-pv_tpd_z.gbs 

  Reading orbitals from file 180, no projection.

  ==> Pre-Iterations <==

   -------------------------------------------------------
    Irrep   Nso     Nmo     Nalpha   Nbeta   Ndocc  Nsocc
   -------------------------------------------------------
     A1        38      38       0       0       0       0
     A2        10      10       0       0       0       0
     B1        22      22       0       0       0       0
     B2        22      22       0       0       0       0
   -------------------------------------------------------
    Total      92      92       7       7       7       0
   -------------------------------------------------------

  ==> Integral Setup <==

  ==> DiskDFJK: Density-Fitted J/K Matrices <==

    J tasked:                  Yes
    K tasked:                  Yes
    wK tasked:                 Yes
    Omega:               3.000E-01
    OpenMP threads:             24
    Integrals threads:          24
    Memory [MiB]:           102880
    Algorithm:                Core
    Integral Cache:           NONE
    Schwarz Cutoff:          1E-12
    Fitting Condition:       1E-10

   => Auxiliary Basis Set <=

  Basis Set: (AUG-CC-PV(T+D)Z AUX)
    Blend: AUG-CC-PVTZ-JKFIT
    Number of shells: 60
    Number of basis function: 208
    Number of Cartesian functions: 262
    Spherical Harmonics?: true
    Max angular momentum: 4

  Cached 100.0% of DFT collocation blocks in 0.114 [GiB].

  Minimum eigenvalue in the overlap matrix is 4.7420989324E-04.
  Using Symmetric Orthogonalization.

  SCF Guess: Orbitals guess was supplied from a previous computation.

  ==> Iterations <==

                           Total Energy        Delta E     RMS |[F,P]|

   @DF-RKS iter   0:  -113.32083217592862   -1.13321e+02   1.00015e-04 
   @DF-RKS iter   1:  -113.32150606614499   -6.73890e-04   2.08125e-05 DIIS
   @DF-RKS iter   2:  -113.32150592447967    1.41665e-07   2.68632e-05 DIIS
   @DF-RKS iter   3:  -113.32150647881653   -5.54337e-07   2.58594e-06 DIIS
   @DF-RKS iter   4:  -113.32150648404031   -5.22378e-09   5.86667e-07 DIIS
   @DF-RKS iter   5:  -113.32150648439999   -3.59677e-10   6.95325e-08 DIIS
   @DF-RKS iter   6:  -113.32150648440874   -8.75389e-12   9.03191e-09 DIIS
  Energy and wave function converged.


  ==> Post-Iterations <==

    Orbital Energies [Eh]
    ---------------------

    Doubly Occupied:                                                      

       1A1   -19.325349     2A1   -10.391462     3A1    -1.297487  
       4A1    -0.697062     1B2    -0.590766     1B1    -0.590766  
       5A1    -0.493386  

    Virtual:                                                              

       2B1     0.051979     2B2     0.051979     6A1     0.068483  
       7A1     0.090850     3B1     0.105692     3B2     0.105692  
       8A1     0.180976     4B1     0.189526     4B2     0.189526  
       9A1     0.252444    10A1     0.283423     1A2     0.283423  
      11A1     0.374344     5B1     0.393076     5B2     0.393076  
       6B1     0.462364     6B2     0.462364    12A1     0.476144  
      13A1     0.623705     2A2     0.675799    14A1     0.675800  
      15A1     0.692739     7B1     0.770891     7B2     0.770891  
      16A1     0.917168    17A1     0.967426     3A2     0.967426  
       8B1     0.998165     8B2     0.998165     9B2     1.021433  
       9B1     1.021433    10B1     1.149005    10B2     1.149005  
      18A1     1.185425    19A1     1.217103     4A2     1.217105  
      20A1     1.285989    11B1     1.388127    11B2     1.388127  
      21A1     1.391850     5A2     2.005492    22A1     2.005494  
      12B2     2.016198    12B1     2.016198    13B1     2.136506  
      13B2     2.136506    23A1     2.172222    24A1     2.285328  
      14B1     2.400300    14B2     2.400300     6A2     2.441977  
      25A1     2.441980    26A1     2.497362    15B1     2.776401  
      15B2     2.776401    27A1     3.182172     7A2     3.182174  
      16B1     3.242284    16B2     3.242284    28A1     3.267267  
      17B2     3.412529    17B1     3.412529    29A1     3.540973  
       8A2     3.540976    18B1     3.691979    18B2     3.691979  
      30A1     3.760271    31A1     4.093530    19B1     4.902257  
      19B2     4.902257    32A1     4.963946    20B2     6.120247  
      20B1     6.120247    33A1     6.396343     9A2     6.396345  
      10A2     6.612528    34A1     6.612530    21B2     6.739601  
      21B1     6.739601    35A1     6.826876    22B2     7.014966  
      22B1     7.014966    36A1     7.182118    37A1    11.984931  
      38A1    14.616823  

    Final Occupation by Irrep:
             A1    A2    B1    B2 
    DOCC [     5,    0,    1,    1 ]

  @DF-RKS Final Energy:  -113.32150648440874

   => Energetics <=

    Nuclear Repulsion Energy =             22.5080368248842007
    One-Electron Energy =                -198.2700325689961005
    Two-Electron Energy =                  72.2209924253831872
    DFT Exchange-Correlation Energy =      -9.8396288037789574
    Empirical Dispersion Energy =           0.0000000000000000
    VV10 Nonlocal Energy =                  0.0591256380989366
    Total Energy =                       -113.3215064844087436

Computation Completed


Properties will be evaluated at   0.000000,   0.000000,   0.000000 [a0]

Properties computed using the SCF density matrix

  Nuclear Dipole Moment: [e a0]
     X:     0.0000      Y:     0.0000      Z:     0.0023

  Electronic Dipole Moment: [e a0]
     X:     0.0000      Y:     0.0000      Z:     0.0271

  Dipole Moment: [e a0]
     X:     0.0000      Y:     0.0000      Z:     0.0295     Total:     0.0295

  Dipole Moment: [D]
     X:     0.0000      Y:     0.0000      Z:     0.0749     Total:     0.0749


*** tstop() called on bp1-compute00046.data.bp.acrc.priv at Tue Apr 27 17:21:19 2021
Module time:
	user time   =      39.20 seconds =       0.65 minutes
	system time =       1.72 seconds =       0.03 minutes
	total time  =          1 seconds =       0.02 minutes
Total time:
	user time   =     245.30 seconds =       4.09 minutes
	system time =      10.74 seconds =       0.18 minutes
	total time  =         11 seconds =       0.18 minutes

  //>>>>>>>>>>>>>>>>>>>>>>>>>>>>>>>>>>>//
  //    Loading displacement 3 of 3    //
  //<<<<<<<<<<<<<<<<<<<<<<<<<<<<<<<<<<<//

*** tstart() called on bp1-compute00046.data.bp.acrc.priv
*** at Tue Apr 27 17:21:19 2021

   => Loading Basis Set <=

    Name: AUG-CC-PV(T+D)Z
    Role: ORBITAL
    Keyword: BASIS
    atoms 1 entry C          line   255 file /work/zw18965/.conda/envs/p4env/share/psi4/basis/aug-cc-pv_tpd_z.gbs 
    atoms 2 entry O          line   347 file /work/zw18965/.conda/envs/p4env/share/psi4/basis/aug-cc-pv_tpd_z.gbs 


         ---------------------------------------------------------
                                   SCF
               by Justin Turney, Rob Parrish, Andy Simmonett
                          and Daniel G. A. Smith
                              RKS Reference
                       24 Threads, 137329 MiB Core
         ---------------------------------------------------------

  ==> Geometry <==

    Molecular point group: c2v
    Full point group: C_inf_v

    Geometry (in Angstrom), charge = 0, multiplicity = 1:

       Center              X                  Y                   Z               Mass       
    ------------   -----------------  -----------------  -----------------  -----------------
         C            0.000000000000     0.000000000000    -0.643619342227    12.000000000000
         O            0.000000000000     0.000000000000     0.482867979631    15.994914619570

  Running in c2v symmetry.

  Rotational constants: A = ************  B =      1.93758  C =      1.93758 [cm^-1]
  Rotational constants: A = ************  B =  58087.21542  C =  58087.21542 [MHz]
  Nuclear repulsion =   22.548417207439620

  Charge       = 0
  Multiplicity = 1
  Electrons    = 14
  Nalpha       = 7
  Nbeta        = 7

  ==> Algorithm <==

  SCF Algorithm Type is DF.
  DIIS enabled.
  MOM disabled.
  Fractional occupation disabled.
  Guess Type is READ.
  Energy threshold   = 1.00e-08
  Density threshold  = 1.00e-08
  Integral threshold = 0.00e+00

  ==> Primary Basis <==

  Basis Set: AUG-CC-PV(T+D)Z
    Blend: AUG-CC-PV(T+D)Z
    Number of shells: 28
    Number of basis function: 92
    Number of Cartesian functions: 110
    Spherical Harmonics?: true
    Max angular momentum: 3

  ==> DFT Potential <==

   => Composite Functional: WB97X-V <= 

    wB97X-V Hyb-GGA Exchange-Correlation Functional

    N. Mardirossian and M. Head-Gordon, Phys. Chem. Chem. Phys. 16, 9904 (2014)

    Deriv               =              1
    GGA                 =           TRUE
    Meta                =          FALSE

    Exchange Hybrid     =           TRUE
    MP2 Hybrid          =          FALSE

   => Exchange-Correlation Functionals <=

    1.0000   wB97X-V range-separated functional

   => Exact (HF) Exchange <=

    0.8330            HF,LR [omega = 0.3000]
    0.1670               HF 

   => VV10 Non-Local Parameters <=

    VV10 B              =     6.0000E+00
    VV10 C              =     1.0000E-02

   => Molecular Quadrature <=

    Radial Scheme          =       TREUTLER
    Pruning Scheme         =           FLAT
    Nuclear Scheme         =       TREUTLER

    BS radius alpha        =              1
    Pruning alpha          =              1
    Radial Points          =             75
    Spherical Points       =            302
    Total Points           =          45300
    Total Blocks           =            420
    Max Points             =            256
    Max Functions          =             92

   => Loading Basis Set <=

    Name: (AUG-CC-PV(T+D)Z AUX)
    Role: JKFIT
    Keyword: DF_BASIS_SCF
    atoms 1 entry C          line   162 file /work/zw18965/.conda/envs/p4env/share/psi4/basis/aug-cc-pvtz-jkfit.gbs 
    atoms 2 entry O          line   286 file /work/zw18965/.conda/envs/p4env/share/psi4/basis/aug-cc-pvtz-jkfit.gbs 

   => Loading Basis Set <=

    Name: AUG-CC-PV(T+D)Z
    Role: ORBITAL
    Keyword: BASIS
    atoms 1 entry C          line   255 file /work/zw18965/.conda/envs/p4env/share/psi4/basis/aug-cc-pv_tpd_z.gbs 
    atoms 2 entry O          line   347 file /work/zw18965/.conda/envs/p4env/share/psi4/basis/aug-cc-pv_tpd_z.gbs 

  Reading orbitals from file 180, no projection.

  ==> Pre-Iterations <==

   -------------------------------------------------------
    Irrep   Nso     Nmo     Nalpha   Nbeta   Ndocc  Nsocc
   -------------------------------------------------------
     A1        38      38       0       0       0       0
     A2        10      10       0       0       0       0
     B1        22      22       0       0       0       0
     B2        22      22       0       0       0       0
   -------------------------------------------------------
    Total      92      92       7       7       7       0
   -------------------------------------------------------

  ==> Integral Setup <==

  ==> DiskDFJK: Density-Fitted J/K Matrices <==

    J tasked:                  Yes
    K tasked:                  Yes
    wK tasked:                 Yes
    Omega:               3.000E-01
    OpenMP threads:             24
    Integrals threads:          24
    Memory [MiB]:           102880
    Algorithm:                Core
    Integral Cache:           NONE
    Schwarz Cutoff:          1E-12
    Fitting Condition:       1E-10

   => Auxiliary Basis Set <=

  Basis Set: (AUG-CC-PV(T+D)Z AUX)
    Blend: AUG-CC-PVTZ-JKFIT
    Number of shells: 60
    Number of basis function: 208
    Number of Cartesian functions: 262
    Spherical Harmonics?: true
    Max angular momentum: 4

  Cached 100.0% of DFT collocation blocks in 0.114 [GiB].

  Minimum eigenvalue in the overlap matrix is 4.7295865513E-04.
  Using Symmetric Orthogonalization.

  SCF Guess: Orbitals guess was supplied from a previous computation.

  ==> Iterations <==

                           Total Energy        Delta E     RMS |[F,P]|

   @DF-RKS iter   0:  -113.32218908907127   -1.13322e+02   1.00249e-04 
   @DF-RKS iter   1:  -113.32151207700224    6.77012e-04   2.07546e-05 DIIS
   @DF-RKS iter   2:  -113.32151194004626    1.36956e-07   2.67109e-05 DIIS
   @DF-RKS iter   3:  -113.32151248744806   -5.47402e-07   2.57388e-06 DIIS
   @DF-RKS iter   4:  -113.32151249261263   -5.16457e-09   5.85728e-07 DIIS
   @DF-RKS iter   5:  -113.32151249297087   -3.58241e-10   6.94859e-08 DIIS
   @DF-RKS iter   6:  -113.32151249297939   -8.52651e-12   8.99407e-09 DIIS
  Energy and wave function converged.


  ==> Post-Iterations <==

    Orbital Energies [Eh]
    ---------------------

    Doubly Occupied:                                                      

       1A1   -19.325242     2A1   -10.390696     3A1    -1.298607  
       4A1    -0.697073     1B2    -0.591498     1B1    -0.591498  
       5A1    -0.493209  

    Virtual:                                                              

       2B2     0.052439     2B1     0.052439     6A1     0.068460  
       7A1     0.090893     3B2     0.105975     3B1     0.105975  
       8A1     0.181005     4B2     0.189492     4B1     0.189492  
       9A1     0.252463    10A1     0.283438     1A2     0.283438  
      11A1     0.374474     5B2     0.393286     5B1     0.393286  
       6B2     0.462287     6B1     0.462287    12A1     0.476281  
      13A1     0.623798     2A2     0.675804    14A1     0.675805  
      15A1     0.694564     7B2     0.771009     7B1     0.771009  
      16A1     0.917628    17A1     0.967627     3A2     0.967628  
       8B1     0.998640     8B2     0.998640     9B1     1.021488  
       9B2     1.021488    10B2     1.148880    10B1     1.148880  
      18A1     1.186026    19A1     1.217435     4A2     1.217436  
      20A1     1.286141    11B1     1.388748    11B2     1.388748  
      21A1     1.393134     5A2     2.005534    22A1     2.005535  
      12B1     2.016542    12B2     2.016542    13B2     2.136996  
      13B1     2.136996    23A1     2.173293    24A1     2.286470  
      14B2     2.402430    14B1     2.402430     6A2     2.442891  
      25A1     2.442894    26A1     2.497442    15B2     2.774716  
      15B1     2.774716    27A1     3.182573     7A2     3.182576  
      16B1     3.242476    16B2     3.242476    28A1     3.269447  
      17B2     3.413485    17B1     3.413485    29A1     3.542969  
       8A2     3.542972    18B2     3.693666    18B1     3.693666  
      30A1     3.762888    31A1     4.094588    19B2     4.907476  
      19B1     4.907476    32A1     4.970732    20B1     6.120247  
      20B2     6.120247    33A1     6.397463     9A2     6.397464  
      10A2     6.612714    34A1     6.612717    21B1     6.743395  
      21B2     6.743395    35A1     6.831368    22B2     7.014385  
      22B1     7.014385    36A1     7.184800    37A1    11.998949  
      38A1    14.666974  

    Final Occupation by Irrep:
             A1    A2    B1    B2 
    DOCC [     5,    0,    1,    1 ]

  @DF-RKS Final Energy:  -113.32151249297939

   => Energetics <=

    Nuclear Repulsion Energy =             22.5484172074396199
    One-Electron Energy =                -198.3466460190074656
    Two-Electron Energy =                  72.2589041223089765
    DFT Exchange-Correlation Energy =      -9.8413136802457792
    Empirical Dispersion Energy =           0.0000000000000000
    VV10 Nonlocal Energy =                  0.0591258765252494
    Total Energy =                       -113.3215124929793944

Computation Completed


Properties will be evaluated at   0.000000,   0.000000,   0.000000 [a0]

Properties computed using the SCF density matrix

  Nuclear Dipole Moment: [e a0]
     X:     0.0000      Y:     0.0000      Z:     0.0023

  Electronic Dipole Moment: [e a0]
     X:     0.0000      Y:     0.0000      Z:     0.0301

  Dipole Moment: [e a0]
     X:     0.0000      Y:     0.0000      Z:     0.0325     Total:     0.0325

  Dipole Moment: [D]
     X:     0.0000      Y:     0.0000      Z:     0.0825     Total:     0.0825


*** tstop() called on bp1-compute00046.data.bp.acrc.priv at Tue Apr 27 17:21:21 2021
Module time:
	user time   =      37.99 seconds =       0.63 minutes
	system time =       1.50 seconds =       0.03 minutes
	total time  =          2 seconds =       0.03 minutes
Total time:
	user time   =     283.42 seconds =       4.72 minutes
	system time =      12.24 seconds =       0.20 minutes
	total time  =         13 seconds =       0.22 minutes

         ----------------------------------------------------------
                                   FINDIF
                     R. A. King and Jonathon Misiewicz
         ---------------------------------------------------------

  Computing gradient from energies.
    Using 3-point formula.
    Energy without displacement: -113.3215118384
    Check energies below for precision!
    Forces are for mass-weighted, symmetry-adapted cartesians (in au).

     Coord      Energy(-1)        Energy(+1)            Force
        0   -113.3215064844   -113.3215124930     -0.0006008571


-------------------------------------------------------------
  ## New Matrix (Symmetry 0) ##
  Irrep: 1 Size: 2 x 3

                 1                   2                   3

    1     0.00000000000000     0.00000000000000    -0.00157330594812
    2     0.00000000000000     0.00000000000000     0.00157330594812




			-----------------------------------------
			 OPTKING 2.0: for geometry optimizations 
			  - R.A. King,  Bethel University        
			-----------------------------------------
	At level 1: Red. Int., RFO, no backsteps, dynamic trust

	Previous internal coordinate definitions found.
	---Fragment 1 Geometry and Gradient---
	 C           0.0000000000        0.0000000000       -1.2173553010
	 O           0.0000000000        0.0000000000        0.9133067578
	             0.0000000000        0.0000000000       -0.0015733059
	             0.0000000000        0.0000000000        0.0015733059

	---Fragment 1 Intrafragment Coordinates---
	 - Coordinate -           - BOHR/RAD -       - ANG/DEG -
	 R(1,2)           =         2.130662	       1.127498

	Current energy   :      -113.3215118384

	Energy change for the previous step:
		Projected    :        -0.0000535615
		Actual       :        -0.0000463523
	Energy ratio indicates good step: Trust radius increased to 1.000e+00.


	Performing BFGS update.
	Previous computed or guess Hessian on step 1.
	Steps to be used in Hessian update: 1
	Taking RFO optimization step.
	Going to follow RFO solution 1.
	Using RFO vector 1.
	Norm of target step-size    0.00124
	Projected energy change by RFO approximation:        -0.0000011811

	Back-transformation to cartesian coordinates...
	Successfully converged to displaced geometry.

	--- Internal Coordinate Step in ANG or DEG, aJ/ANG or AJ/DEG ---
	 ---------------------------------------------------------------------------
	   Coordinate                Previous        Force       Change         New 
	   ----------                --------       ------       ------       ------
	    1 R(1,2)          =      1.127498    -0.012962    -0.000655     1.126843
	 ---------------------------------------------------------------------------
	Successfully symmetrized geometry.

  ==> Convergence Check <==

  Measures of convergence in internal coordinates in au.
  Criteria marked as inactive (o), active & met (*), and active & unmet ( ).
  ---------------------------------------------------------------------------------------------
   Step     Total Energy     Delta E     MAX Force     RMS Force      MAX Disp      RMS Disp   
  ---------------------------------------------------------------------------------------------
    Convergence Criteria    1.00e-06 *    3.00e-04 *             o    1.20e-03 *             o
  ---------------------------------------------------------------------------------------------
      2    -113.32151184   -4.64e-05      1.57e-03      1.57e-03 o    1.24e-03      1.24e-03 o  ~
  ---------------------------------------------------------------------------------------------

	Writing optimization data to binary file.
	Structure for next step:
	Cartesian Geometry (in Angstrom)
	    C     0.0000000000   0.0000000000  -0.6438693401
	    O     0.0000000000   0.0000000000   0.4829737807
			--------------------------
			 OPTKING Finished Execution 
			--------------------------

    Structure for next step:
    Molecular point group: c2v
    Full point group: C_inf_v

    Geometry (in Angstrom), charge = 0, multiplicity = 1:

    C            0.000000000000     0.000000000000    -0.643822630737
    O            0.000000000000     0.000000000000     0.483020494488

gradient() will perform gradient computation by finite difference of analytic energies.

         ----------------------------------------------------------
                                   FINDIF
                     R. A. King and Jonathon Misiewicz
         ---------------------------------------------------------

  Using finite-differences of energies to determine gradients.
    Generating geometries for use with 3-point formula.
    Displacement size will be 5.00e-03.
    Number of atoms is 2.
    Number of symmetric SALCs is 1.
    Translations projected? 1. Rotations projected? 1.
    Number of geometries (including reference) is 3.

  //>>>>>>>>>>>>>>>>>>>>>>>>>>>>>>>>>>>//
  //    Loading displacement 1 of 3    //
  //<<<<<<<<<<<<<<<<<<<<<<<<<<<<<<<<<<<//

*** tstart() called on bp1-compute00046.data.bp.acrc.priv
*** at Tue Apr 27 17:21:21 2021

   => Loading Basis Set <=

    Name: AUG-CC-PV(T+D)Z
    Role: ORBITAL
    Keyword: BASIS
    atoms 1 entry C          line   255 file /work/zw18965/.conda/envs/p4env/share/psi4/basis/aug-cc-pv_tpd_z.gbs 
    atoms 2 entry O          line   347 file /work/zw18965/.conda/envs/p4env/share/psi4/basis/aug-cc-pv_tpd_z.gbs 


         ---------------------------------------------------------
                                   SCF
               by Justin Turney, Rob Parrish, Andy Simmonett
                          and Daniel G. A. Smith
                              RKS Reference
                       24 Threads, 137329 MiB Core
         ---------------------------------------------------------

  ==> Geometry <==

    Molecular point group: c2v
    Full point group: C_inf_v

    Geometry (in Angstrom), charge = 0, multiplicity = 1:

       Center              X                  Y                   Z               Mass       
    ------------   -----------------  -----------------  -----------------  -----------------
         C            0.000000000000     0.000000000000    -0.643822630737    12.000000000000
         O            0.000000000000     0.000000000000     0.483020494488    15.994914619570

  Running in c2v symmetry.

  Rotational constants: A = ************  B =      1.93636  C =      1.93636 [cm^-1]
  Rotational constants: A = ************  B =  58050.53887  C =  58050.53887 [MHz]
  Nuclear repulsion =   22.541297491685160

  Charge       = 0
  Multiplicity = 1
  Electrons    = 14
  Nalpha       = 7
  Nbeta        = 7

  ==> Algorithm <==

  SCF Algorithm Type is DF.
  DIIS enabled.
  MOM disabled.
  Fractional occupation disabled.
  Guess Type is READ.
  Energy threshold   = 1.00e-08
  Density threshold  = 1.00e-08
  Integral threshold = 0.00e+00

  ==> Primary Basis <==

  Basis Set: AUG-CC-PV(T+D)Z
    Blend: AUG-CC-PV(T+D)Z
    Number of shells: 28
    Number of basis function: 92
    Number of Cartesian functions: 110
    Spherical Harmonics?: true
    Max angular momentum: 3

  ==> DFT Potential <==

   => Composite Functional: WB97X-V <= 

    wB97X-V Hyb-GGA Exchange-Correlation Functional

    N. Mardirossian and M. Head-Gordon, Phys. Chem. Chem. Phys. 16, 9904 (2014)

    Deriv               =              1
    GGA                 =           TRUE
    Meta                =          FALSE

    Exchange Hybrid     =           TRUE
    MP2 Hybrid          =          FALSE

   => Exchange-Correlation Functionals <=

    1.0000   wB97X-V range-separated functional

   => Exact (HF) Exchange <=

    0.8330            HF,LR [omega = 0.3000]
    0.1670               HF 

   => VV10 Non-Local Parameters <=

    VV10 B              =     6.0000E+00
    VV10 C              =     1.0000E-02

   => Molecular Quadrature <=

    Radial Scheme          =       TREUTLER
    Pruning Scheme         =           FLAT
    Nuclear Scheme         =       TREUTLER

    BS radius alpha        =              1
    Pruning alpha          =              1
    Radial Points          =             75
    Spherical Points       =            302
    Total Points           =          45300
    Total Blocks           =            421
    Max Points             =            256
    Max Functions          =             92

   => Loading Basis Set <=

    Name: (AUG-CC-PV(T+D)Z AUX)
    Role: JKFIT
    Keyword: DF_BASIS_SCF
    atoms 1 entry C          line   162 file /work/zw18965/.conda/envs/p4env/share/psi4/basis/aug-cc-pvtz-jkfit.gbs 
    atoms 2 entry O          line   286 file /work/zw18965/.conda/envs/p4env/share/psi4/basis/aug-cc-pvtz-jkfit.gbs 

   => Loading Basis Set <=

    Name: AUG-CC-PV(T+D)Z
    Role: ORBITAL
    Keyword: BASIS
    atoms 1 entry C          line   255 file /work/zw18965/.conda/envs/p4env/share/psi4/basis/aug-cc-pv_tpd_z.gbs 
    atoms 2 entry O          line   347 file /work/zw18965/.conda/envs/p4env/share/psi4/basis/aug-cc-pv_tpd_z.gbs 

  Reading orbitals from file 180, no projection.

  ==> Pre-Iterations <==

   -------------------------------------------------------
    Irrep   Nso     Nmo     Nalpha   Nbeta   Ndocc  Nsocc
   -------------------------------------------------------
     A1        38      38       0       0       0       0
     A2        10      10       0       0       0       0
     B1        22      22       0       0       0       0
     B2        22      22       0       0       0       0
   -------------------------------------------------------
    Total      92      92       7       7       7       0
   -------------------------------------------------------

  ==> Integral Setup <==

  ==> DiskDFJK: Density-Fitted J/K Matrices <==

    J tasked:                  Yes
    K tasked:                  Yes
    wK tasked:                 Yes
    Omega:               3.000E-01
    OpenMP threads:             24
    Integrals threads:          24
    Memory [MiB]:           102880
    Algorithm:                Core
    Integral Cache:           NONE
    Schwarz Cutoff:          1E-12
    Fitting Condition:       1E-10

   => Auxiliary Basis Set <=

  Basis Set: (AUG-CC-PV(T+D)Z AUX)
    Blend: AUG-CC-PVTZ-JKFIT
    Number of shells: 60
    Number of basis function: 208
    Number of Cartesian functions: 262
    Spherical Harmonics?: true
    Max angular momentum: 4

  Cached 100.0% of DFT collocation blocks in 0.114 [GiB].

  Minimum eigenvalue in the overlap matrix is 4.7317835598E-04.
  Using Symmetric Orthogonalization.

  SCF Guess: Orbitals guess was supplied from a previous computation.

  ==> Iterations <==

                           Total Energy        Delta E     RMS |[F,P]|

   @DF-RKS iter   0:  -113.32195089760388   -1.13322e+02   6.49234e-05 
   @DF-RKS iter   1:  -113.32151262657091    4.38271e-04   1.34529e-05 DIIS
   @DF-RKS iter   2:  -113.32151256874707    5.78238e-08   1.73223e-05 DIIS
   @DF-RKS iter   3:  -113.32151279901456   -2.30267e-07   1.66900e-06 DIIS
   @DF-RKS iter   4:  -113.32151280118686   -2.17230e-09   3.79587e-07 DIIS
   @DF-RKS iter   5:  -113.32151280133741   -1.50550e-10   4.50278e-08 DIIS
[...]
      13B1     2.136665    23A1     2.172569    24A1     2.285699  
      14B1     2.400989    14B2     2.400989     6A2     2.442273  
      25A1     2.442277    26A1     2.497386    15B1     2.775855  
      15B2     2.775855    27A1     3.182302     7A2     3.182304  
      16B1     3.242346    16B2     3.242346    28A1     3.267974  
      17B2     3.412838    17B1     3.412838    29A1     3.541618  
       8A2     3.541621    18B1     3.692524    18B2     3.692524  
      30A1     3.761118    31A1     4.093875    19B1     4.903949  
      19B2     4.903949    32A1     4.966137    20B1     6.120247  
      20B2     6.120247    33A1     6.396705     9A2     6.396707  
      10A2     6.612587    34A1     6.612590    21B1     6.740826  
      21B2     6.740826    35A1     6.828326    22B1     7.014780  
      22B2     7.014780    36A1     7.182985    37A1    11.989488  
      38A1    14.633034  

    Final Occupation by Irrep:
             A1    A2    B1    B2 
    DOCC [     5,    0,    1,    1 ]

  @DF-RKS Final Energy:  -113.32151048788340

   => Energetics <=

    Nuclear Repulsion Energy =             22.5211019595026620
    One-Electron Energy =                -198.2948239555306316
    Two-Electron Energy =                  72.2332594512032671
    DFT Exchange-Correlation Energy =      -9.8401736574971981
    Empirical Dispersion Energy =           0.0000000000000000
    VV10 Nonlocal Energy =                  0.0591257144385005
    Total Energy =                       -113.3215104878834154

Computation Completed


Properties will be evaluated at   0.000000,   0.000000,   0.000000 [a0]

Properties computed using the SCF density matrix

  Nuclear Dipole Moment: [e a0]
     X:     0.0000      Y:     0.0000      Z:     0.0023

  Electronic Dipole Moment: [e a0]
     X:     0.0000      Y:     0.0000      Z:     0.0281

  Dipole Moment: [e a0]
     X:     0.0000      Y:     0.0000      Z:     0.0304     Total:     0.0304

  Dipole Moment: [D]
     X:     0.0000      Y:     0.0000      Z:     0.0773     Total:     0.0773


*** tstop() called on bp1-compute00046.data.bp.acrc.priv at Tue Apr 27 17:21:38 2021
Module time:
	user time   =      60.33 seconds =       1.01 minutes
	system time =       2.37 seconds =       0.04 minutes
	total time  =          2 seconds =       0.03 minutes
Total time:
	user time   =     678.45 seconds =      11.31 minutes
	system time =      27.63 seconds =       0.46 minutes
	total time  =         30 seconds =       0.50 minutes

  //>>>>>>>>>>>>>>>>>>>>>>>>>>>>>>>>>>>//
  //    Loading displacement 3 of 3    //
  //<<<<<<<<<<<<<<<<<<<<<<<<<<<<<<<<<<<//

*** tstart() called on bp1-compute00046.data.bp.acrc.priv
*** at Tue Apr 27 17:21:38 2021

   => Loading Basis Set <=

    Name: AUG-CC-PV(T+D)Z
    Role: ORBITAL
    Keyword: BASIS
    atoms 1 entry C          line   255 file /work/zw18965/.conda/envs/p4env/share/psi4/basis/aug-cc-pv_tpd_z.gbs 
    atoms 2 entry O          line   347 file /work/zw18965/.conda/envs/p4env/share/psi4/basis/aug-cc-pv_tpd_z.gbs 


         ---------------------------------------------------------
                                   SCF
               by Justin Turney, Rob Parrish, Andy Simmonett
                          and Daniel G. A. Smith
                              RKS Reference
                       24 Threads, 137329 MiB Core
         ---------------------------------------------------------

  ==> Geometry <==

    Molecular point group: c2v
    Full point group: C_inf_v

    Geometry (in Angstrom), charge = 0, multiplicity = 1:

       Center              X                  Y                   Z               Mass       
    ------------   -----------------  -----------------  -----------------  -----------------
         C            0.000000000000     0.000000000000    -0.643245290397    12.000000000000
         O            0.000000000000     0.000000000000     0.482587351565    15.994914619570

  Running in c2v symmetry.

  Rotational constants: A = ************  B =      1.93984  C =      1.93984 [cm^-1]
  Rotational constants: A = ************  B =  58154.79135  C =  58154.79135 [MHz]
  Nuclear repulsion =   22.561529276586761

  Charge       = 0
  Multiplicity = 1
  Electrons    = 14
  Nalpha       = 7
  Nbeta        = 7

  ==> Algorithm <==

  SCF Algorithm Type is DF.
  DIIS enabled.
  MOM disabled.
  Fractional occupation disabled.
  Guess Type is SAD.
  Energy threshold   = 1.00e-10
  Density threshold  = 1.00e-10
  Integral threshold = 0.00e+00

  ==> Primary Basis <==

  Basis Set: AUG-CC-PV(T+D)Z
    Blend: AUG-CC-PV(T+D)Z
    Number of shells: 28
    Number of basis function: 92
    Number of Cartesian functions: 110
    Spherical Harmonics?: true
    Max angular momentum: 3

  ==> DFT Potential <==

   => Composite Functional: WB97X-V <= 

    wB97X-V Hyb-GGA Exchange-Correlation Functional

    N. Mardirossian and M. Head-Gordon, Phys. Chem. Chem. Phys. 16, 9904 (2014)

    Deriv               =              1
    GGA                 =           TRUE
    Meta                =          FALSE

    Exchange Hybrid     =           TRUE
    MP2 Hybrid          =          FALSE

   => Exchange-Correlation Functionals <=

    1.0000   wB97X-V range-separated functional

   => Exact (HF) Exchange <=

    0.8330            HF,LR [omega = 0.3000]
    0.1670               HF 

   => VV10 Non-Local Parameters <=

    VV10 B              =     6.0000E+00
    VV10 C              =     1.0000E-02

   => Molecular Quadrature <=

    Radial Scheme          =       TREUTLER
    Pruning Scheme         =           FLAT
    Nuclear Scheme         =       TREUTLER

    BS radius alpha        =              1
    Pruning alpha          =              1
    Radial Points          =             75
    Spherical Points       =            302
    Total Points           =          45300
    Total Blocks           =            420
    Max Points             =            256
    Max Functions          =             92

   => Loading Basis Set <=

    Name: (AUG-CC-PV(T+D)Z AUX)
    Role: JKFIT
    Keyword: DF_BASIS_SCF
    atoms 1 entry C          line   162 file /work/zw18965/.conda/envs/p4env/share/psi4/basis/aug-cc-pvtz-jkfit.gbs 
    atoms 2 entry O          line   286 file /work/zw18965/.conda/envs/p4env/share/psi4/basis/aug-cc-pvtz-jkfit.gbs 

  ==> Pre-Iterations <==

   -------------------------------------------------------
    Irrep   Nso     Nmo     Nalpha   Nbeta   Ndocc  Nsocc
   -------------------------------------------------------
     A1        38      38       0       0       0       0
     A2        10      10       0       0       0       0
     B1        22      22       0       0       0       0
     B2        22      22       0       0       0       0
   -------------------------------------------------------
    Total      92      92       7       7       7       0
   -------------------------------------------------------

  ==> Integral Setup <==

  ==> DiskDFJK: Density-Fitted J/K Matrices <==

    J tasked:                  Yes
    K tasked:                  Yes
    wK tasked:                 Yes
    Omega:               3.000E-01
    OpenMP threads:             24
    Integrals threads:          24
    Memory [MiB]:           102880
    Algorithm:                Core
    Integral Cache:           NONE
    Schwarz Cutoff:          1E-12
    Fitting Condition:       1E-10

   => Auxiliary Basis Set <=

  Basis Set: (AUG-CC-PV(T+D)Z AUX)
    Blend: AUG-CC-PVTZ-JKFIT
    Number of shells: 60
    Number of basis function: 208
    Number of Cartesian functions: 262
    Spherical Harmonics?: true
    Max angular momentum: 4

  Cached 100.0% of DFT collocation blocks in 0.114 [GiB].

  Minimum eigenvalue in the overlap matrix is 4.7255506087E-04.
  Using Symmetric Orthogonalization.

  SCF Guess: Superposition of Atomic Densities via on-the-fly atomic UHF.

  ==> Iterations <==

                           Total Energy        Delta E     RMS |[F,P]|

   @DF-RKS iter SAD:  -112.57215377278413   -1.12572e+02   0.00000e+00 
   @DF-RKS iter   1:  -113.28432926677326   -7.12175e-01   6.93493e-03 DIIS
   @DF-RKS iter   2:  -113.26824453881775    1.60847e-02   8.21206e-03 DIIS
   @DF-RKS iter   3:  -113.32035858728783   -5.21140e-02   1.07632e-03 DIIS
   @DF-RKS iter   4:  -113.32149173512926   -1.13315e-03   1.19817e-04 DIIS
   @DF-RKS iter   5:  -113.32150962951150   -1.78944e-05   1.92585e-05 DIIS
   @DF-RKS iter   6:  -113.32151034645794   -7.16946e-07   3.71026e-06 DIIS
   @DF-RKS iter   7:  -113.32151039190049   -4.54425e-08   4.81988e-07 DIIS
   @DF-RKS iter   8:  -113.32151039285699   -9.56504e-10   1.08874e-07 DIIS
   @DF-RKS iter   9:  -113.32151039287413   -1.71383e-11   8.26263e-09 DIIS
   @DF-RKS iter  10:  -113.32151039287412    1.42109e-14   1.41889e-09 DIIS
   @DF-RKS iter  11:  -113.32151039287420   -8.52651e-14   1.47725e-10 DIIS
   @DF-RKS iter  12:  -113.32151039287416    4.26326e-14   7.91275e-12 DIIS
  Energy and wave function converged.


  ==> Post-Iterations <==

    Orbital Energies [Eh]
    ---------------------

    Doubly Occupied:                                                      

       1A1   -19.325207     2A1   -10.390447     3A1    -1.298970  
       4A1    -0.697077     1B1    -0.591735     1B2    -0.591735  
       5A1    -0.493152  

    Virtual:                                                              

       2B1     0.052587     2B2     0.052587     6A1     0.068452  
       7A1     0.090906     3B1     0.106067     3B2     0.106067  
       8A1     0.181014     4B1     0.189480     4B2     0.189480  
       9A1     0.252469    10A1     0.283443     1A2     0.283443  
      11A1     0.374516     5B1     0.393355     5B2     0.393355  
       6B2     0.462262     6B1     0.462262    12A1     0.476325  
      13A1     0.623828     2A2     0.675805    14A1     0.675806  
      15A1     0.695153     7B1     0.771047     7B2     0.771047  
      16A1     0.917779    17A1     0.967692     3A2     0.967693  
       8B2     0.998794     8B1     0.998794     9B1     1.021505  
       9B2     1.021505    10B2     1.148840    10B1     1.148840  
      18A1     1.186221    19A1     1.217542     4A2     1.217543  
      20A1     1.286186    11B2     1.388950    11B1     1.388950  
      21A1     1.393560     5A2     2.005547    22A1     2.005549  
      12B2     2.016654    12B1     2.016654    13B2     2.137154  
      13B1     2.137154    23A1     2.173639    24A1     2.286838  
      14B2     2.403122    14B1     2.403122     6A2     2.443186  
      25A1     2.443190    26A1     2.497474    15B2     2.774169  
      15B1     2.774169    27A1     3.182704     7A2     3.182706  
      16B2     3.242538    16B1     3.242538    28A1     3.270152  
      17B1     3.413796    17B2     3.413796    29A1     3.543618  
       8A2     3.543621    18B2     3.694216    18B1     3.694216  
      30A1     3.763737    31A1     4.094926    19B2     4.909165  
      19B1     4.909165    32A1     4.972944    20B1     6.120247  
      20B2     6.120247    33A1     6.397827     9A2     6.397828  
      10A2     6.612775    34A1     6.612778    21B1     6.744630  
      21B2     6.744630    35A1     6.832834    22B2     7.014192  
      22B1     7.014192    36A1     7.185672    37A1    12.003459  
      38A1    14.683287  

    Final Occupation by Irrep:
             A1    A2    B1    B2 
    DOCC [     5,    0,    1,    1 ]

  @DF-RKS Final Energy:  -113.32151039287416

   => Energetics <=

    Nuclear Repulsion Energy =             22.5615292765867608
    One-Electron Energy =                -198.3715187458508353
    Two-Electron Energy =                  72.2712145918191737
    DFT Exchange-Correlation Energy =      -9.8418614711275332
    Empirical Dispersion Energy =           0.0000000000000000
    VV10 Nonlocal Energy =                  0.0591259556982777
    Total Energy =                       -113.3215103928741598

Computation Completed


Properties will be evaluated at   0.000000,   0.000000,   0.000000 [a0]

Properties computed using the SCF density matrix

  Nuclear Dipole Moment: [e a0]
     X:     0.0000      Y:     0.0000      Z:     0.0023

  Electronic Dipole Moment: [e a0]
     X:     0.0000      Y:     0.0000      Z:     0.0311

  Dipole Moment: [e a0]
     X:     0.0000      Y:     0.0000      Z:     0.0334     Total:     0.0334

  Dipole Moment: [D]
     X:     0.0000      Y:     0.0000      Z:     0.0850     Total:     0.0850


*** tstop() called on bp1-compute00046.data.bp.acrc.priv at Tue Apr 27 17:21:41 2021
Module time:
	user time   =      57.28 seconds =       0.95 minutes
	system time =       2.10 seconds =       0.03 minutes
	total time  =          3 seconds =       0.05 minutes
Total time:
	user time   =     735.87 seconds =      12.26 minutes
	system time =      29.74 seconds =       0.50 minutes
	total time  =         33 seconds =       0.55 minutes

         ----------------------------------------------------------
                                   FINDIF
                     R. A. King and Jonathon Misiewicz
         ---------------------------------------------------------

  Computing second-derivative from energies using projected, 
  symmetry-adapted, cartesian coordinates.

  3 energies passed in, including the reference geometry.
    Using 3-point formula.
    Energy without displacement: -113.3215128013
    Check energies below for precision!
    0: -1 :      -113.3215104879
    0: 1  :      -113.3215103929

-------------------------------------------------------------


  ==> Harmonic Vibrational Analysis <==

  non-mass-weighted Hessian:       Symmetric? True   Hermitian? True   Lin Dep Dim?  5 (0)
  projection of translations (True) and rotations (True) removed 5 degrees of freedom (5)
  total projector:                 Symmetric? True   Hermitian? True   Lin Dep Dim?  5 (5)
  mass-weighted Hessian:           Symmetric? True   Hermitian? True   Lin Dep Dim?  5 (0)
  pre-proj  low-frequency mode:    0.0000i [cm^-1]
  pre-proj  low-frequency mode:    0.0000  [cm^-1]
  pre-proj  low-frequency mode:    0.0000  [cm^-1]
  pre-proj  low-frequency mode:    0.0000  [cm^-1]
  pre-proj  low-frequency mode:    0.0000  [cm^-1]
  pre-proj  all modes:['0.0000i' '0.0000' '0.0000' '0.0000' '0.0000' '2234.0547']
  projected mass-weighted Hessian: Symmetric? True   Hermitian? True   Lin Dep Dim?  5 (5)
  post-proj low-frequency mode:    0.0000  [cm^-1] (TR)
  post-proj low-frequency mode:    0.0000  [cm^-1] (TR)
  post-proj low-frequency mode:    0.0000  [cm^-1] (TR)
  post-proj low-frequency mode:    0.0000  [cm^-1] (TR)
  post-proj low-frequency mode:    0.0000  [cm^-1] (TR)
  post-proj  all modes:['0.0000' '0.0000' '0.0000' '0.0000' '0.0000' '2234.0547']

  Vibration                       6           
  Freq [cm^-1]                2234.0547       
  Irrep                           A1          
  Reduced mass [u]             13.4388        
  Force const [mDyne/A]        39.5182        
  Turning point v=0 [a0]        0.0633        
  RMS dev v=0 [a0 u^1/2]        0.1642        
  Char temp [K]               3214.3073       
  ----------------------------------------------------------------------------------
      1   C                0.00  0.00  0.80   
      2   O                0.00  0.00 -0.60   

  ==> Thermochemistry Components <==

  Entropy, S
    Electronic S            0.000 [cal/(mol K)]        0.000 [J/(mol K)]       0.00000000 [mEh/K] (multiplicity = 1)
    Translational S        35.923 [cal/(mol K)]      150.302 [J/(mol K)]       0.05724692 [mEh/K] (mol. weight = 27.9949 [u], P = 101325.00 [Pa])
    Rotational S           11.273 [cal/(mol K)]       47.168 [J/(mol K)]       0.01796530 [mEh/K] (symmetry no. = 1)
    Vibrational S           0.000 [cal/(mol K)]        0.002 [J/(mol K)]       0.00000078 [mEh/K]
  Total S                  47.197 [cal/(mol K)]      197.472 [J/(mol K)]       0.07521300 [mEh/K]
  Correction S              0.000 [cal/(mol K)]        0.000 [J/(mol K)]       0.00000000 [mEh/K]

  Constant volume heat capacity, Cv
    Electronic Cv           0.000 [cal/(mol K)]        0.000 [J/(mol K)]       0.00000000 [mEh/K]
    Translational Cv        2.981 [cal/(mol K)]       12.472 [J/(mol K)]       0.00475022 [mEh/K]
    Rotational Cv           1.987 [cal/(mol K)]        8.314 [J/(mol K)]       0.00316681 [mEh/K]
    Vibrational Cv          0.005 [cal/(mol K)]        0.020 [J/(mol K)]       0.00000765 [mEh/K]
  Total Cv                  4.973 [cal/(mol K)]       20.806 [J/(mol K)]       0.00792468 [mEh/K]
  Correction Cv             0.000 [cal/(mol K)]        0.000 [J/(mol K)]       0.00000000 [mEh/K]

  Constant pressure heat capacity, Cp
    Electronic Cp           0.000 [cal/(mol K)]        0.000 [J/(mol K)]       0.00000000 [mEh/K]
    Translational Cp        4.968 [cal/(mol K)]       20.786 [J/(mol K)]       0.00791703 [mEh/K]
    Rotational Cp           1.987 [cal/(mol K)]        8.314 [J/(mol K)]       0.00316681 [mEh/K]
    Vibrational Cp          0.005 [cal/(mol K)]        0.020 [J/(mol K)]       0.00000765 [mEh/K]
  Total Cp                  6.960 [cal/(mol K)]       29.121 [J/(mol K)]       0.01109149 [mEh/K]
  Correction Cp             0.000 [cal/(mol K)]        0.000 [J/(mol K)]       0.00000000 [mEh/K]

  ==> Thermochemistry Energy Analysis <==

  Raw electronic energy, E0
  Total E0, Electronic energy at well bottom at 0 [K]                 -113.32151280 [Eh]

  Zero-point energy, ZPE_vib = Sum_i nu_i / 2
    Electronic ZPE          0.000 [kcal/mol]        0.000 [kJ/mol]       0.00000000 [Eh]
    Translational ZPE       0.000 [kcal/mol]        0.000 [kJ/mol]       0.00000000 [Eh]
    Rotational ZPE          0.000 [kcal/mol]        0.000 [kJ/mol]       0.00000000 [Eh]
    Vibrational ZPE         3.194 [kcal/mol]       13.363 [kJ/mol]       0.00508955 [Eh]        1117.027 [cm^-1]
  Correction ZPE            3.194 [kcal/mol]       13.363 [kJ/mol]       0.00508955 [Eh]        1117.027 [cm^-1]
  Total ZPE, Electronic energy at 0 [K]                               -113.31642325 [Eh]

  Thermal Energy, E (includes ZPE)
    Electronic E            0.000 [kcal/mol]        0.000 [kJ/mol]       0.00000000 [Eh]
    Translational E         0.889 [kcal/mol]        3.718 [kJ/mol]       0.00141628 [Eh]
    Rotational E            0.592 [kcal/mol]        2.479 [kJ/mol]       0.00094418 [Eh]
    Vibrational E           3.194 [kcal/mol]       13.363 [kJ/mol]       0.00508976 [Eh]
  Correction E              4.675 [kcal/mol]       19.561 [kJ/mol]       0.00745022 [Eh]
  Total E, Electronic energy at  298.15 [K]                           -113.31406258 [Eh]

  Enthalpy, H_trans = E_trans + k_B * T
    Electronic H            0.000 [kcal/mol]        0.000 [kJ/mol]       0.00000000 [Eh]
    Translational H         1.481 [kcal/mol]        6.197 [kJ/mol]       0.00236046 [Eh]
    Rotational H            0.592 [kcal/mol]        2.479 [kJ/mol]       0.00094418 [Eh]
    Vibrational H           3.194 [kcal/mol]       13.363 [kJ/mol]       0.00508976 [Eh]
  Correction H              5.268 [kcal/mol]       22.040 [kJ/mol]       0.00839441 [Eh]
  Total H, Enthalpy at  298.15 [K]                                    -113.31311839 [Eh]

  Gibbs free energy, G = H - T * S
    Electronic G            0.000 [kcal/mol]        0.000 [kJ/mol]       0.00000000 [Eh]
    Translational G        -9.229 [kcal/mol]      -38.615 [kJ/mol]      -0.01470771 [Eh]
    Rotational G           -2.769 [kcal/mol]      -11.584 [kJ/mol]      -0.00441217 [Eh]
    Vibrational G           3.194 [kcal/mol]       13.363 [kJ/mol]       0.00508953 [Eh]
  Correction G             -8.804 [kcal/mol]      -36.837 [kJ/mol]      -0.01403035 [Eh]
  Total G, Free enthalpy at  298.15 [K]                               -113.33554315 [Eh]

    Psi4 stopped on: Tuesday, 27 April 2021 05:21PM
    Psi4 wall time for execution: 0:00:33.01

*** Psi4 exiting successfully. Buy a developer a beer!
