
    -----------------------------------------------------------------------
          Psi4: An Open-Source Ab Initio Electronic Structure Package
                               Psi4 1.3.2 release

                         Git: Rev {HEAD} ecbda83 


    R. M. Parrish, L. A. Burns, D. G. A. Smith, A. C. Simmonett,
    A. E. DePrince III, E. G. Hohenstein, U. Bozkaya, A. Yu. Sokolov,
    R. Di Remigio, R. M. Richard, J. F. Gonthier, A. M. James,
    H. R. McAlexander, A. Kumar, M. Saitow, X. Wang, B. P. Pritchard,
    P. Verma, H. F. Schaefer III, K. Patkowski, R. A. King, E. F. Valeev,
    F. A. Evangelista, J. M. Turney, T. D. Crawford, and C. D. Sherrill,
    J. Chem. Theory Comput. 13(7) pp 3185--3197 (2017).
    (doi: 10.1021/acs.jctc.7b00174)


                         Additional Contributions by
    P. Kraus, H. Kruse, M. H. Lechner, M. C. Schieber, R. A. Shaw,
    A. Alenaizan, R. Galvelis, Z. L. Glick, S. Lehtola, and J. P. Misiewicz

    -----------------------------------------------------------------------


    Psi4 started on: Tuesday, 27 April 2021 05:22PM

    Process ID: 139962
    Host:       bp1-compute00113.data.bp.acrc.priv
    PSIDATADIR: /work/zw18965/.conda/envs/p4env/share/psi4
    Memory:     500.0 MiB
    Threads:    24
    
  ==> Input File <==

--------------------------------------------------------------------------
memory 144 GB

molecule {
0 1
F 0.0000000000 0.0000000000 0.0000000000
F 0.0000000000 0.0000000000 1.4129000000
}

set dynamic_level 1
set basis aug-cc-pV(T+d)Z
 
optimize("wB97X-V")
frequencies("wB97X-V")
--------------------------------------------------------------------------

  Memory set to 134.110 GiB by Python driver.
gradient() will perform gradient computation by finite difference of analytic energies.

         ----------------------------------------------------------
                                   FINDIF
                     R. A. King and Jonathon Misiewicz
         ---------------------------------------------------------

  Using finite-differences of energies to determine gradients.
    Generating geometries for use with 3-point formula.
    Displacement size will be 5.00e-03.
    Number of atoms is 2.
    Number of symmetric SALCs is 1.
    Translations projected? 1. Rotations projected? 1.
    Number of geometries (including reference) is 3.

  //>>>>>>>>>>>>>>>>>>>>>>>>>>>>>>>>>>>//
  //    Loading displacement 1 of 3    //
  //<<<<<<<<<<<<<<<<<<<<<<<<<<<<<<<<<<<//

*** tstart() called on bp1-compute00113.data.bp.acrc.priv
*** at Tue Apr 27 17:22:19 2021

   => Loading Basis Set <=

    Name: AUG-CC-PV(T+D)Z
    Role: ORBITAL
    Keyword: BASIS
    atoms 1-2 entry F          line   393 file /work/zw18965/.conda/envs/p4env/share/psi4/basis/aug-cc-pv_tpd_z.gbs 


         ---------------------------------------------------------
                                   SCF
               by Justin Turney, Rob Parrish, Andy Simmonett
                          and Daniel G. A. Smith
                              RKS Reference
                       24 Threads, 137329 MiB Core
         ---------------------------------------------------------

  ==> Geometry <==

    Molecular point group: d2h
    Full point group: D_inf_h

    Geometry (in Angstrom), charge = 0, multiplicity = 1:

       Center              X                  Y                   Z               Mass       
    ------------   -----------------  -----------------  -----------------  -----------------
         F            0.000000000000     0.000000000000    -0.706450000000    18.998403162730
         F            0.000000000000     0.000000000000     0.706450000000    18.998403162730

  Running in d2h symmetry.

  Rotational constants: A = ************  B =      0.88897  C =      0.88897 [cm^-1]
  Rotational constants: A = ************  B =  26650.61560  C =  26650.61560 [MHz]
  Nuclear repulsion =   30.337146340342564

  Charge       = 0
  Multiplicity = 1
  Electrons    = 18
  Nalpha       = 9
  Nbeta        = 9

  ==> Algorithm <==

  SCF Algorithm Type is DF.
  DIIS enabled.
  MOM disabled.
  Fractional occupation disabled.
  Guess Type is SAD.
  Energy threshold   = 1.00e-08
  Density threshold  = 1.00e-08
  Integral threshold = 0.00e+00

  ==> Primary Basis <==

  Basis Set: AUG-CC-PV(T+D)Z
    Blend: AUG-CC-PV(T+D)Z
    Number of shells: 28
    Number of basis function: 92
    Number of Cartesian functions: 110
    Spherical Harmonics?: true
    Max angular momentum: 3

  ==> DFT Potential <==

   => Composite Functional: WB97X-V <= 

    wB97X-V Hyb-GGA Exchange-Correlation Functional

    N. Mardirossian and M. Head-Gordon, Phys. Chem. Chem. Phys. 16, 9904 (2014)

    Deriv               =              1
    GGA                 =           TRUE
    Meta                =          FALSE

    Exchange Hybrid     =           TRUE
    MP2 Hybrid          =          FALSE

   => Exchange-Correlation Functionals <=

    1.0000   wB97X-V range-separated functional

   => Exact (HF) Exchange <=

    0.8330            HF,LR [omega = 0.3000]
    0.1670               HF 

   => VV10 Non-Local Parameters <=

    VV10 B              =     6.0000E+00
    VV10 C              =     1.0000E-02

   => Molecular Quadrature <=

    Radial Scheme          =       TREUTLER
    Pruning Scheme         =           FLAT
    Nuclear Scheme         =       TREUTLER

    BS radius alpha        =              1
    Pruning alpha          =              1
    Radial Points          =             75
    Spherical Points       =            302
    Total Points           =          44722
    Total Blocks           =            410
    Max Points             =            255
    Max Functions          =             92

   => Loading Basis Set <=

    Name: (AUG-CC-PV(T+D)Z AUX)
    Role: JKFIT
    Keyword: DF_BASIS_SCF
    atoms 1-2 entry F          line   348 file /work/zw18965/.conda/envs/p4env/share/psi4/basis/aug-cc-pvtz-jkfit.gbs 

  ==> Pre-Iterations <==

   -------------------------------------------------------
    Irrep   Nso     Nmo     Nalpha   Nbeta   Ndocc  Nsocc
   -------------------------------------------------------
     Ag        19      19       0       0       0       0
     B1g        5       5       0       0       0       0
     B2g       11      11       0       0       0       0
     B3g       11      11       0       0       0       0
     Au         5       5       0       0       0       0
     B1u       19      19       0       0       0       0
     B2u       11      11       0       0       0       0
     B3u       11      11       0       0       0       0
   -------------------------------------------------------
    Total      92      92       9       9       9       0
   -------------------------------------------------------

  ==> Integral Setup <==

  ==> DiskDFJK: Density-Fitted J/K Matrices <==

    J tasked:                  Yes
    K tasked:                  Yes
    wK tasked:                 Yes
    Omega:               3.000E-01
    OpenMP threads:             24
    Integrals threads:          24
    Memory [MiB]:           102886
    Algorithm:                Core
    Integral Cache:           NONE
    Schwarz Cutoff:          1E-12
    Fitting Condition:       1E-10

   => Auxiliary Basis Set <=

  Basis Set: (AUG-CC-PV(T+D)Z AUX)
    Blend: AUG-CC-PVTZ-JKFIT
    Number of shells: 60
    Number of basis function: 208
    Number of Cartesian functions: 262
    Spherical Harmonics?: true
    Max angular momentum: 4

  Cached 100.0% of DFT collocation blocks in 0.108 [GiB].

  Minimum eigenvalue in the overlap matrix is 8.1746495422E-04.
  Using Symmetric Orthogonalization.

  SCF Guess: Superposition of Atomic Densities via on-the-fly atomic UHF.

  ==> Iterations <==

                           Total Energy        Delta E     RMS |[F,P]|

   @DF-RKS iter SAD:  -199.08989675792236   -1.99090e+02   0.00000e+00 
   @DF-RKS iter   1:  -199.50051089584542   -4.10614e-01   7.07513e-03 DIIS
   @DF-RKS iter   2:  -199.51718245271286   -1.66716e-02   3.08553e-03 DIIS
   @DF-RKS iter   3:  -199.51951580138524   -2.33335e-03   2.44690e-04 DIIS
   @DF-RKS iter   4:  -199.51954691574429   -3.11144e-05   1.33712e-04 DIIS
   @DF-RKS iter   5:  -199.51955253199299   -5.61625e-06   1.87896e-05 DIIS
   @DF-RKS iter   6:  -199.51955269960078   -1.67608e-07   5.80383e-07 DIIS
   @DF-RKS iter   7:  -199.51955269988881   -2.88026e-10   7.59825e-08 DIIS
   @DF-RKS iter   8:  -199.51955269989256   -3.75167e-12   4.89786e-09 DIIS
  Energy and wave function converged.


  ==> Post-Iterations <==

    Orbital Energies [Eh]
    ---------------------

    Doubly Occupied:                                                      

       1Ag   -24.879778     1B1u  -24.879774     2Ag    -1.483732  
       2B1u   -1.242932     3Ag    -0.714246     1B3u   -0.662278  
       1B2u   -0.662278     1B3g   -0.530640     1B2g   -0.530640  

    Virtual:                                                              

       3B1u   -0.052995     4B1u    0.142367     4Ag     0.162126  
       2B3u    0.185297     2B2u    0.185297     2B2g    0.241538  
       2B3g    0.241538     5Ag     0.249013     5B1u    0.409580  
       6Ag     0.716794     1B1g    0.716796     3B2u    0.855094  
       3B3u    0.855094     7Ag     0.891998     6B1u    0.963125  
       7B1u    0.963507     1Au     0.963511     4B3u    0.978258  
       4B2u    0.978258     3B3g    0.989958     3B2g    0.989958  
       8B1u    1.128662     8Ag     1.294172     4B3g    1.382041  
       4B2g    1.382041     9Ag     1.599528     5B3u    2.274499  
       5B2u    2.274499     2B1g    2.412163    10Ag     2.412164  
      11Ag     2.444640     6B2u    2.591920     6B3u    2.591920  
      12Ag     2.652822     3B1g    2.652828     9B1u    2.680424  
       2Au     2.680427    10B1u    2.753395     5B2g    2.817430  
       5B3g    2.817430     6B3g    2.870583     6B2g    2.870583  
      11B1u    3.041729     7B3u    3.180458     7B2u    3.180458  
       3Au     3.365628    12B1u    3.365635    13Ag     3.506095  
      13B1u    3.665756     7B3g    4.009720     7B2g    4.009720  
       8B3u    4.746816     8B2u    4.746816     8B2g    4.919003  
       8B3g    4.919003    14Ag     4.992225    14B1u    6.313319  
      15Ag     8.115501     9B2u    8.282466     9B3u    8.282466  
       4B1g    8.324394    16Ag     8.324398     9B3g    8.397452  
       9B2g    8.397452     4Au     8.533196    15B1u    8.533206  
      10B3u    8.535174    10B2u    8.535174    11B3u    8.656762  
      11B2u    8.656762     5B1g    8.669812    17Ag     8.669827  
      16B1u    8.716227    10B2g    8.763587    10B3g    8.763587  
       5Au     8.787147    17B1u    8.787164    18Ag     9.007402  
      11B2g    9.183415    11B3g    9.183415    18B1u    9.822250  
      19Ag    11.806532    19B1u   14.899768  

    Final Occupation by Irrep:
             Ag   B1g   B2g   B3g    Au   B1u   B2u   B3u 
    DOCC [     3,    0,    1,    1,    0,    2,    1,    1 ]

  @DF-RKS Final Energy:  -199.51955269989256

   => Energetics <=

    Nuclear Repulsion Energy =             30.3371463403425636
    One-Electron Energy =                -338.4166258322512135
    Two-Electron Energy =                 123.4793862701285434
    DFT Exchange-Correlation Energy =     -14.9965198278566412
    Empirical Dispersion Energy =           0.0000000000000000
    VV10 Nonlocal Energy =                  0.0770603497442190
    Total Energy =                       -199.5195526998925573

Computation Completed


Properties will be evaluated at   0.000000,   0.000000,   0.000000 [a0]

Properties computed using the SCF density matrix

  Nuclear Dipole Moment: [e a0]
     X:     0.0000      Y:     0.0000      Z:     0.0000

  Electronic Dipole Moment: [e a0]
     X:     0.0000      Y:     0.0000      Z:     0.0000

  Dipole Moment: [e a0]
     X:     0.0000      Y:     0.0000      Z:     0.0000     Total:     0.0000

  Dipole Moment: [D]
     X:     0.0000      Y:     0.0000      Z:     0.0000     Total:     0.0000


*** tstop() called on bp1-compute00113.data.bp.acrc.priv at Tue Apr 27 17:22:22 2021
Module time:
	user time   =      47.02 seconds =       0.78 minutes
	system time =       2.29 seconds =       0.04 minutes
	total time  =          3 seconds =       0.05 minutes
Total time:
	user time   =      47.02 seconds =       0.78 minutes
	system time =       2.29 seconds =       0.04 minutes
	total time  =          3 seconds =       0.05 minutes

  //>>>>>>>>>>>>>>>>>>>>>>>>>>>>>>>>>>>//
  //    Loading displacement 2 of 3    //
  //<<<<<<<<<<<<<<<<<<<<<<<<<<<<<<<<<<<//

*** tstart() called on bp1-compute00113.data.bp.acrc.priv
*** at Tue Apr 27 17:22:22 2021

   => Loading Basis Set <=

    Name: AUG-CC-PV(T+D)Z
    Role: ORBITAL
    Keyword: BASIS
    atoms 1-2 entry F          line   393 file /work/zw18965/.conda/envs/p4env/share/psi4/basis/aug-cc-pv_tpd_z.gbs 


         ---------------------------------------------------------
                                   SCF
               by Justin Turney, Rob Parrish, Andy Simmonett
                          and Daniel G. A. Smith
                              RKS Reference
                       24 Threads, 137329 MiB Core
         ---------------------------------------------------------

  ==> Geometry <==

    Molecular point group: d2h
    Full point group: D_inf_h

    Geometry (in Angstrom), charge = 0, multiplicity = 1:

       Center              X                  Y                   Z               Mass       
    ------------   -----------------  -----------------  -----------------  -----------------
         F            0.000000000000     0.000000000000    -0.706879237434    18.998403162730
         F            0.000000000000     0.000000000000     0.706879237434    18.998403162730

  Running in d2h symmetry.

  Rotational constants: A = ************  B =      0.88789  C =      0.88789 [cm^-1]
  Rotational constants: A = ************  B =  26618.25938  C =  26618.25938 [MHz]
  Nuclear repulsion =   30.318724751270118

  Charge       = 0
  Multiplicity = 1
  Electrons    = 18
  Nalpha       = 9
  Nbeta        = 9

  ==> Algorithm <==

  SCF Algorithm Type is DF.
  DIIS enabled.
  MOM disabled.
  Fractional occupation disabled.
  Guess Type is SAD.
  Energy threshold   = 1.00e-08
  Density threshold  = 1.00e-08
  Integral threshold = 0.00e+00

  ==> Primary Basis <==

  Basis Set: AUG-CC-PV(T+D)Z
    Blend: AUG-CC-PV(T+D)Z
    Number of shells: 28
    Number of basis function: 92
    Number of Cartesian functions: 110
    Spherical Harmonics?: true
    Max angular momentum: 3

  ==> DFT Potential <==

   => Composite Functional: WB97X-V <= 

    wB97X-V Hyb-GGA Exchange-Correlation Functional

    N. Mardirossian and M. Head-Gordon, Phys. Chem. Chem. Phys. 16, 9904 (2014)

    Deriv               =              1
    GGA                 =           TRUE
    Meta                =          FALSE

    Exchange Hybrid     =           TRUE
    MP2 Hybrid          =          FALSE

   => Exchange-Correlation Functionals <=

    1.0000   wB97X-V range-separated functional

   => Exact (HF) Exchange <=

    0.8330            HF,LR [omega = 0.3000]
    0.1670               HF 

   => VV10 Non-Local Parameters <=

    VV10 B              =     6.0000E+00
    VV10 C              =     1.0000E-02

   => Molecular Quadrature <=

    Radial Scheme          =       TREUTLER
    Pruning Scheme         =           FLAT
    Nuclear Scheme         =       TREUTLER

    BS radius alpha        =              1
    Pruning alpha          =              1
    Radial Points          =             75
    Spherical Points       =            302
    Total Points           =          44722
    Total Blocks           =            410
    Max Points             =            254
    Max Functions          =             92

   => Loading Basis Set <=

    Name: (AUG-CC-PV(T+D)Z AUX)
    Role: JKFIT
    Keyword: DF_BASIS_SCF
    atoms 1-2 entry F          line   348 file /work/zw18965/.conda/envs/p4env/share/psi4/basis/aug-cc-pvtz-jkfit.gbs 

  ==> Pre-Iterations <==

   -------------------------------------------------------
    Irrep   Nso     Nmo     Nalpha   Nbeta   Ndocc  Nsocc
   -------------------------------------------------------
     Ag        19      19       0       0       0       0
     B1g        5       5       0       0       0       0
     B2g       11      11       0       0       0       0
     B3g       11      11       0       0       0       0
     Au         5       5       0       0       0       0
     B1u       19      19       0       0       0       0
     B2u       11      11       0       0       0       0
     B3u       11      11       0       0       0       0
   -------------------------------------------------------
    Total      92      92       9       9       9       0
   -------------------------------------------------------

  ==> Integral Setup <==

  ==> DiskDFJK: Density-Fitted J/K Matrices <==

    J tasked:                  Yes
    K tasked:                  Yes
    wK tasked:                 Yes
    Omega:               3.000E-01
    OpenMP threads:             24
    Integrals threads:          24
    Memory [MiB]:           102886
    Algorithm:                Core
    Integral Cache:           NONE
    Schwarz Cutoff:          1E-12
    Fitting Condition:       1E-10

   => Auxiliary Basis Set <=

  Basis Set: (AUG-CC-PV(T+D)Z AUX)
    Blend: AUG-CC-PVTZ-JKFIT
    Number of shells: 60
    Number of basis function: 208
    Number of Cartesian functions: 262
    Spherical Harmonics?: true
    Max angular momentum: 4

  Cached 100.0% of DFT collocation blocks in 0.108 [GiB].

  Minimum eigenvalue in the overlap matrix is 8.1972022166E-04.
  Using Symmetric Orthogonalization.

  SCF Guess: Superposition of Atomic Densities via on-the-fly atomic UHF.

  ==> Iterations <==

                           Total Energy        Delta E     RMS |[F,P]|

   @DF-RKS iter SAD:  -199.08876589898668   -1.99089e+02   0.00000e+00 
   @DF-RKS iter   1:  -199.50051412736420   -4.11748e-01   7.06656e-03 DIIS
   @DF-RKS iter   2:  -199.51714600355928   -1.66319e-02   3.08174e-03 DIIS
   @DF-RKS iter   3:  -199.51947428734627   -2.32828e-03   2.44114e-04 DIIS
   @DF-RKS iter   4:  -199.51950530851298   -3.10212e-05   1.33373e-04 DIIS
   @DF-RKS iter   5:  -199.51951089676069   -5.58825e-06   1.88023e-05 DIIS
   @DF-RKS iter   6:  -199.51951106443659   -1.67676e-07   5.80190e-07 DIIS
   @DF-RKS iter   7:  -199.51951106472433   -2.87741e-10   7.59210e-08 DIIS
   @DF-RKS iter   8:  -199.51951106472805   -3.72324e-12   4.90034e-09 DIIS
  Energy and wave function converged.


  ==> Post-Iterations <==

    Orbital Energies [Eh]
    ---------------------

    Doubly Occupied:                                                      

       1Ag   -24.879831     1B1u  -24.879828     2Ag    -1.483331  
       2B1u   -1.243144     3Ag    -0.714059     1B2u   -0.662115  
       1B3u   -0.662115     1B3g   -0.530782     1B2g   -0.530782  

    Virtual:                                                              

       3B1u   -0.053560     4B1u    0.142341     4Ag     0.162123  
       2B3u    0.185302     2B2u    0.185302     2B3g    0.241528  
       2B2g    0.241528     5Ag     0.249028     5B1u    0.409557  
       6Ag     0.716830     1B1g    0.716831     3B3u    0.854836  
       3B2u    0.854836     7Ag     0.892156     6B1u    0.962950  
       7B1u    0.963382     1Au     0.963385     4B3u    0.978263  
       4B2u    0.978263     3B2g    0.989927     3B3g    0.989927  
       8B1u    1.128840     8Ag     1.294616     4B2g    1.381918  
       4B3g    1.381918     9Ag     1.598537     5B3u    2.274545  
       5B2u    2.274545     2B1g    2.412387    10Ag     2.412388  
      11Ag     2.444167     6B3u    2.592170     6B2u    2.592170  
      12Ag     2.652482     3B1g    2.652488     9B1u    2.680293  
       2Au     2.680297    10B1u    2.752527     5B3g    2.817105  
       5B2g    2.817105     6B2g    2.870297     6B3g    2.870297  
      11B1u    3.040736     7B3u    3.179615     7B2u    3.179615  
       3Au     3.364818    12B1u    3.364825    13Ag     3.504515  
      13B1u    3.667165     7B2g    4.009702     7B3g    4.009702  
       8B3u    4.746801     8B2u    4.746801     8B2g    4.917732  
       8B3g    4.917732    14Ag     4.993708    14B1u    6.308728  
      15Ag     8.117031     9B3u    8.282504     9B2u    8.282504  
       4B1g    8.324253    16Ag     8.324257     9B2g    8.397387  
       9B3g    8.397387     4Au     8.533027    15B1u    8.533037  
      10B3u    8.536856    10B2u    8.536856    11B2u    8.656122  
      11B3u    8.656122     5B1g    8.669894    17Ag     8.669909  
      16B1u    8.714963    10B2g    8.762328    10B3g    8.762328  
       5Au     8.786971    17B1u    8.786987    18Ag     9.005975  
      11B3g    9.182572    11B2g    9.182572    18B1u    9.820478  
      19Ag    11.801100    19B1u   14.900264  

    Final Occupation by Irrep:
             Ag   B1g   B2g   B3g    Au   B1u   B2u   B3u 
    DOCC [     3,    0,    1,    1,    0,    2,    1,    1 ]

  @DF-RKS Final Energy:  -199.51951106472805

   => Energetics <=

    Nuclear Repulsion Energy =             30.3187247512701177
    One-Electron Energy =                -338.3805348073751702
    Two-Electron Energy =                 123.4614023007084427
    DFT Exchange-Correlation Energy =     -14.9961649535212711
    Empirical Dispersion Energy =           0.0000000000000000
    VV10 Nonlocal Energy =                  0.0770616441898652
    Total Energy =                       -199.5195110647280217

Computation Completed


Properties will be evaluated at   0.000000,   0.000000,   0.000000 [a0]

Properties computed using the SCF density matrix

  Nuclear Dipole Moment: [e a0]
     X:     0.0000      Y:     0.0000      Z:     0.0000

  Electronic Dipole Moment: [e a0]
     X:     0.0000      Y:     0.0000      Z:     0.0000

  Dipole Moment: [e a0]
     X:     0.0000      Y:     0.0000      Z:     0.0000     Total:     0.0000

  Dipole Moment: [D]
     X:     0.0000      Y:     0.0000      Z:     0.0000     Total:     0.0000


*** tstop() called on bp1-compute00113.data.bp.acrc.priv at Tue Apr 27 17:22:24 2021
Module time:
	user time   =      49.60 seconds =       0.83 minutes
	system time =       2.62 seconds =       0.04 minutes
	total time  =          2 seconds =       0.03 minutes
Total time:
	user time   =      96.75 seconds =       1.61 minutes
	system time =       4.92 seconds =       0.08 minutes
	total time  =          5 seconds =       0.08 minutes

  //>>>>>>>>>>>>>>>>>>>>>>>>>>>>>>>>>>>//
  //    Loading displacement 3 of 3    //
  //<<<<<<<<<<<<<<<<<<<<<<<<<<<<<<<<<<<//

*** tstart() called on bp1-compute00113.data.bp.acrc.priv
*** at Tue Apr 27 17:22:24 2021

   => Loading Basis Set <=

    Name: AUG-CC-PV(T+D)Z
    Role: ORBITAL
    Keyword: BASIS
    atoms 1-2 entry F          line   393 file /work/zw18965/.conda/envs/p4env/share/psi4/basis/aug-cc-pv_tpd_z.gbs 


         ---------------------------------------------------------
                                   SCF
               by Justin Turney, Rob Parrish, Andy Simmonett
                          and Daniel G. A. Smith
                              RKS Reference
                       24 Threads, 137329 MiB Core
         ---------------------------------------------------------

  ==> Geometry <==

    Molecular point group: d2h
    Full point group: D_inf_h

    Geometry (in Angstrom), charge = 0, multiplicity = 1:

       Center              X                  Y                   Z               Mass       
    ------------   -----------------  -----------------  -----------------  -----------------
         F            0.000000000000     0.000000000000    -0.706020762566    18.998403162730
         F            0.000000000000     0.000000000000     0.706020762566    18.998403162730

  Running in d2h symmetry.

  Rotational constants: A = ************  B =      0.89005  C =      0.89005 [cm^-1]
  Rotational constants: A = ************  B =  26683.03085  C =  26683.03085 [MHz]
  Nuclear repulsion =   30.355590328857176

  Charge       = 0
  Multiplicity = 1
  Electrons    = 18
  Nalpha       = 9
  Nbeta        = 9

  ==> Algorithm <==

  SCF Algorithm Type is DF.
  DIIS enabled.
  MOM disabled.
  Fractional occupation disabled.
  Guess Type is SAD.
  Energy threshold   = 1.00e-08
  Density threshold  = 1.00e-08
  Integral threshold = 0.00e+00

  ==> Primary Basis <==

  Basis Set: AUG-CC-PV(T+D)Z
    Blend: AUG-CC-PV(T+D)Z
    Number of shells: 28
    Number of basis function: 92
    Number of Cartesian functions: 110
    Spherical Harmonics?: true
    Max angular momentum: 3

  ==> DFT Potential <==

   => Composite Functional: WB97X-V <= 

    wB97X-V Hyb-GGA Exchange-Correlation Functional

    N. Mardirossian and M. Head-Gordon, Phys. Chem. Chem. Phys. 16, 9904 (2014)

    Deriv               =              1
    GGA                 =           TRUE
    Meta                =          FALSE

    Exchange Hybrid     =           TRUE
    MP2 Hybrid          =          FALSE

   => Exchange-Correlation Functionals <=

    1.0000   wB97X-V range-separated functional

   => Exact (HF) Exchange <=

    0.8330            HF,LR [omega = 0.3000]
    0.1670               HF 

   => VV10 Non-Local Parameters <=

    VV10 B              =     6.0000E+00
    VV10 C              =     1.0000E-02

   => Molecular Quadrature <=

    Radial Scheme          =       TREUTLER
    Pruning Scheme         =           FLAT
    Nuclear Scheme         =       TREUTLER

    BS radius alpha        =              1
    Pruning alpha          =              1
    Radial Points          =             75
    Spherical Points       =            302
    Total Points           =          44722
    Total Blocks           =            410
    Max Points             =            255
    Max Functions          =             92

   => Loading Basis Set <=

    Name: (AUG-CC-PV(T+D)Z AUX)
    Role: JKFIT
    Keyword: DF_BASIS_SCF
    atoms 1-2 entry F          line   348 file /work/zw18965/.conda/envs/p4env/share/psi4/basis/aug-cc-pvtz-jkfit.gbs 

  ==> Pre-Iterations <==

   -------------------------------------------------------
    Irrep   Nso     Nmo     Nalpha   Nbeta   Ndocc  Nsocc
   -------------------------------------------------------
     Ag        19      19       0       0       0       0
     B1g        5       5       0       0       0       0
     B2g       11      11       0       0       0       0
     B3g       11      11       0       0       0       0
     Au         5       5       0       0       0       0
     B1u       19      19       0       0       0       0
     B2u       11      11       0       0       0       0
     B3u       11      11       0       0       0       0
   -------------------------------------------------------
    Total      92      92       9       9       9       0
   -------------------------------------------------------

  ==> Integral Setup <==

  ==> DiskDFJK: Density-Fitted J/K Matrices <==

    J tasked:                  Yes
    K tasked:                  Yes
    wK tasked:                 Yes
    Omega:               3.000E-01
    OpenMP threads:             24
    Integrals threads:          24
    Memory [MiB]:           102886
    Algorithm:                Core
    Integral Cache:           NONE
    Schwarz Cutoff:          1E-12
    Fitting Condition:       1E-10

   => Auxiliary Basis Set <=

  Basis Set: (AUG-CC-PV(T+D)Z AUX)
    Blend: AUG-CC-PVTZ-JKFIT
    Number of shells: 60
    Number of basis function: 208
    Number of Cartesian functions: 262
    Spherical Harmonics?: true
    Max angular momentum: 4

  Cached 100.0% of DFT collocation blocks in 0.108 [GiB].

  Minimum eigenvalue in the overlap matrix is 8.1521679393E-04.
  Using Symmetric Orthogonalization.

  SCF Guess: Superposition of Atomic Densities via on-the-fly atomic UHF.

  ==> Iterations <==

                           Total Energy        Delta E     RMS |[F,P]|

   @DF-RKS iter SAD:  -199.09103091281776   -1.99091e+02   0.00000e+00 
   @DF-RKS iter   1:  -199.50050665325858   -4.09476e-01   7.08371e-03 DIIS
   @DF-RKS iter   2:  -199.51721794953534   -1.67113e-02   3.08933e-03 DIIS
   @DF-RKS iter   3:  -199.51955635985007   -2.33841e-03   2.45264e-04 DIIS
   @DF-RKS iter   4:  -199.51958756743653   -3.12076e-05   1.34051e-04 DIIS
   @DF-RKS iter   5:  -199.51959321172936   -5.64429e-06   1.87769e-05 DIIS
   @DF-RKS iter   6:  -199.51959337926701   -1.67538e-07   5.80582e-07 DIIS
   @DF-RKS iter   7:  -199.51959337955492   -2.87912e-10   7.60437e-08 DIIS
   @DF-RKS iter   8:  -199.51959337955910   -4.17799e-12   4.89537e-09 DIIS
  Energy and wave function converged.


  ==> Post-Iterations <==

    Orbital Energies [Eh]
    ---------------------

    Doubly Occupied:                                                      

       1Ag   -24.879724     1B1u  -24.879721     2Ag    -1.484133  
       2B1u   -1.242719     3Ag    -0.714433     1B3u   -0.662441  
       1B2u   -0.662441     1B2g   -0.530497     1B3g   -0.530497  

    Virtual:                                                              

       3B1u   -0.052430     4B1u    0.142393     4Ag     0.162128  
       2B3u    0.185293     2B2u    0.185293     2B3g    0.241548  
       2B2g    0.241548     5Ag     0.248999     5B1u    0.409604  
       6Ag     0.716759     1B1g    0.716761     3B2u    0.855352  
       3B3u    0.855352     7Ag     0.891841     6B1u    0.963301  
       7B1u    0.963633     1Au     0.963636     4B2u    0.978254  
       4B3u    0.978254     3B2g    0.989989     3B3g    0.989989  
       8B1u    1.128485     8Ag     1.293727     4B2g    1.382163  
       4B3g    1.382163     9Ag     1.600519     5B2u    2.274454  
       5B3u    2.274454     2B1g    2.411939    10Ag     2.411940  
      11Ag     2.445114     6B3u    2.591670     6B2u    2.591670  
      12Ag     2.653163     3B1g    2.653169     9B1u    2.680554  
       2Au     2.680558    10B1u    2.754261     5B2g    2.817756  
       5B3g    2.817756     6B2g    2.870869     6B3g    2.870869  
      11B1u    3.042724     7B3u    3.181301     7B2u    3.181301  
       3Au     3.366438    12B1u    3.366445    13Ag     3.507681  
      13B1u    3.664347     7B2g    4.009732     7B3g    4.009732  
       8B2u    4.746830     8B3u    4.746830     8B3g    4.920282  
       8B2g    4.920282    14Ag     4.990740    14B1u    6.317912  
      15Ag     8.113977     9B3u    8.282427     9B2u    8.282427  
       4B1g    8.324533    16Ag     8.324537     9B2g    8.397516  
       9B3g    8.397516     4Au     8.533367    15B1u    8.533377  
      10B3u    8.533485    10B2u    8.533485    11B2u    8.657401  
      11B3u    8.657401     5B1g    8.669729    17Ag     8.669745  
      16B1u    8.717492    10B2g    8.764853    10B3g    8.764853  
       5Au     8.787323    17B1u    8.787340    18Ag     9.008833  
      11B3g    9.184258    11B2g    9.184258    18B1u    9.824019  
      19Ag    11.811974    19B1u   14.899270  

    Final Occupation by Irrep:
             Ag   B1g   B2g   B3g    Au   B1u   B2u   B3u 
    DOCC [     3,    0,    1,    1,    0,    2,    1,    1 ]

  @DF-RKS Final Energy:  -199.51959337955910

   => Energetics <=

    Nuclear Repulsion Energy =             30.3555903288571756
    One-Electron Energy =                -338.4527575371801049
    Two-Electron Energy =                 123.4973903085533209
    DFT Exchange-Correlation Energy =     -14.9968755358622303
    Empirical Dispersion Energy =           0.0000000000000000
    VV10 Nonlocal Energy =                  0.0770590560727637
    Total Energy =                       -199.5195933795591259

Computation Completed


Properties will be evaluated at   0.000000,   0.000000,   0.000000 [a0]

Properties computed using the SCF density matrix

  Nuclear Dipole Moment: [e a0]
     X:     0.0000      Y:     0.0000      Z:    -0.0000

  Electronic Dipole Moment: [e a0]
     X:     0.0000      Y:     0.0000      Z:     0.0000

  Dipole Moment: [e a0]
     X:     0.0000      Y:     0.0000      Z:    -0.0000     Total:     0.0000

  Dipole Moment: [D]
     X:     0.0000      Y:     0.0000      Z:    -0.0000     Total:     0.0000


*** tstop() called on bp1-compute00113.data.bp.acrc.priv at Tue Apr 27 17:22:26 2021
Module time:
	user time   =      48.33 seconds =       0.81 minutes
	system time =       1.82 seconds =       0.03 minutes
	total time  =          2 seconds =       0.03 minutes
Total time:
	user time   =     145.22 seconds =       2.42 minutes
	system time =       6.75 seconds =       0.11 minutes
	total time  =          7 seconds =       0.12 minutes

         ----------------------------------------------------------
                                   FINDIF
                     R. A. King and Jonathon Misiewicz
         ---------------------------------------------------------

  Computing gradient from energies.
    Using 3-point formula.
    Energy without displacement: -199.5195526999
    Check energies below for precision!
    Forces are for mass-weighted, symmetry-adapted cartesians (in au).

     Coord      Energy(-1)        Energy(+1)            Force
        0   -199.5195110647   -199.5195933796     -0.0082314831


-------------------------------------------------------------
  ## New Matrix (Symmetry 0) ##
  Irrep: 1 Size: 2 x 3

                 1                   2                   3

    1     0.00000000000000     0.00000000000000    -0.02537006868894
    2     0.00000000000000     0.00000000000000     0.02537006868894




			-----------------------------------------
			 OPTKING 2.0: for geometry optimizations 
			  - R.A. King,  Bethel University        
			-----------------------------------------
	At level 1: Red. Int., RFO, no backsteps, dynamic trust

	Internal coordinates to be generated automatically.
	Detected frag 1 with atoms:  1 2
	---Fragment 1 Bond Connectivity---
	 1 : 2
	 2 : 1

	---Fragment 1 Geometry and Gradient---
	 F           0.0000000000        0.0000000000       -1.3349970213
	 F           0.0000000000        0.0000000000        1.3349970213
	             0.0000000000        0.0000000000       -0.0253700687
	             0.0000000000        0.0000000000        0.0253700687

	Previous optimization step data not found.  Starting new optimization.

	---Fragment 1 Intrafragment Coordinates---
	 - Coordinate -           - BOHR/RAD -       - ANG/DEG -
	 R(1,2)           =         2.669994	       1.412900

	Current energy   :      -199.5195526999

	Generating empirical Hessian (Schlegel '84) for each fragment.
	Taking RFO optimization step.
	Going to follow RFO solution 1.
	Using RFO vector 1.
	Norm of target step-size    0.05806
	Projected energy change by RFO approximation:         0.0002118334

	Back-transformation to cartesian coordinates...
	Successfully converged to displaced geometry.

	--- Internal Coordinate Step in ANG or DEG, aJ/ANG or AJ/DEG ---
	 ---------------------------------------------------------------------------
	   Coordinate                Previous        Force       Change         New 
	   ----------                --------       ------       ------       ------
	    1 R(1,2)          =      1.412900    -0.209017    -0.030725     1.382175
	 ---------------------------------------------------------------------------
	Successfully symmetrized geometry.

  ==> Convergence Check <==

  Measures of convergence in internal coordinates in au.
  Criteria marked as inactive (o), active & met (*), and active & unmet ( ).
  --------------------------------------------------------------------------------------------- ~
   Step     Total Energy     Delta E     MAX Force     RMS Force      MAX Disp      RMS Disp    ~
  --------------------------------------------------------------------------------------------- ~
    Convergence Criteria    1.00e-06 *    3.00e-04 *             o    1.20e-03 *             o  ~
  --------------------------------------------------------------------------------------------- ~
      1    -199.51955270   -2.00e+02      2.54e-02      2.54e-02 o    5.81e-02      5.81e-02 o  ~
  ---------------------------------------------------------------------------------------------

	Writing optimization data to binary file.
	Structure for next step:
	Cartesian Geometry (in Angstrom)
	    F     0.0000000000   0.0000000000  -0.6910875627
	    F     0.0000000000   0.0000000000   0.6910875627
			--------------------------
			 OPTKING Finished Execution 
			--------------------------

    Structure for next step:
    Molecular point group: d2h
    Full point group: D_inf_h

    Geometry (in Angstrom), charge = 0, multiplicity = 1:

    F            0.000000000000     0.000000000000    -0.691087565459
    F            0.000000000000     0.000000000000     0.691087565459

gradient() will perform gradient computation by finite difference of analytic energies.

         ----------------------------------------------------------
                                   FINDIF
                     R. A. King and Jonathon Misiewicz
         ---------------------------------------------------------

  Using finite-differences of energies to determine gradients.
    Generating geometries for use with 3-point formula.
    Displacement size will be 5.00e-03.
    Number of atoms is 2.
    Number of symmetric SALCs is 1.
    Translations projected? 1. Rotations projected? 1.
    Number of geometries (including reference) is 3.

  //>>>>>>>>>>>>>>>>>>>>>>>>>>>>>>>>>>>//
  //    Loading displacement 1 of 3    //
  //<<<<<<<<<<<<<<<<<<<<<<<<<<<<<<<<<<<//

*** tstart() called on bp1-compute00113.data.bp.acrc.priv
*** at Tue Apr 27 17:22:26 2021

   => Loading Basis Set <=

    Name: AUG-CC-PV(T+D)Z
    Role: ORBITAL
    Keyword: BASIS
    atoms 1-2 entry F          line   393 file /work/zw18965/.conda/envs/p4env/share/psi4/basis/aug-cc-pv_tpd_z.gbs 


         ---------------------------------------------------------
                                   SCF
               by Justin Turney, Rob Parrish, Andy Simmonett
                          and Daniel G. A. Smith
                              RKS Reference
                       24 Threads, 137329 MiB Core
         ---------------------------------------------------------

  ==> Geometry <==

    Molecular point group: d2h
    Full point group: D_inf_h

    Geometry (in Angstrom), charge = 0, multiplicity = 1:

       Center              X                  Y                   Z               Mass       
    ------------   -----------------  -----------------  -----------------  -----------------
         F            0.000000000000     0.000000000000    -0.691087565459    18.998403162730
         F            0.000000000000     0.000000000000     0.691087565459    18.998403162730

  Running in d2h symmetry.

  Rotational constants: A = ************  B =      0.92893  C =      0.92893 [cm^-1]
  Rotational constants: A = ************  B =  27848.63713  C =  27848.63713 [MHz]
  Nuclear repulsion =   31.011521698983962

  Charge       = 0
  Multiplicity = 1
  Electrons    = 18
  Nalpha       = 9
  Nbeta        = 9

  ==> Algorithm <==

  SCF Algorithm Type is DF.
  DIIS enabled.
  MOM disabled.
  Fractional occupation disabled.
  Guess Type is READ.
  Energy threshold   = 1.00e-08
  Density threshold  = 1.00e-08
  Integral threshold = 0.00e+00

  ==> Primary Basis <==

  Basis Set: AUG-CC-PV(T+D)Z
    Blend: AUG-CC-PV(T+D)Z
    Number of shells: 28
    Number of basis function: 92
    Number of Cartesian functions: 110
    Spherical Harmonics?: true
    Max angular momentum: 3

  ==> DFT Potential <==

   => Composite Functional: WB97X-V <= 

    wB97X-V Hyb-GGA Exchange-Correlation Functional

    N. Mardirossian and M. Head-Gordon, Phys. Chem. Chem. Phys. 16, 9904 (2014)

    Deriv               =              1
    GGA                 =           TRUE
    Meta                =          FALSE

    Exchange Hybrid     =           TRUE
    MP2 Hybrid          =          FALSE

   => Exchange-Correlation Functionals <=

    1.0000   wB97X-V range-separated functional

   => Exact (HF) Exchange <=

    0.8330            HF,LR [omega = 0.3000]
    0.1670               HF 

   => VV10 Non-Local Parameters <=

    VV10 B              =     6.0000E+00
    VV10 C              =     1.0000E-02

   => Molecular Quadrature <=

    Radial Scheme          =       TREUTLER
    Pruning Scheme         =           FLAT
    Nuclear Scheme         =       TREUTLER

    BS radius alpha        =              1
    Pruning alpha          =              1
    Radial Points          =             75
    Spherical Points       =            302
    Total Points           =          44722
    Total Blocks           =            412
    Max Points             =            254
    Max Functions          =             92

   => Loading Basis Set <=

    Name: (AUG-CC-PV(T+D)Z AUX)
    Role: JKFIT
    Keyword: DF_BASIS_SCF
    atoms 1-2 entry F          line   348 file /work/zw18965/.conda/envs/p4env/share/psi4/basis/aug-cc-pvtz-jkfit.gbs 

   => Loading Basis Set <=

    Name: AUG-CC-PV(T+D)Z
    Role: ORBITAL
    Keyword: BASIS
    atoms 1-2 entry F          line   393 file /work/zw18965/.conda/envs/p4env/share/psi4/basis/aug-cc-pv_tpd_z.gbs 

  Reading orbitals from file 180, no projection.

  ==> Pre-Iterations <==

   -------------------------------------------------------
    Irrep   Nso     Nmo     Nalpha   Nbeta   Ndocc  Nsocc
   -------------------------------------------------------
     Ag        19      19       0       0       0       0
     B1g        5       5       0       0       0       0
     B2g       11      11       0       0       0       0
     B3g       11      11       0       0       0       0
     Au         5       5       0       0       0       0
     B1u       19      19       0       0       0       0
     B2u       11      11       0       0       0       0
     B3u       11      11       0       0       0       0
   -------------------------------------------------------
    Total      92      92       9       9       9       0
   -------------------------------------------------------

  ==> Integral Setup <==

  ==> DiskDFJK: Density-Fitted J/K Matrices <==

    J tasked:                  Yes
    K tasked:                  Yes
    wK tasked:                 Yes
    Omega:               3.000E-01
    OpenMP threads:             24
    Integrals threads:          24
    Memory [MiB]:           102886
    Algorithm:                Core
    Integral Cache:           NONE
    Schwarz Cutoff:          1E-12
    Fitting Condition:       1E-10

   => Auxiliary Basis Set <=

  Basis Set: (AUG-CC-PV(T+D)Z AUX)
    Blend: AUG-CC-PVTZ-JKFIT
    Number of shells: 60
    Number of basis function: 208
    Number of Cartesian functions: 262
    Spherical Harmonics?: true
    Max angular momentum: 4

  Cached 100.0% of DFT collocation blocks in 0.108 [GiB].

  Minimum eigenvalue in the overlap matrix is 7.4121907155E-04.
  Using Symmetric Orthogonalization.

  SCF Guess: Orbitals guess was supplied from a previous computation.

  ==> Iterations <==

                           Total Energy        Delta E     RMS |[F,P]|

   @DF-RKS iter   0:  -199.53447606227371   -1.99534e+02   1.94174e-03 
   @DF-RKS iter   1:  -199.52029241606729    1.41836e-02   5.22412e-04 DIIS
   @DF-RKS iter   2:  -199.52036076401762   -6.83480e-05   2.15570e-04 DIIS
   @DF-RKS iter   3:  -199.52037265712715   -1.18931e-05   1.86296e-05 DIIS
   @DF-RKS iter   4:  -199.52037281692125   -1.59794e-07   8.35505e-06 DIIS
   @DF-RKS iter   5:  -199.52037284547615   -2.85549e-08   7.47519e-07 DIIS
   @DF-RKS iter   6:  -199.52037284579831   -3.22160e-10   4.18422e-08 DIIS
   @DF-RKS iter   7:  -199.52037284580078   -2.47269e-12   6.13045e-09 DIIS
  Energy and wave function converged.


  ==> Post-Iterations <==

    Orbital Energies [Eh]
    ---------------------

    Doubly Occupied:                                                      

       1Ag   -24.877786     1B1u  -24.877781     2Ag    -1.498843  
       2B1u   -1.235059     3Ag    -0.720961     1B3u   -0.668399  
       1B2u   -0.668399     1B2g   -0.525336     1B3g   -0.525336  

    Virtual:                                                              

       3B1u   -0.032007     4B1u    0.143518     4Ag     0.162218  
       2B2u    0.185102     2B3u    0.185102     2B2g    0.241906  
       2B3g    0.241906     5Ag     0.248490     5B1u    0.410462  
       6Ag     0.715556     1B1g    0.715557     3B3u    0.864382  
       3B2u    0.864382     7Ag     0.886244     6B1u    0.968021  
       1Au     0.968024     7B1u    0.969587     4B2u    0.978117  
       4B3u    0.978117     3B3g    0.991165     3B2g    0.991165  
       8B1u    1.122629     8Ag     1.277745     4B2g    1.385991  
       4B3g    1.385991     9Ag     1.634771     5B2u    2.273274  
       5B3u    2.273274    10Ag     2.404114     2B1g    2.404115  
      11Ag     2.462243     6B2u    2.582923     6B3u    2.582923  
      12Ag     2.665565     3B1g    2.665571     9B1u    2.685175  
       2Au     2.685178    10B1u    2.783881     5B3g    2.829523  
       5B2g    2.829523     6B3g    2.881021     6B2g    2.881021  
      11B1u    3.078346     7B2u    3.210585     7B3u    3.210585  
       3Au     3.394865    12B1u    3.394868    13Ag     3.566939  
      13B1u    3.615220     7B3g    4.006294     7B2g    4.006294  
       8B3u    4.747044     8B2u    4.747044    14Ag     4.937890  
       8B2g    4.969917     8B3g    4.969917    14B1u    6.478177  
      15Ag     8.064708     9B3u    8.281059     9B2u    8.281059  
       4B1g    8.327479    16Ag     8.327482     9B2g    8.399729  
       9B3g    8.399729    10B2u    8.470072    10B3u    8.470072  
       4Au     8.540665    15B1u    8.540673     5B1g    8.666897  
      17Ag     8.666920    11B2u    8.679474    11B3u    8.679474  
      16B1u    8.761654     5Au     8.793637    17B1u    8.793660  
      10B3g    8.813320    10B2g    8.813320    18Ag     9.061203  
      11B2g    9.213910    11B3g    9.213910    18B1u    9.883332  
      19Ag    12.007441    19B1u   14.881492  

    Final Occupation by Irrep:
             Ag   B1g   B2g   B3g    Au   B1u   B2u   B3u 
    DOCC [     3,    0,    1,    1,    0,    2,    1,    1 ]

  @DF-RKS Final Energy:  -199.52037284580078

   => Energetics <=

    Nuclear Repulsion Energy =             31.0115216989839624
    One-Electron Energy =                -339.7356015933476669
    Two-Electron Energy =                 124.1364754164901285
    DFT Exchange-Correlation Energy =     -15.0097829265888763
    Empirical Dispersion Energy =           0.0000000000000000
    VV10 Nonlocal Energy =                  0.0770145586616625
    Total Energy =                       -199.5203728458007788

Computation Completed


Properties will be evaluated at   0.000000,   0.000000,   0.000000 [a0]

Properties computed using the SCF density matrix

  Nuclear Dipole Moment: [e a0]
     X:     0.0000      Y:     0.0000      Z:    -0.0000

  Electronic Dipole Moment: [e a0]
     X:     0.0000      Y:     0.0000      Z:     0.0000

  Dipole Moment: [e a0]
     X:     0.0000      Y:     0.0000      Z:    -0.0000     Total:     0.0000

  Dipole Moment: [D]
     X:     0.0000      Y:     0.0000      Z:    -0.0000     Total:     0.0000


*** tstop() called on bp1-compute00113.data.bp.acrc.priv at Tue Apr 27 17:22:28 2021
Module time:
	user time   =      40.77 seconds =       0.68 minutes
	system time =       1.73 seconds =       0.03 minutes
	total time  =          2 seconds =       0.03 minutes
Total time:
	user time   =     186.32 seconds =       3.11 minutes
	system time =       8.49 seconds =       0.14 minutes
	total time  =          9 seconds =       0.15 minutes

  //>>>>>>>>>>>>>>>>>>>>>>>>>>>>>>>>>>>//
  //    Loading displacement 2 of 3    //
  //<<<<<<<<<<<<<<<<<<<<<<<<<<<<<<<<<<<//

*** tstart() called on bp1-compute00113.data.bp.acrc.priv
*** at Tue Apr 27 17:22:28 2021

   => Loading Basis Set <=

    Name: AUG-CC-PV(T+D)Z
    Role: ORBITAL
    Keyword: BASIS
    atoms 1-2 entry F          line   393 file /work/zw18965/.conda/envs/p4env/share/psi4/basis/aug-cc-pv_tpd_z.gbs 


         ---------------------------------------------------------
                                   SCF
               by Justin Turney, Rob Parrish, Andy Simmonett
                          and Daniel G. A. Smith
                              RKS Reference
                       24 Threads, 137329 MiB Core
         ---------------------------------------------------------

  ==> Geometry <==

    Molecular point group: d2h
    Full point group: D_inf_h

    Geometry (in Angstrom), charge = 0, multiplicity = 1:

       Center              X                  Y                   Z               Mass       
    ------------   -----------------  -----------------  -----------------  -----------------
         F            0.000000000000     0.000000000000    -0.691516802893    18.998403162730
         F            0.000000000000     0.000000000000     0.691516802893    18.998403162730

  Running in d2h symmetry.

  Rotational constants: A = ************  B =      0.92778  C =      0.92778 [cm^-1]
  Rotational constants: A = ************  B =  27814.07552  C =  27814.07552 [MHz]
  Nuclear repulsion =   30.992272266535831

  Charge       = 0
  Multiplicity = 1
  Electrons    = 18
  Nalpha       = 9
  Nbeta        = 9

  ==> Algorithm <==

  SCF Algorithm Type is DF.
  DIIS enabled.
  MOM disabled.
  Fractional occupation disabled.
  Guess Type is READ.
  Energy threshold   = 1.00e-08
  Density threshold  = 1.00e-08
  Integral threshold = 0.00e+00

  ==> Primary Basis <==

  Basis Set: AUG-CC-PV(T+D)Z
    Blend: AUG-CC-PV(T+D)Z
    Number of shells: 28
    Number of basis function: 92
    Number of Cartesian functions: 110
    Spherical Harmonics?: true
    Max angular momentum: 3

  ==> DFT Potential <==

   => Composite Functional: WB97X-V <= 

    wB97X-V Hyb-GGA Exchange-Correlation Functional

    N. Mardirossian and M. Head-Gordon, Phys. Chem. Chem. Phys. 16, 9904 (2014)

    Deriv               =              1
    GGA                 =           TRUE
    Meta                =          FALSE

    Exchange Hybrid     =           TRUE
    MP2 Hybrid          =          FALSE

   => Exchange-Correlation Functionals <=

    1.0000   wB97X-V range-separated functional

   => Exact (HF) Exchange <=

    0.8330            HF,LR [omega = 0.3000]
    0.1670               HF 

   => VV10 Non-Local Parameters <=

    VV10 B              =     6.0000E+00
    VV10 C              =     1.0000E-02

   => Molecular Quadrature <=

    Radial Scheme          =       TREUTLER
    Pruning Scheme         =           FLAT
    Nuclear Scheme         =       TREUTLER

    BS radius alpha        =              1
    Pruning alpha          =              1
    Radial Points          =             75
    Spherical Points       =            302
    Total Points           =          44722
    Total Blocks           =            412
    Max Points             =            254
    Max Functions          =             92

   => Loading Basis Set <=

    Name: (AUG-CC-PV(T+D)Z AUX)
    Role: JKFIT
    Keyword: DF_BASIS_SCF
    atoms 1-2 entry F          line   348 file /work/zw18965/.conda/envs/p4env/share/psi4/basis/aug-cc-pvtz-jkfit.gbs 

   => Loading Basis Set <=

    Name: AUG-CC-PV(T+D)Z
    Role: ORBITAL
    Keyword: BASIS
    atoms 1-2 entry F          line   393 file /work/zw18965/.conda/envs/p4env/share/psi4/basis/aug-cc-pv_tpd_z.gbs 

  Reading orbitals from file 180, no projection.

  ==> Pre-Iterations <==

   -------------------------------------------------------
    Irrep   Nso     Nmo     Nalpha   Nbeta   Ndocc  Nsocc
   -------------------------------------------------------
     Ag        19      19       0       0       0       0
     B1g        5       5       0       0       0       0
     B2g       11      11       0       0       0       0
     B3g       11      11       0       0       0       0
     Au         5       5       0       0       0       0
     B1u       19      19       0       0       0       0
     B2u       11      11       0       0       0       0
     B3u       11      11       0       0       0       0
   -------------------------------------------------------
    Total      92      92       9       9       9       0
   -------------------------------------------------------

  ==> Integral Setup <==

  ==> DiskDFJK: Density-Fitted J/K Matrices <==

    J tasked:                  Yes
    K tasked:                  Yes
    wK tasked:                 Yes
    Omega:               3.000E-01
    OpenMP threads:             24
    Integrals threads:          24
    Memory [MiB]:           102886
    Algorithm:                Core
    Integral Cache:           NONE
    Schwarz Cutoff:          1E-12
    Fitting Condition:       1E-10

   => Auxiliary Basis Set <=

  Basis Set: (AUG-CC-PV(T+D)Z AUX)
    Blend: AUG-CC-PVTZ-JKFIT
    Number of shells: 60
    Number of basis function: 208
    Number of Cartesian functions: 262
    Spherical Harmonics?: true
    Max angular momentum: 4

  Cached 100.0% of DFT collocation blocks in 0.108 [GiB].

  Minimum eigenvalue in the overlap matrix is 7.4323678769E-04.
  Using Symmetric Orthogonalization.

  SCF Guess: Orbitals guess was supplied from a previous computation.

  ==> Iterations <==

                           Total Energy        Delta E     RMS |[F,P]|

   @DF-RKS iter   0:  -199.51999340814584   -1.99520e+02   5.61010e-05 
   @DF-RKS iter   1:  -199.52036870797988   -3.75300e-04   1.51004e-05 DIIS
   @DF-RKS iter   2:  -199.52036876478573   -5.68058e-08   6.40954e-06 DIIS
   @DF-RKS iter   3:  -199.52036877525492   -1.04692e-08   6.24936e-07 DIIS
   @DF-RKS iter   4:  -199.52036877541894   -1.64022e-10   2.47577e-07 DIIS
   @DF-RKS iter   5:  -199.52036877544518   -2.62332e-11   2.24481e-08 DIIS
   @DF-RKS iter   6:  -199.52036877544543   -2.55795e-13   1.23346e-09 DIIS
  Energy and wave function converged.


  ==> Post-Iterations <==

    Orbital Energies [Eh]
    ---------------------

    Doubly Occupied:                                                      

       1Ag   -24.877843     1B1u  -24.877838     2Ag    -1.498400  
       2B1u   -1.235286     3Ag    -0.720772     1B2u   -0.668220  
       1B3u   -0.668220     1B3g   -0.525490     1B2g   -0.525490  

    Virtual:                                                              

       3B1u   -0.032614     4B1u    0.143479     4Ag     0.162215  
       2B2u    0.185108     2B3u    0.185108     2B2g    0.241895  
       2B3g    0.241895     5Ag     0.248505     5B1u    0.410436  
       6Ag     0.715590     1B1g    0.715591     3B3u    0.864122  
       3B2u    0.864122     7Ag     0.886408     6B1u    0.967894  
       1Au     0.967898     7B1u    0.969402     4B2u    0.978119  
       4B3u    0.978119     3B3g    0.991129     3B2g    0.991129  
       8B1u    1.122789     8Ag     1.278217     4B3g    1.385893  
       4B2g    1.385893     9Ag     1.633794     5B3u    2.273296  
       5B2u    2.273296    10Ag     2.404340     2B1g    2.404341  
      11Ag     2.461733     6B3u    2.583176     6B2u    2.583176  
      12Ag     2.665194     3B1g    2.665200     9B1u    2.685040  
       2Au     2.685043    10B1u    2.783044     5B3g    2.829173  
       5B2g    2.829173     6B2g    2.880723     6B3g    2.880723  
      11B1u    3.077295     7B2u    3.209745     7B3u    3.209745  
       3Au     3.394041    12B1u    3.394044    13Ag     3.565124  
      13B1u    3.616634     7B3g    4.006496     7B2g    4.006496  
       8B2u    4.747046     8B3u    4.747046    14Ag     4.939432  
       8B3g    4.968351     8B2g    4.968351    14B1u    6.473566  
      15Ag     8.066023     9B3u    8.281099     9B2u    8.281099  
       4B1g    8.327449    16Ag     8.327453     9B2g    8.399666  
       9B3g    8.399666    10B2u    8.472015    10B3u    8.472015  
       4Au     8.540415    15B1u    8.540423     5B1g    8.666977  
      17Ag     8.667000    11B2u    8.678844    11B3u    8.678844  
      16B1u    8.760386     5Au     8.793451    17B1u    8.793474  
      10B3g    8.811809    10B2g    8.811809    18Ag     9.059623  
      11B3g    9.213048    11B2g    9.213048    18B1u    9.881699  
      19Ag    12.001651    19B1u   14.881975  

    Final Occupation by Irrep:
             Ag   B1g   B2g   B3g    Au   B1u   B2u   B3u 
    DOCC [     3,    0,    1,    1,    0,    2,    1,    1 ]

  @DF-RKS Final Energy:  -199.52036877544543

   => Energetics <=

    Nuclear Repulsion Energy =             30.9922722665358314
    One-Electron Energy =                -339.6980140415406026
    Two-Electron Energy =                 124.1177543027978061
    DFT Exchange-Correlation Energy =     -15.0093971264369763
    Empirical Dispersion Energy =           0.0000000000000000
    VV10 Nonlocal Energy =                  0.0770158231985097
    Total Energy =                       -199.5203687754454052

Computation Completed


Properties will be evaluated at   0.000000,   0.000000,   0.000000 [a0]

Properties computed using the SCF density matrix

  Nuclear Dipole Moment: [e a0]
     X:     0.0000      Y:     0.0000      Z:     0.0000

  Electronic Dipole Moment: [e a0]
     X:     0.0000      Y:     0.0000      Z:     0.0000

  Dipole Moment: [e a0]
     X:     0.0000      Y:     0.0000      Z:     0.0000     Total:     0.0000

  Dipole Moment: [D]
     X:     0.0000      Y:     0.0000      Z:     0.0000     Total:     0.0000


*** tstop() called on bp1-compute00113.data.bp.acrc.priv at Tue Apr 27 17:22:30 2021
Module time:
	user time   =      39.72 seconds =       0.66 minutes
	system time =       1.60 seconds =       0.03 minutes
	total time  =          2 seconds =       0.03 minutes
Total time:
	user time   =     226.17 seconds =       3.77 minutes
	system time =      10.10 seconds =       0.17 minutes
	total time  =         11 seconds =       0.18 minutes

  //>>>>>>>>>>>>>>>>>>>>>>>>>>>>>>>>>>>//
  //    Loading displacement 3 of 3    //
  //<<<<<<<<<<<<<<<<<<<<<<<<<<<<<<<<<<<//

*** tstart() called on bp1-compute00113.data.bp.acrc.priv
*** at Tue Apr 27 17:22:30 2021

   => Loading Basis Set <=

    Name: AUG-CC-PV(T+D)Z
    Role: ORBITAL
    Keyword: BASIS
    atoms 1-2 entry F          line   393 file /work/zw18965/.conda/envs/p4env/share/psi4/basis/aug-cc-pv_tpd_z.gbs 


         ---------------------------------------------------------
                                   SCF
               by Justin Turney, Rob Parrish, Andy Simmonett
                          and Daniel G. A. Smith
                              RKS Reference
                       24 Threads, 137329 MiB Core
         ---------------------------------------------------------

  ==> Geometry <==

    Molecular point group: d2h
    Full point group: D_inf_h

    Geometry (in Angstrom), charge = 0, multiplicity = 1:

       Center              X                  Y                   Z               Mass       
    ------------   -----------------  -----------------  -----------------  -----------------
         F            0.000000000000     0.000000000000    -0.690658328026    18.998403162730
         F            0.000000000000     0.000000000000     0.690658328026    18.998403162730

  Running in d2h symmetry.

  Rotational constants: A = ************  B =      0.93009  C =      0.93009 [cm^-1]
  Rotational constants: A = ************  B =  27883.26320  C =  27883.26320 [MHz]
  Nuclear repulsion =   31.030795058102193

  Charge       = 0
  Multiplicity = 1
  Electrons    = 18
  Nalpha       = 9
  Nbeta        = 9

  ==> Algorithm <==

  SCF Algorithm Type is DF.
  DIIS enabled.
  MOM disabled.
  Fractional occupation disabled.
  Guess Type is READ.
  Energy threshold   = 1.00e-08
  Density threshold  = 1.00e-08
  Integral threshold = 0.00e+00

  ==> Primary Basis <==

  Basis Set: AUG-CC-PV(T+D)Z
    Blend: AUG-CC-PV(T+D)Z
    Number of shells: 28
    Number of basis function: 92
    Number of Cartesian functions: 110
    Spherical Harmonics?: true
    Max angular momentum: 3

  ==> DFT Potential <==

   => Composite Functional: WB97X-V <= 

    wB97X-V Hyb-GGA Exchange-Correlation Functional

    N. Mardirossian and M. Head-Gordon, Phys. Chem. Chem. Phys. 16, 9904 (2014)

    Deriv               =              1
    GGA                 =           TRUE
    Meta                =          FALSE

    Exchange Hybrid     =           TRUE
    MP2 Hybrid          =          FALSE

   => Exchange-Correlation Functionals <=

    1.0000   wB97X-V range-separated functional

   => Exact (HF) Exchange <=

    0.8330            HF,LR [omega = 0.3000]
    0.1670               HF 

   => VV10 Non-Local Parameters <=

    VV10 B              =     6.0000E+00
    VV10 C              =     1.0000E-02

   => Molecular Quadrature <=

    Radial Scheme          =       TREUTLER
    Pruning Scheme         =           FLAT
    Nuclear Scheme         =       TREUTLER

    BS radius alpha        =              1
    Pruning alpha          =              1
    Radial Points          =             75
    Spherical Points       =            302
    Total Points           =          44722
    Total Blocks           =            412
    Max Points             =            254
    Max Functions          =             92

   => Loading Basis Set <=

    Name: (AUG-CC-PV(T+D)Z AUX)
    Role: JKFIT
    Keyword: DF_BASIS_SCF
    atoms 1-2 entry F          line   348 file /work/zw18965/.conda/envs/p4env/share/psi4/basis/aug-cc-pvtz-jkfit.gbs 

   => Loading Basis Set <=

    Name: AUG-CC-PV(T+D)Z
    Role: ORBITAL
    Keyword: BASIS
    atoms 1-2 entry F          line   393 file /work/zw18965/.conda/envs/p4env/share/psi4/basis/aug-cc-pv_tpd_z.gbs 

  Reading orbitals from file 180, no projection.

  ==> Pre-Iterations <==

   -------------------------------------------------------
    Irrep   Nso     Nmo     Nalpha   Nbeta   Ndocc  Nsocc
   -------------------------------------------------------
     Ag        19      19       0       0       0       0
     B1g        5       5       0       0       0       0
     B2g       11      11       0       0       0       0
     B3g       11      11       0       0       0       0
     Au         5       5       0       0       0       0
     B1u       19      19       0       0       0       0
     B2u       11      11       0       0       0       0
     B3u       11      11       0       0       0       0
   -------------------------------------------------------
    Total      92      92       9       9       9       0
   -------------------------------------------------------

  ==> Integral Setup <==

  ==> DiskDFJK: Density-Fitted J/K Matrices <==

    J tasked:                  Yes
    K tasked:                  Yes
    wK tasked:                 Yes
    Omega:               3.000E-01
    OpenMP threads:             24
    Integrals threads:          24
    Memory [MiB]:           102886
    Algorithm:                Core
    Integral Cache:           NONE
    Schwarz Cutoff:          1E-12
    Fitting Condition:       1E-10

   => Auxiliary Basis Set <=

  Basis Set: (AUG-CC-PV(T+D)Z AUX)
    Blend: AUG-CC-PVTZ-JKFIT
    Number of shells: 60
    Number of basis function: 208
    Number of Cartesian functions: 262
    Spherical Harmonics?: true
    Max angular momentum: 4

  Cached 100.0% of DFT collocation blocks in 0.108 [GiB].

  Minimum eigenvalue in the overlap matrix is 7.3920752188E-04.
  Using Symmetric Orthogonalization.

  SCF Guess: Orbitals guess was supplied from a previous computation.

  ==> Iterations <==

                           Total Energy        Delta E     RMS |[F,P]|

   @DF-RKS iter   0:  -199.52075364723376   -1.99521e+02   5.62472e-05 
   @DF-RKS iter   1:  -199.52037569477568    3.77952e-04   1.51233e-05 DIIS
   @DF-RKS iter   2:  -199.52037575175305   -5.69774e-08   6.41379e-06 DIIS
   @DF-RKS iter   3:  -199.52037576223012   -1.04771e-08   6.24800e-07 DIIS
   @DF-RKS iter   4:  -199.52037576239431   -1.64192e-10   2.47955e-07 DIIS
   @DF-RKS iter   5:  -199.52037576242043   -2.61196e-11   2.24654e-08 DIIS
   @DF-RKS iter   6:  -199.52037576242043    0.00000e+00   1.23365e-09 DIIS
  Energy and wave function converged.


  ==> Post-Iterations <==

    Orbital Energies [Eh]
    ---------------------

    Doubly Occupied:                                                      

       1Ag   -24.877728     1B1u  -24.877723     2Ag    -1.499288  
       2B1u   -1.234832     3Ag    -0.721149     1B2u   -0.668579  
       1B3u   -0.668579     1B3g   -0.525182     1B2g   -0.525182  

    Virtual:                                                              

       3B1u   -0.031399     4B1u    0.143557     4Ag     0.162221  
       2B2u    0.185096     2B3u    0.185096     2B3g    0.241916  
       2B2g    0.241916     5Ag     0.248475     5B1u    0.410487  
       6Ag     0.715522     1B1g    0.715523     3B3u    0.864643  
       3B2u    0.864643     7Ag     0.886080     6B1u    0.968147  
       1Au     0.968151     7B1u    0.969773     4B2u    0.978114  
       4B3u    0.978114     3B3g    0.991202     3B2g    0.991202  
       8B1u    1.122469     8Ag     1.277272     4B3g    1.386088  
       4B2g    1.386088     9Ag     1.635748     5B3u    2.273251  
       5B2u    2.273251    10Ag     2.403888     2B1g    2.403889  
      11Ag     2.462754     6B3u    2.582671     6B2u    2.582671  
      12Ag     2.665938     3B1g    2.665943     9B1u    2.685311  
       2Au     2.685313    10B1u    2.784716     5B3g    2.829875  
       5B2g    2.829875     6B2g    2.881318     6B3g    2.881318  
      11B1u    3.079398     7B3u    3.211425     7B2u    3.211425  
       3Au     3.395689    12B1u    3.395692    13Ag     3.568762  
      13B1u    3.613806     7B3g    4.006086     7B2g    4.006086  
       8B2u    4.747042     8B3u    4.747042    14Ag     4.936347  
       8B2g    4.971492     8B3g    4.971492    14B1u    6.482788  
      15Ag     8.063399     9B3u    8.281018     9B2u    8.281018  
       4B1g    8.327504    16Ag     8.327508     9B2g    8.399792  
       9B3g    8.399792    10B2u    8.468122    10B3u    8.468122  
       4Au     8.540917    15B1u    8.540926     5B1g    8.666818  
      17Ag     8.666840    11B3u    8.680104    11B2u    8.680104  
      16B1u    8.762922     5Au     8.793823    17B1u    8.793847  
      10B3g    8.814838    10B2g    8.814838    18Ag     9.062789  
      11B2g    9.214772    11B3g    9.214772    18B1u    9.884960  
      19Ag    12.013241    19B1u   14.881014  

    Final Occupation by Irrep:
             Ag   B1g   B2g   B3g    Au   B1u   B2u   B3u 
    DOCC [     3,    0,    1,    1,    0,    2,    1,    1 ]

  @DF-RKS Final Energy:  -199.52037576242043

   => Energetics <=

    Nuclear Repulsion Energy =             31.0307950581021927
    One-Electron Energy =                -339.7732318953296158
    Two-Electron Energy =                 124.1552173936030528
    DFT Exchange-Correlation Energy =     -15.0101696138802261
    Empirical Dispersion Energy =           0.0000000000000000
    VV10 Nonlocal Energy =                  0.0770132950841887
    Total Energy =                       -199.5203757624204570

Computation Completed


Properties will be evaluated at   0.000000,   0.000000,   0.000000 [a0]

Properties computed using the SCF density matrix

  Nuclear Dipole Moment: [e a0]
     X:     0.0000      Y:     0.0000      Z:     0.0000

  Electronic Dipole Moment: [e a0]
     X:     0.0000      Y:     0.0000      Z:     0.0000

  Dipole Moment: [e a0]
     X:     0.0000      Y:     0.0000      Z:     0.0000     Total:     0.0000

  Dipole Moment: [D]
     X:     0.0000      Y:     0.0000      Z:     0.0000     Total:     0.0000


*** tstop() called on bp1-compute00113.data.bp.acrc.priv at Tue Apr 27 17:22:31 2021
Module time:
	user time   =      39.22 seconds =       0.65 minutes
	system time =       1.50 seconds =       0.03 minutes
	total time  =          1 seconds =       0.02 minutes
Total time:
	user time   =     265.52 seconds =       4.43 minutes
	system time =      11.61 seconds =       0.19 minutes
	total time  =         12 seconds =       0.20 minutes

         ----------------------------------------------------------
                                   FINDIF
                     R. A. King and Jonathon Misiewicz
         ---------------------------------------------------------

  Computing gradient from energies.
    Using 3-point formula.
    Energy without displacement: -199.5203728458
    Check energies below for precision!
    Forces are for mass-weighted, symmetry-adapted cartesians (in au).

     Coord      Energy(-1)        Energy(+1)            Force
        0   -199.5203687754   -199.5203757624     -0.0006986975


-------------------------------------------------------------
  ## New Matrix (Symmetry 0) ##
  Irrep: 1 Size: 2 x 3

                 1                   2                   3

    1     0.00000000000000     0.00000000000000    -0.00215343982726
    2     0.00000000000000     0.00000000000000     0.00215343982726




			-----------------------------------------
			 OPTKING 2.0: for geometry optimizations 
			  - R.A. King,  Bethel University        
			-----------------------------------------
	At level 1: Red. Int., RFO, no backsteps, dynamic trust

	Previous internal coordinate definitions found.
	---Fragment 1 Geometry and Gradient---
	 F           0.0000000000        0.0000000000       -1.3059662274
	 F           0.0000000000        0.0000000000        1.3059662274
	             0.0000000000        0.0000000000       -0.0021534398
	             0.0000000000        0.0000000000        0.0021534398

	---Fragment 1 Intrafragment Coordinates---
	 - Coordinate -           - BOHR/RAD -       - ANG/DEG -
	 R(1,2)           =         2.611932	       1.382175

	Current energy   :      -199.5203728458

	Energy change for the previous step:
		Projected    :         0.0002118334
		Actual       :        -0.0008201459

	Performing BFGS update.
	Previous computed or guess Hessian on step 1.
	Steps to be used in Hessian update: 1
	Taking RFO optimization step.
	Going to follow RFO solution 1.
	Using RFO vector 1.
	Norm of target step-size    0.00539
	Projected energy change by RFO approximation:         0.0000029037

	Back-transformation to cartesian coordinates...
	Successfully converged to displaced geometry.

	--- Internal Coordinate Step in ANG or DEG, aJ/ANG or AJ/DEG ---
	 ---------------------------------------------------------------------------
	   Coordinate                Previous        Force       Change         New 
	   ----------                --------       ------       ------       ------
	    1 R(1,2)          =      1.382175    -0.017742    -0.002850     1.379325
	 ---------------------------------------------------------------------------
	Successfully symmetrized geometry.

  ==> Convergence Check <==

  Measures of convergence in internal coordinates in au.
  Criteria marked as inactive (o), active & met (*), and active & unmet ( ).
  ---------------------------------------------------------------------------------------------
   Step     Total Energy     Delta E     MAX Force     RMS Force      MAX Disp      RMS Disp   
  ---------------------------------------------------------------------------------------------
    Convergence Criteria    1.00e-06 *    3.00e-04 *             o    1.20e-03 *             o
  ---------------------------------------------------------------------------------------------
      2    -199.52037285   -8.20e-04      2.15e-03      2.15e-03 o    5.39e-03      5.39e-03 o  ~
  ---------------------------------------------------------------------------------------------

	Writing optimization data to binary file.
	Structure for next step:
	Cartesian Geometry (in Angstrom)
	    F     0.0000000000   0.0000000000  -0.6896626738
	    F     0.0000000000   0.0000000000   0.6896626738
			--------------------------
			 OPTKING Finished Execution 
			--------------------------

    Structure for next step:
    Molecular point group: d2h
    Full point group: D_inf_h

    Geometry (in Angstrom), charge = 0, multiplicity = 1:

    F            0.000000000000     0.000000000000    -0.689662676465
    F            0.000000000000     0.000000000000     0.689662676465

gradient() will perform gradient computation by finite difference of analytic energies.

         ----------------------------------------------------------
                                   FINDIF
                     R. A. King and Jonathon Misiewicz
         ---------------------------------------------------------

  Using finite-differences of energies to determine gradients.
    Generating geometries for use with 3-point formula.
    Displacement size will be 5.00e-03.
    Number of atoms is 2.
    Number of symmetric SALCs is 1.
    Translations projected? 1. Rotations projected? 1.
    Number of geometries (including reference) is 3.

  //>>>>>>>>>>>>>>>>>>>>>>>>>>>>>>>>>>>//
  //    Loading displacement 1 of 3    //
  //<<<<<<<<<<<<<<<<<<<<<<<<<<<<<<<<<<<//

*** tstart() called on bp1-compute00113.data.bp.acrc.priv
*** at Tue Apr 27 17:22:32 2021

   => Loading Basis Set <=

    Name: AUG-CC-PV(T+D)Z
    Role: ORBITAL
    Keyword: BASIS
    atoms 1-2 entry F          line   393 file /work/zw18965/.conda/envs/p4env/share/psi4/basis/aug-cc-pv_tpd_z.gbs 


         ---------------------------------------------------------
                                   SCF
               by Justin Turney, Rob Parrish, Andy Simmonett
                          and Daniel G. A. Smith
                              RKS Reference
                       24 Threads, 137329 MiB Core
         ---------------------------------------------------------

  ==> Geometry <==

    Molecular point group: d2h
    Full point group: D_inf_h

    Geometry (in Angstrom), charge = 0, multiplicity = 1:

       Center              X                  Y                   Z               Mass       
    ------------   -----------------  -----------------  -----------------  -----------------
         F            0.000000000000     0.000000000000    -0.689662676465    18.998403162730
         F            0.000000000000     0.000000000000     0.689662676465    18.998403162730

  Running in d2h symmetry.

  Rotational constants: A = ************  B =      0.93277  C =      0.93277 [cm^-1]
  Rotational constants: A = ************  B =  27963.83028  C =  27963.83028 [MHz]
  Nuclear repulsion =   31.075593566986907

  Charge       = 0
  Multiplicity = 1
  Electrons    = 18
  Nalpha       = 9
  Nbeta        = 9

  ==> Algorithm <==

  SCF Algorithm Type is DF.
  DIIS enabled.
  MOM disabled.
  Fractional occupation disabled.
  Guess Type is READ.
  Energy threshold   = 1.00e-08
  Density threshold  = 1.00e-08
  Integral threshold = 0.00e+00

  ==> Primary Basis <==

  Basis Set: AUG-CC-PV(T+D)Z
    Blend: AUG-CC-PV(T+D)Z
    Number of shells: 28
    Number of basis function: 92
    Number of Cartesian functions: 110
    Spherical Harmonics?: true
    Max angular momentum: 3

  ==> DFT Potential <==

   => Composite Functional: WB97X-V <= 

    wB97X-V Hyb-GGA Exchange-Correlation Functional

    N. Mardirossian and M. Head-Gordon, Phys. Chem. Chem. Phys. 16, 9904 (2014)

    Deriv               =              1
    GGA                 =           TRUE
    Meta                =          FALSE

    Exchange Hybrid     =           TRUE
    MP2 Hybrid          =          FALSE

   => Exchange-Correlation Functionals <=

    1.0000   wB97X-V range-separated functional

   => Exact (HF) Exchange <=

    0.8330            HF,LR [omega = 0.3000]
    0.1670               HF 

   => VV10 Non-Local Parameters <=

    VV10 B              =     6.0000E+00
    VV10 C              =     1.0000E-02

   => Molecular Quadrature <=

    Radial Scheme          =       TREUTLER
    Pruning Scheme         =           FLAT
    Nuclear Scheme         =       TREUTLER

    BS radius alpha        =              1
    Pruning alpha          =              1
    Radial Points          =             75
    Spherical Points       =            302
    Total Points           =          44722
    Total Blocks           =            410
    Max Points             =            254
    Max Functions          =             92

   => Loading Basis Set <=

    Name: (AUG-CC-PV(T+D)Z AUX)
    Role: JKFIT
    Keyword: DF_BASIS_SCF
    atoms 1-2 entry F          line   348 file /work/zw18965/.conda/envs/p4env/share/psi4/basis/aug-cc-pvtz-jkfit.gbs 

   => Loading Basis Set <=

    Name: AUG-CC-PV(T+D)Z
    Role: ORBITAL
    Keyword: BASIS
    atoms 1-2 entry F          line   393 file /work/zw18965/.conda/envs/p4env/share/psi4/basis/aug-cc-pv_tpd_z.gbs 

  Reading orbitals from file 180, no projection.

  ==> Pre-Iterations <==

   -------------------------------------------------------
    Irrep   Nso     Nmo     Nalpha   Nbeta   Ndocc  Nsocc
   -------------------------------------------------------
     Ag        19      19       0       0       0       0
     B1g        5       5       0       0       0       0
     B2g       11      11       0       0       0       0
     B3g       11      11       0       0       0       0
     Au         5       5       0       0       0       0
     B1u       19      19       0       0       0       0
     B2u       11      11       0       0       0       0
     B3u       11      11       0       0       0       0
   -------------------------------------------------------
    Total      92      92       9       9       9       0
   -------------------------------------------------------

  ==> Integral Setup <==

  ==> DiskDFJK: Density-Fitted J/K Matrices <==

    J tasked:                  Yes
    K tasked:                  Yes
    wK tasked:                 Yes
    Omega:               3.000E-01
    OpenMP threads:             24
    Integrals threads:          24
    Memory [MiB]:           102885
    Algorithm:                Core
    Integral Cache:           NONE
    Schwarz Cutoff:          1E-12
    Fitting Condition:       1E-10

   => Auxiliary Basis Set <=

  Basis Set: (AUG-CC-PV(T+D)Z AUX)
    Blend: AUG-CC-PVTZ-JKFIT
    Number of shells: 60
    Number of basis function: 208
    Number of Cartesian functions: 262
    Spherical Harmonics?: true
    Max angular momentum: 4

  Cached 100.0% of DFT collocation blocks in 0.108 [GiB].

  Minimum eigenvalue in the overlap matrix is 7.3456517411E-04.
  Using Symmetric Orthogonalization.

  SCF Guess: Orbitals guess was supplied from a previous computation.

  ==> Iterations <==

                           Total Energy        Delta E     RMS |[F,P]|

   @DF-RKS iter   0:  -199.52164221443019   -1.99522e+02   1.87283e-04 
   @DF-RKS iter   1:  -199.52037730552334    1.26491e-03   5.02909e-05 DIIS
   @DF-RKS iter   2:  -199.52037793558415   -6.30061e-07   2.13077e-05 DIIS
   @DF-RKS iter   3:  -199.52037805113989   -1.15556e-07   2.07374e-06 DIIS
   @DF-RKS iter   4:  -199.52037805294870   -1.80881e-09   8.24572e-07 DIIS
   @DF-RKS iter   5:  -199.52037805323656   -2.87855e-10   7.46394e-08 DIIS
   @DF-RKS iter   6:  -199.52037805324008   -3.52429e-12   4.09582e-09 DIIS
  Energy and wave function converged.


  ==> Post-Iterations <==

    Orbital Energies [Eh]
    ---------------------

    Doubly Occupied:                                                      

       1Ag   -24.877594     1B1u  -24.877589     2Ag    -1.500324  
       2B1u   -1.234303     3Ag    -0.721587     1B3u   -0.668998  
       1B2u   -0.668998     1B3g   -0.524823     1B2g   -0.524823  

[...]
       5B3g    2.830340     6B2g    2.881712     6B3g    2.881712  
      11B1u    3.080789     7B3u    3.212534     7B2u    3.212534  
       3Au     3.396777    12B1u    3.396779    13Ag     3.571177  
      13B1u    3.611939     7B2g    4.005802     7B3g    4.005802  
       8B3u    4.747038     8B2u    4.747038    14Ag     4.934310  
       8B2g    4.973583     8B3g    4.973583    14B1u    6.488872  
      15Ag     8.061680     9B3u    8.280965     9B2u    8.280965  
       4B1g    8.327532    16Ag     8.327536     9B2g    8.399876  
       9B3g    8.399876    10B3u    8.465538    10B2u    8.465538  
       4Au     8.541255    15B1u    8.541263     5B1g    8.666713  
      17Ag     8.666736    11B3u    8.680934    11B2u    8.680934  
      16B1u    8.764594     5Au     8.794070    17B1u    8.794094  
      10B3g    8.816852    10B2g    8.816852    18Ag     9.064888  
      11B2g    9.215910    11B3g    9.215910    18B1u    9.887100  
      19Ag    12.020911    19B1u   14.880390  

    Final Occupation by Irrep:
             Ag   B1g   B2g   B3g    Au   B1u   B2u   B3u 
    DOCC [     3,    0,    1,    1,    0,    2,    1,    1 ]

  @DF-RKS Final Energy:  -199.52037783551410

   => Energetics <=

    Nuclear Repulsion Energy =             31.0562645359410752
    One-Electron Energy =                -339.8229545223256878
    Two-Electron Energy =                 124.1799818017915129
    DFT Exchange-Correlation Energy =     -15.0106812800122302
    Empirical Dispersion Energy =           0.0000000000000000
    VV10 Nonlocal Energy =                  0.0770116290912584
    Total Energy =                       -199.5203778355140685

Computation Completed


Properties will be evaluated at   0.000000,   0.000000,   0.000000 [a0]

Properties computed using the SCF density matrix

  Nuclear Dipole Moment: [e a0]
     X:     0.0000      Y:     0.0000      Z:     0.0000

  Electronic Dipole Moment: [e a0]
     X:     0.0000      Y:     0.0000      Z:     0.0000

  Dipole Moment: [e a0]
     X:     0.0000      Y:     0.0000      Z:     0.0000     Total:     0.0000

  Dipole Moment: [D]
     X:     0.0000      Y:     0.0000      Z:     0.0000     Total:     0.0000


*** tstop() called on bp1-compute00113.data.bp.acrc.priv at Tue Apr 27 17:22:47 2021
Module time:
	user time   =      52.84 seconds =       0.88 minutes
	system time =       1.93 seconds =       0.03 minutes
	total time  =          2 seconds =       0.03 minutes
Total time:
	user time   =     628.10 seconds =      10.47 minutes
	system time =      24.95 seconds =       0.42 minutes
	total time  =         28 seconds =       0.47 minutes

  //>>>>>>>>>>>>>>>>>>>>>>>>>>>>>>>>>>>//
  //    Loading displacement 3 of 3    //
  //<<<<<<<<<<<<<<<<<<<<<<<<<<<<<<<<<<<//

*** tstart() called on bp1-compute00113.data.bp.acrc.priv
*** at Tue Apr 27 17:22:47 2021

   => Loading Basis Set <=

    Name: AUG-CC-PV(T+D)Z
    Role: ORBITAL
    Keyword: BASIS
    atoms 1-2 entry F          line   393 file /work/zw18965/.conda/envs/p4env/share/psi4/basis/aug-cc-pv_tpd_z.gbs 


         ---------------------------------------------------------
                                   SCF
               by Justin Turney, Rob Parrish, Andy Simmonett
                          and Daniel G. A. Smith
                              RKS Reference
                       24 Threads, 137329 MiB Core
         ---------------------------------------------------------

  ==> Geometry <==

    Molecular point group: d2h
    Full point group: D_inf_h

    Geometry (in Angstrom), charge = 0, multiplicity = 1:

       Center              X                  Y                   Z               Mass       
    ------------   -----------------  -----------------  -----------------  -----------------
         F            0.000000000000     0.000000000000    -0.689233439031    18.998403162730
         F            0.000000000000     0.000000000000     0.689233439031    18.998403162730

  Running in d2h symmetry.

  Rotational constants: A = ************  B =      0.93394  C =      0.93394 [cm^-1]
  Rotational constants: A = ************  B =  27998.67148  C =  27998.67148 [MHz]
  Nuclear repulsion =   31.094946673311767

  Charge       = 0
  Multiplicity = 1
  Electrons    = 18
  Nalpha       = 9
  Nbeta        = 9

  ==> Algorithm <==

  SCF Algorithm Type is DF.
  DIIS enabled.
  MOM disabled.
  Fractional occupation disabled.
  Guess Type is SAD.
  Energy threshold   = 1.00e-10
  Density threshold  = 1.00e-10
  Integral threshold = 0.00e+00

  ==> Primary Basis <==

  Basis Set: AUG-CC-PV(T+D)Z
    Blend: AUG-CC-PV(T+D)Z
    Number of shells: 28
    Number of basis function: 92
    Number of Cartesian functions: 110
    Spherical Harmonics?: true
    Max angular momentum: 3

  ==> DFT Potential <==

   => Composite Functional: WB97X-V <= 

    wB97X-V Hyb-GGA Exchange-Correlation Functional

    N. Mardirossian and M. Head-Gordon, Phys. Chem. Chem. Phys. 16, 9904 (2014)

    Deriv               =              1
    GGA                 =           TRUE
    Meta                =          FALSE

    Exchange Hybrid     =           TRUE
    MP2 Hybrid          =          FALSE

   => Exchange-Correlation Functionals <=

    1.0000   wB97X-V range-separated functional

   => Exact (HF) Exchange <=

    0.8330            HF,LR [omega = 0.3000]
    0.1670               HF 

   => VV10 Non-Local Parameters <=

    VV10 B              =     6.0000E+00
    VV10 C              =     1.0000E-02

   => Molecular Quadrature <=

    Radial Scheme          =       TREUTLER
    Pruning Scheme         =           FLAT
    Nuclear Scheme         =       TREUTLER

    BS radius alpha        =              1
    Pruning alpha          =              1
    Radial Points          =             75
    Spherical Points       =            302
    Total Points           =          44722
    Total Blocks           =            410
    Max Points             =            254
    Max Functions          =             92

   => Loading Basis Set <=

    Name: (AUG-CC-PV(T+D)Z AUX)
    Role: JKFIT
    Keyword: DF_BASIS_SCF
    atoms 1-2 entry F          line   348 file /work/zw18965/.conda/envs/p4env/share/psi4/basis/aug-cc-pvtz-jkfit.gbs 

  ==> Pre-Iterations <==

   -------------------------------------------------------
    Irrep   Nso     Nmo     Nalpha   Nbeta   Ndocc  Nsocc
   -------------------------------------------------------
     Ag        19      19       0       0       0       0
     B1g        5       5       0       0       0       0
     B2g       11      11       0       0       0       0
     B3g       11      11       0       0       0       0
     Au         5       5       0       0       0       0
     B1u       19      19       0       0       0       0
     B2u       11      11       0       0       0       0
     B3u       11      11       0       0       0       0
   -------------------------------------------------------
    Total      92      92       9       9       9       0
   -------------------------------------------------------

  ==> Integral Setup <==

  ==> DiskDFJK: Density-Fitted J/K Matrices <==

    J tasked:                  Yes
    K tasked:                  Yes
    wK tasked:                 Yes
    Omega:               3.000E-01
    OpenMP threads:             24
    Integrals threads:          24
    Memory [MiB]:           102885
    Algorithm:                Core
    Integral Cache:           NONE
    Schwarz Cutoff:          1E-12
    Fitting Condition:       1E-10

   => Auxiliary Basis Set <=

  Basis Set: (AUG-CC-PV(T+D)Z AUX)
    Blend: AUG-CC-PVTZ-JKFIT
    Number of shells: 60
    Number of basis function: 208
    Number of Cartesian functions: 262
    Spherical Harmonics?: true
    Max angular momentum: 4

  Cached 100.0% of DFT collocation blocks in 0.108 [GiB].

  Minimum eigenvalue in the overlap matrix is 7.3257392188E-04.
  Using Symmetric Orthogonalization.

  SCF Guess: Superposition of Atomic Densities via on-the-fly atomic UHF.

  ==> Iterations <==

                           Total Energy        Delta E     RMS |[F,P]|

   @DF-RKS iter SAD:  -199.13807528413113   -1.99138e+02   0.00000e+00 
   @DF-RKS iter   1:  -199.49949363809432   -3.61418e-01   7.42399e-03 DIIS
   @DF-RKS iter   2:  -199.51780266505622   -1.83090e-02   3.23439e-03 DIIS
   @DF-RKS iter   3:  -199.52033530838992   -2.53264e-03   2.67242e-04 DIIS
   @DF-RKS iter   4:  -199.52037016701010   -3.48586e-05   1.46967e-04 DIIS
   @DF-RKS iter   5:  -199.52037693330794   -6.76630e-06   1.82055e-05 DIIS
   @DF-RKS iter   6:  -199.52037709682637   -1.63518e-07   5.93218e-07 DIIS
   @DF-RKS iter   7:  -199.52037709712528   -2.98911e-10   7.81995e-08 DIIS
   @DF-RKS iter   8:  -199.52037709712914   -3.86535e-12   4.79951e-09 DIIS
   @DF-RKS iter   9:  -199.52037709712928   -1.42109e-13   4.03663e-10 DIIS
   @DF-RKS iter  10:  -199.52037709712934   -5.68434e-14   2.46854e-11 DIIS
  Energy and wave function converged.


  ==> Post-Iterations <==

    Orbital Energies [Eh]
    ---------------------

    Doubly Occupied:                                                      

       1Ag   -24.877537     1B1u  -24.877531     2Ag    -1.500772  
       2B1u   -1.234074     3Ag    -0.721776     1B2u   -0.669179  
       1B3u   -0.669179     1B3g   -0.524667     1B2g   -0.524667  

    Virtual:                                                              

       3B1u   -0.029372     4B1u    0.143692     4Ag     0.162229  
       2B3u    0.185074     2B2u    0.185074     2B3g    0.241951  
       2B2g    0.241951     5Ag     0.248425     5B1u    0.410574  
       6Ag     0.715409     1B1g    0.715410     3B3u    0.865508  
       3B2u    0.865508     7Ag     0.885534     6B1u    0.968567  
       1Au     0.968571     7B1u    0.970391     4B2u    0.978105  
       4B3u    0.978105     3B3g    0.991323     3B2g    0.991323  
       8B1u    1.121943     8Ag     1.275698     4B2g    1.386406  
       4B3g    1.386406     9Ag     1.638987     5B2u    2.273183  
       5B3u    2.273183    10Ag     2.403137     2B1g    2.403138  
      11Ag     2.464457     6B2u    2.581831     6B3u    2.581831  
      12Ag     2.667179     3B1g    2.667185     9B1u    2.685760  
       2Au     2.685763    10B1u    2.787485     5B2g    2.831047  
       5B3g    2.831047     6B2g    2.882309     6B3g    2.882309  
      11B1u    3.082902     7B2u    3.214214     7B3u    3.214214  
       3Au     3.398427    12B1u    3.398430    13Ag     3.574860  
      13B1u    3.609110     7B2g    4.005353     7B3g    4.005353  
       8B3u    4.747030     8B2u    4.747030    14Ag     4.931221  
       8B2g    4.976779     8B3g    4.976779    14B1u    6.498092  
      15Ag     8.059094     9B3u    8.280883     9B2u    8.280883  
       4B1g    8.327563    16Ag     8.327567     9B2g    8.400002  
       9B3g    8.400002    10B2u    8.461600    10B3u    8.461600  
       4Au     8.541775    15B1u    8.541783     5B1g    8.666554  
      17Ag     8.666578    11B2u    8.682192    11B3u    8.682192  
      16B1u    8.767126     5Au     8.794444    17B1u    8.794469  
      10B2g    8.819926    10B3g    8.819926    18Ag     9.068086  
      11B3g    9.217637    11B2g    9.217637    18B1u    9.890328  
      19Ag    12.032571    19B1u   14.879459  

    Final Occupation by Irrep:
             Ag   B1g   B2g   B3g    Au   B1u   B2u   B3u 
    DOCC [     3,    0,    1,    1,    0,    2,    1,    1 ]

  @DF-RKS Final Energy:  -199.52037709712934

   => Energetics <=

    Nuclear Repulsion Energy =             31.0949466733117674
    One-Electron Energy =                -339.8984590200476532
    Two-Electron Energy =                 124.2175859016990103
    DFT Exchange-Correlation Energy =     -15.0114597591496342
    Empirical Dispersion Energy =           0.0000000000000000
    VV10 Nonlocal Energy =                  0.0770091070571635
    Total Energy =                       -199.5203770971293409

Computation Completed


Properties will be evaluated at   0.000000,   0.000000,   0.000000 [a0]

Properties computed using the SCF density matrix

  Nuclear Dipole Moment: [e a0]
     X:     0.0000      Y:     0.0000      Z:     0.0000

  Electronic Dipole Moment: [e a0]
     X:     0.0000      Y:     0.0000      Z:     0.0000

  Dipole Moment: [e a0]
     X:     0.0000      Y:     0.0000      Z:     0.0000     Total:     0.0000

  Dipole Moment: [D]
     X:     0.0000      Y:     0.0000      Z:     0.0000     Total:     0.0000


*** tstop() called on bp1-compute00113.data.bp.acrc.priv at Tue Apr 27 17:22:50 2021
Module time:
	user time   =      49.54 seconds =       0.83 minutes
	system time =       1.74 seconds =       0.03 minutes
	total time  =          3 seconds =       0.05 minutes
Total time:
	user time   =     677.77 seconds =      11.30 minutes
	system time =      26.70 seconds =       0.45 minutes
	total time  =         31 seconds =       0.52 minutes

         ----------------------------------------------------------
                                   FINDIF
                     R. A. King and Jonathon Misiewicz
         ---------------------------------------------------------

  Computing second-derivative from energies using projected, 
  symmetry-adapted, cartesian coordinates.

  3 energies passed in, including the reference geometry.
    Using 3-point formula.
    Energy without displacement: -199.5203780532
    Check energies below for precision!
    0: -1 :      -199.5203778355
    0: 1  :      -199.5203770971

-------------------------------------------------------------


  ==> Harmonic Vibrational Analysis <==

  non-mass-weighted Hessian:       Symmetric? True   Hermitian? True   Lin Dep Dim?  5 (0)
  projection of translations (True) and rotations (True) removed 5 degrees of freedom (5)
  total projector:                 Symmetric? True   Hermitian? True   Lin Dep Dim?  5 (5)
  mass-weighted Hessian:           Symmetric? True   Hermitian? True   Lin Dep Dim?  5 (0)
  pre-proj  low-frequency mode:    0.0000  [cm^-1]
  pre-proj  low-frequency mode:    0.0000  [cm^-1]
  pre-proj  low-frequency mode:    0.0000  [cm^-1]
  pre-proj  low-frequency mode:    0.0000  [cm^-1]
  pre-proj  low-frequency mode:    0.0000  [cm^-1]
  pre-proj  all modes:['0.0000' '0.0000' '0.0000' '0.0000' '0.0000' '1113.8792']
  projected mass-weighted Hessian: Symmetric? True   Hermitian? True   Lin Dep Dim?  5 (5)
  post-proj low-frequency mode:    0.0000  [cm^-1] (TR)
  post-proj low-frequency mode:    0.0000  [cm^-1] (TR)
  post-proj low-frequency mode:    0.0000  [cm^-1] (TR)
  post-proj low-frequency mode:    0.0000  [cm^-1] (TR)
  post-proj low-frequency mode:    0.0000  [cm^-1] (TR)
  post-proj  all modes:['0.0000' '0.0000' '0.0000' '0.0000' '0.0000' '1113.8792']

  Vibration                       6           
  Freq [cm^-1]                1113.8792       
  Irrep                           Ag          
  Reduced mass [u]             18.9984        
  Force const [mDyne/A]        13.8881        
  Turning point v=0 [a0]        0.0754        
  RMS dev v=0 [a0 u^1/2]        0.2325        
  Char temp [K]               1602.6241       
  ----------------------------------------------------------------------------------
      1   F                0.00  0.00  0.71   
      2   F                0.00  0.00 -0.71   

  ==> Thermochemistry Components <==

  Entropy, S
    Electronic S            0.000 [cal/(mol K)]        0.000 [J/(mol K)]       0.00000000 [mEh/K] (multiplicity = 1)
    Translational S        36.834 [cal/(mol K)]      154.112 [J/(mol K)]       0.05869802 [mEh/K] (mol. weight = 37.9968 [u], P = 101325.00 [Pa])
    Rotational S           11.347 [cal/(mol K)]       47.478 [J/(mol K)]       0.01808328 [mEh/K] (symmetry no. = 2)
    Vibrational S           0.059 [cal/(mol K)]        0.246 [J/(mol K)]       0.00009387 [mEh/K]
  Total S                  48.240 [cal/(mol K)]      201.836 [J/(mol K)]       0.07687517 [mEh/K]
  Correction S              0.000 [cal/(mol K)]        0.000 [J/(mol K)]       0.00000000 [mEh/K]

  Constant volume heat capacity, Cv
    Electronic Cv           0.000 [cal/(mol K)]        0.000 [J/(mol K)]       0.00000000 [mEh/K]
    Translational Cv        2.981 [cal/(mol K)]       12.472 [J/(mol K)]       0.00475022 [mEh/K]
    Rotational Cv           1.987 [cal/(mol K)]        8.314 [J/(mol K)]       0.00316681 [mEh/K]
    Vibrational Cv          0.268 [cal/(mol K)]        1.123 [J/(mol K)]       0.00042758 [mEh/K]
  Total Cv                  5.236 [cal/(mol K)]       21.909 [J/(mol K)]       0.00834460 [mEh/K]
  Correction Cv             0.000 [cal/(mol K)]        0.000 [J/(mol K)]       0.00000000 [mEh/K]

  Constant pressure heat capacity, Cp
    Electronic Cp           0.000 [cal/(mol K)]        0.000 [J/(mol K)]       0.00000000 [mEh/K]
    Translational Cp        4.968 [cal/(mol K)]       20.786 [J/(mol K)]       0.00791703 [mEh/K]
    Rotational Cp           1.987 [cal/(mol K)]        8.314 [J/(mol K)]       0.00316681 [mEh/K]
    Vibrational Cp          0.268 [cal/(mol K)]        1.123 [J/(mol K)]       0.00042758 [mEh/K]
  Total Cp                  7.224 [cal/(mol K)]       30.223 [J/(mol K)]       0.01151141 [mEh/K]
  Correction Cp             0.000 [cal/(mol K)]        0.000 [J/(mol K)]       0.00000000 [mEh/K]

  ==> Thermochemistry Energy Analysis <==

  Raw electronic energy, E0
  Total E0, Electronic energy at well bottom at 0 [K]                 -199.52037805 [Eh]

  Zero-point energy, ZPE_vib = Sum_i nu_i / 2
    Electronic ZPE          0.000 [kcal/mol]        0.000 [kJ/mol]       0.00000000 [Eh]
    Translational ZPE       0.000 [kcal/mol]        0.000 [kJ/mol]       0.00000000 [Eh]
    Rotational ZPE          0.000 [kcal/mol]        0.000 [kJ/mol]       0.00000000 [Eh]
    Vibrational ZPE         1.592 [kcal/mol]        6.662 [kJ/mol]       0.00253760 [Eh]         556.940 [cm^-1]
  Correction ZPE            1.592 [kcal/mol]        6.662 [kJ/mol]       0.00253760 [Eh]         556.940 [cm^-1]
  Total ZPE, Electronic energy at 0 [K]                               -199.51784045 [Eh]

  Thermal Energy, E (includes ZPE)
    Electronic E            0.000 [kcal/mol]        0.000 [kJ/mol]       0.00000000 [Eh]
    Translational E         0.889 [kcal/mol]        3.718 [kJ/mol]       0.00141628 [Eh]
    Rotational E            0.592 [kcal/mol]        2.479 [kJ/mol]       0.00094418 [Eh]
    Vibrational E           1.607 [kcal/mol]        6.724 [kJ/mol]       0.00256121 [Eh]
  Correction E              3.088 [kcal/mol]       12.922 [kJ/mol]       0.00492167 [Eh]
  Total E, Electronic energy at  298.15 [K]                           -199.51545638 [Eh]

  Enthalpy, H_trans = E_trans + k_B * T
    Electronic H            0.000 [kcal/mol]        0.000 [kJ/mol]       0.00000000 [Eh]
    Translational H         1.481 [kcal/mol]        6.197 [kJ/mol]       0.00236046 [Eh]
    Rotational H            0.592 [kcal/mol]        2.479 [kJ/mol]       0.00094418 [Eh]
    Vibrational H           1.607 [kcal/mol]        6.724 [kJ/mol]       0.00256121 [Eh]
  Correction H              3.681 [kcal/mol]       15.401 [kJ/mol]       0.00586586 [Eh]
  Total H, Enthalpy at  298.15 [K]                                    -199.51451220 [Eh]

  Gibbs free energy, G = H - T * S
    Electronic G            0.000 [kcal/mol]        0.000 [kJ/mol]       0.00000000 [Eh]
    Translational G        -9.501 [kcal/mol]      -39.751 [kJ/mol]      -0.01514035 [Eh]
    Rotational G           -2.791 [kcal/mol]      -11.677 [kJ/mol]      -0.00444734 [Eh]
    Vibrational G           1.590 [kcal/mol]        6.651 [kJ/mol]       0.00253322 [Eh]
  Correction G            -10.702 [kcal/mol]      -44.777 [kJ/mol]      -0.01705447 [Eh]
  Total G, Free enthalpy at  298.15 [K]                               -199.53743253 [Eh]

    Psi4 stopped on: Tuesday, 27 April 2021 05:22PM
    Psi4 wall time for execution: 0:00:30.51

*** Psi4 exiting successfully. Buy a developer a beer!
