
    -----------------------------------------------------------------------
          Psi4: An Open-Source Ab Initio Electronic Structure Package
                               Psi4 1.3.2 release

                         Git: Rev {HEAD} ecbda83 


    R. M. Parrish, L. A. Burns, D. G. A. Smith, A. C. Simmonett,
    A. E. DePrince III, E. G. Hohenstein, U. Bozkaya, A. Yu. Sokolov,
    R. Di Remigio, R. M. Richard, J. F. Gonthier, A. M. James,
    H. R. McAlexander, A. Kumar, M. Saitow, X. Wang, B. P. Pritchard,
    P. Verma, H. F. Schaefer III, K. Patkowski, R. A. King, E. F. Valeev,
    F. A. Evangelista, J. M. Turney, T. D. Crawford, and C. D. Sherrill,
    J. Chem. Theory Comput. 13(7) pp 3185--3197 (2017).
    (doi: 10.1021/acs.jctc.7b00174)


                         Additional Contributions by
    P. Kraus, H. Kruse, M. H. Lechner, M. C. Schieber, R. A. Shaw,
    A. Alenaizan, R. Galvelis, Z. L. Glick, S. Lehtola, and J. P. Misiewicz

    -----------------------------------------------------------------------


    Psi4 started on: Tuesday, 27 April 2021 05:22PM

    Process ID: 183962
    Host:       bp1-compute00140.data.bp.acrc.priv
    PSIDATADIR: /work/zw18965/.conda/envs/p4env/share/psi4
    Memory:     500.0 MiB
    Threads:    24
    
  ==> Input File <==

--------------------------------------------------------------------------
memory 144 GB

molecule {
0 1
O 0.0000000000 0.0000000000 0.0000000000
C 0.0000000000 0.0000000000 1.2066000000
H 0.9369544103 0.0000000000 1.7870836544
H -0.9369544103 0.0000000000 1.7870836544
}

set dynamic_level 1
set basis aug-cc-pV(T+d)Z
 
optimize("wB97X-V")
frequencies("wB97X-V")
--------------------------------------------------------------------------

  Memory set to 134.110 GiB by Python driver.
gradient() will perform gradient computation by finite difference of analytic energies.

         ----------------------------------------------------------
                                   FINDIF
                     R. A. King and Jonathon Misiewicz
         ---------------------------------------------------------

  Using finite-differences of energies to determine gradients.
    Generating geometries for use with 3-point formula.
    Displacement size will be 5.00e-03.
    Number of atoms is 4.
    Number of symmetric SALCs is 3.
    Translations projected? 1. Rotations projected? 1.
    Number of geometries (including reference) is 7.

  //>>>>>>>>>>>>>>>>>>>>>>>>>>>>>>>>>>>//
  //    Loading displacement 1 of 7    //
  //<<<<<<<<<<<<<<<<<<<<<<<<<<<<<<<<<<<//

*** tstart() called on bp1-compute00140.data.bp.acrc.priv
*** at Tue Apr 27 17:22:21 2021

   => Loading Basis Set <=

    Name: AUG-CC-PV(T+D)Z
    Role: ORBITAL
    Keyword: BASIS
    atoms 1   entry O          line   347 file /work/zw18965/.conda/envs/p4env/share/psi4/basis/aug-cc-pv_tpd_z.gbs 
    atoms 2   entry C          line   255 file /work/zw18965/.conda/envs/p4env/share/psi4/basis/aug-cc-pv_tpd_z.gbs 
    atoms 3-4 entry H          line    56 file /work/zw18965/.conda/envs/p4env/share/psi4/basis/aug-cc-pv_tpd_z.gbs 


         ---------------------------------------------------------
                                   SCF
               by Justin Turney, Rob Parrish, Andy Simmonett
                          and Daniel G. A. Smith
                              RKS Reference
                       24 Threads, 137329 MiB Core
         ---------------------------------------------------------

  ==> Geometry <==

    Molecular point group: c2v
    Full point group: C2v

    Geometry (in Angstrom), charge = 0, multiplicity = 1:

       Center              X                  Y                   Z               Mass       
    ------------   -----------------  -----------------  -----------------  -----------------
         O            0.000000000000    -0.000000000000    -0.602499002387    15.994914619570
         C            0.000000000000    -0.000000000000     0.604100997613    12.000000000000
         H            0.936954410300     0.000000000000     1.184584652013     1.007825032230
         H           -0.936954410300    -0.000000000000     1.184584652013     1.007825032230

  Running in c2v symmetry.

  Rotational constants: A =      9.52674  B =      1.29535  C =      1.14030 [cm^-1]
  Rotational constants: A = 285604.56383  B =  38833.68662  C =  34185.48249 [MHz]
  Nuclear repulsion =   31.291072839251608

  Charge       = 0
  Multiplicity = 1
  Electrons    = 16
  Nalpha       = 8
  Nbeta        = 8

  ==> Algorithm <==

  SCF Algorithm Type is DF.
  DIIS enabled.
  MOM disabled.
  Fractional occupation disabled.
  Guess Type is SAD.
  Energy threshold   = 1.00e-08
  Density threshold  = 1.00e-08
  Integral threshold = 0.00e+00

  ==> Primary Basis <==

  Basis Set: AUG-CC-PV(T+D)Z
    Blend: AUG-CC-PV(T+D)Z
    Number of shells: 46
    Number of basis function: 138
    Number of Cartesian functions: 160
    Spherical Harmonics?: true
    Max angular momentum: 3

  ==> DFT Potential <==

   => Composite Functional: WB97X-V <= 

    wB97X-V Hyb-GGA Exchange-Correlation Functional

    N. Mardirossian and M. Head-Gordon, Phys. Chem. Chem. Phys. 16, 9904 (2014)

    Deriv               =              1
    GGA                 =           TRUE
    Meta                =          FALSE

    Exchange Hybrid     =           TRUE
    MP2 Hybrid          =          FALSE

   => Exchange-Correlation Functionals <=

    1.0000   wB97X-V range-separated functional

   => Exact (HF) Exchange <=

    0.8330            HF,LR [omega = 0.3000]
    0.1670               HF 

   => VV10 Non-Local Parameters <=

    VV10 B              =     6.0000E+00
    VV10 C              =     1.0000E-02

   => Molecular Quadrature <=

    Radial Scheme          =       TREUTLER
    Pruning Scheme         =           FLAT
    Nuclear Scheme         =       TREUTLER

    BS radius alpha        =              1
    Pruning alpha          =              1
    Radial Points          =             75
    Spherical Points       =            302
    Total Points           =          90600
    Total Blocks           =            749
    Max Points             =            256
    Max Functions          =            138

   => Loading Basis Set <=

    Name: (AUG-CC-PV(T+D)Z AUX)
    Role: JKFIT
    Keyword: DF_BASIS_SCF
    atoms 1   entry O          line   286 file /work/zw18965/.conda/envs/p4env/share/psi4/basis/aug-cc-pvtz-jkfit.gbs 
    atoms 2   entry C          line   162 file /work/zw18965/.conda/envs/p4env/share/psi4/basis/aug-cc-pvtz-jkfit.gbs 
    atoms 3-4 entry H          line    70 file /work/zw18965/.conda/envs/p4env/share/psi4/basis/aug-cc-pvtz-jkfit.gbs 

  ==> Pre-Iterations <==

   -------------------------------------------------------
    Irrep   Nso     Nmo     Nalpha   Nbeta   Ndocc  Nsocc
   -------------------------------------------------------
     A1        54      54       0       0       0       0
     A2        17      17       0       0       0       0
     B1        38      38       0       0       0       0
     B2        29      29       0       0       0       0
   -------------------------------------------------------
    Total     138     138       8       8       8       0
   -------------------------------------------------------

  ==> Integral Setup <==

  ==> DiskDFJK: Density-Fitted J/K Matrices <==

    J tasked:                  Yes
    K tasked:                  Yes
    wK tasked:                 Yes
    Omega:               3.000E-01
    OpenMP threads:             24
    Integrals threads:          24
    Memory [MiB]:           102650
    Algorithm:                Core
    Integral Cache:           NONE
    Schwarz Cutoff:          1E-12
    Fitting Condition:       1E-10

   => Auxiliary Basis Set <=

  Basis Set: (AUG-CC-PV(T+D)Z AUX)
    Blend: AUG-CC-PVTZ-JKFIT
    Number of shells: 88
    Number of basis function: 300
    Number of Cartesian functions: 372
    Spherical Harmonics?: true
    Max angular momentum: 4

  Cached 100.0% of DFT collocation blocks in 0.338 [GiB].

  Minimum eigenvalue in the overlap matrix is 8.4631543285E-05.
  Using Symmetric Orthogonalization.

  SCF Guess: Superposition of Atomic Densities via on-the-fly atomic UHF.

  ==> Iterations <==

                           Total Energy        Delta E     RMS |[F,P]|

   @DF-RKS iter SAD:  -113.82779885863829   -1.13828e+02   0.00000e+00 
   @DF-RKS iter   1:  -114.42457939435855   -5.96781e-01   6.33469e-03 DIIS
   @DF-RKS iter   2:  -114.39383249919057    3.07469e-02   7.82801e-03 DIIS
   @DF-RKS iter   3:  -114.50600341875655   -1.12171e-01   7.90403e-04 DIIS
   @DF-RKS iter   4:  -114.50741476585056   -1.41135e-03   1.89264e-04 DIIS
   @DF-RKS iter   5:  -114.50750853760881   -9.37718e-05   2.38948e-05 DIIS
   @DF-RKS iter   6:  -114.50751084294026   -2.30533e-06   4.08900e-06 DIIS
   @DF-RKS iter   7:  -114.50751096411447   -1.21174e-07   6.94591e-07 DIIS
   @DF-RKS iter   8:  -114.50751096783416   -3.71969e-09   2.25632e-07 DIIS
   @DF-RKS iter   9:  -114.50751096802043   -1.86262e-10   2.18179e-08 DIIS
   @DF-RKS iter  10:  -114.50751096802510   -4.67537e-12   6.51769e-09 DIIS
  Energy and wave function converged.


  ==> Post-Iterations <==

    Orbital Energies [Eh]
    ---------------------

    Doubly Occupied:                                                      

       1A1   -19.237875     2A1   -10.373732     3A1    -1.195038  
       4A1    -0.764870     1B1    -0.617548     5A1    -0.568311  
       1B2    -0.513550     2B1    -0.380741  

    Virtual:                                                              

       6A1     0.029327     2B2     0.031499     3B1     0.045967  
       7A1     0.076115     3B2     0.093512     8A1     0.128271  
       4B1     0.132278     9A1     0.168994     5B1     0.193987  
      10A1     0.200167     4B2     0.202162    11A1     0.238788  
       1A2     0.242628     6B1     0.269090     5B2     0.299856  
       7B1     0.329939    12A1     0.329978    13A1     0.345294  
      14A1     0.367504     2A2     0.377766     8B1     0.382930  
       6B2     0.400856    15A1     0.455536     9B1     0.461184  
      16A1     0.515143     7B2     0.520514    17A1     0.615306  
      10B1     0.623449    18A1     0.652988    11B1     0.729792  
       3A2     0.767620     8B2     0.771169    19A1     0.792167  
      20A1     0.800494     4A2     0.821604    12B1     0.825725  
       9B2     0.883357    13B1     0.887238    21A1     0.898767  
      10B2     0.939249    22A1     0.940474    23A1     0.960707  
       5A2     0.973621    14B1     0.982586    11B2     0.989835  
      24A1     1.027126    15B1     1.040335     6A2     1.049308  
      25A1     1.185836    12B2     1.189980    16B1     1.241062  
      26A1     1.302089    13B2     1.307975    27A1     1.366869  
      17B1     1.402922     7A2     1.444147    18B1     1.481620  
      28A1     1.495500    14B2     1.541561    29A1     1.610684  
      19B1     1.613500    15B2     1.709874    20B1     1.843844  
      30A1     1.904521     8A2     1.911596    31A1     1.969430  
      21B1     2.078339    16B2     2.145373     9A2     2.170667  
      32A1     2.171654    22B1     2.200266    33A1     2.326249  
      17B2     2.331824    23B1     2.403879    34A1     2.439778  
      18B2     2.538426    35A1     2.630377    10A2     2.633339  
      24B1     2.732929    36A1     2.765410    25B1     2.881658  
      19B2     2.882038    37A1     2.949587    11A2     2.983763  
      20B2     3.209375    38A1     3.238853    21B2     3.339389  
      26B1     3.351648    12A2     3.431816    39A1     3.460092  
      27B1     3.488938    40A1     3.683540    28B1     3.719547  
      22B2     3.784836    29B1     3.911100    41A1     3.918778  
      13A2     3.968101    30B1     3.985151    42A1     4.004689  
      23B2     4.144214    43A1     4.338292    24B2     4.440853  
      14A2     4.492728    44A1     4.530872    31B1     4.739877  
      25B2     4.769234    26B2     4.885784    32B1     4.901142  
      15A2     5.016718    45A1     5.049086    33B1     5.090980  
      46A1     5.114733    47A1     5.619269    34B1     5.856548  
      48A1     5.899349    35B1     6.212667    27B2     6.249922  
      36B1     6.297581    16A2     6.561485    49A1     6.595672  
      28B2     6.731177    17A2     6.777411    50A1     6.801349  
      51A1     7.026902    29B2     7.111556    52A1     7.300598  
      37B1     7.310510    38B1     7.372058    53A1    14.280648  
      54A1    15.699080  

    Final Occupation by Irrep:
             A1    A2    B1    B2 
    DOCC [     5,    0,    2,    1 ]

  @DF-RKS Final Energy:  -114.50751096802510

   => Energetics <=

    Nuclear Repulsion Energy =             31.2910728392516084
    One-Electron Energy =                -217.4378357103181543
    Two-Electron Energy =                  81.8501051503447883
    DFT Exchange-Correlation Energy =     -10.2773614347874425
    Empirical Dispersion Energy =           0.0000000000000000
    VV10 Nonlocal Energy =                  0.0665081874841025
    Total Energy =                       -114.5075109680251018

Computation Completed


Properties will be evaluated at   0.000000,   0.000000,   0.000000 [a0]

Properties computed using the SCF density matrix

  Nuclear Dipole Moment: [e a0]
     X:     0.0000      Y:     0.0000      Z:     2.2181

  Electronic Dipole Moment: [e a0]
     X:     0.0000      Y:     0.0000      Z:    -1.2379

  Dipole Moment: [e a0]
     X:     0.0000      Y:     0.0000      Z:     0.9802     Total:     0.9802

  Dipole Moment: [D]
     X:     0.0000      Y:     0.0000      Z:     2.4914     Total:     2.4914


*** tstop() called on bp1-compute00140.data.bp.acrc.priv at Tue Apr 27 17:22:26 2021
Module time:
	user time   =      97.16 seconds =       1.62 minutes
	system time =       4.54 seconds =       0.08 minutes
	total time  =          5 seconds =       0.08 minutes
Total time:
	user time   =      97.16 seconds =       1.62 minutes
	system time =       4.54 seconds =       0.08 minutes
	total time  =          5 seconds =       0.08 minutes

  //>>>>>>>>>>>>>>>>>>>>>>>>>>>>>>>>>>>//
  //    Loading displacement 2 of 7    //
  //<<<<<<<<<<<<<<<<<<<<<<<<<<<<<<<<<<<//

*** tstart() called on bp1-compute00140.data.bp.acrc.priv
*** at Tue Apr 27 17:22:26 2021

   => Loading Basis Set <=

    Name: AUG-CC-PV(T+D)Z
    Role: ORBITAL
    Keyword: BASIS
    atoms 1   entry O          line   347 file /work/zw18965/.conda/envs/p4env/share/psi4/basis/aug-cc-pv_tpd_z.gbs 
    atoms 2   entry C          line   255 file /work/zw18965/.conda/envs/p4env/share/psi4/basis/aug-cc-pv_tpd_z.gbs 
    atoms 3-4 entry H          line    56 file /work/zw18965/.conda/envs/p4env/share/psi4/basis/aug-cc-pv_tpd_z.gbs 


         ---------------------------------------------------------
                                   SCF
               by Justin Turney, Rob Parrish, Andy Simmonett
                          and Daniel G. A. Smith
                              RKS Reference
                       24 Threads, 137329 MiB Core
         ---------------------------------------------------------

  ==> Geometry <==

    Molecular point group: c2v
    Full point group: C2v

    Geometry (in Angstrom), charge = 0, multiplicity = 1:

       Center              X                  Y                   Z               Mass       
    ------------   -----------------  -----------------  -----------------  -----------------
         O            0.000000000000    -0.000000000000    -0.602951118217    15.994914619570
         C            0.000000000000    -0.000000000000     0.604616960417    12.000000000000
         H            0.936954410300     0.000000000000     1.185100614817     1.007825032230
         H           -0.936954410300    -0.000000000000     1.185100614817     1.007825032230

  Running in c2v symmetry.

  Rotational constants: A =      9.52674  B =      1.29350  C =      1.13887 [cm^-1]
  Rotational constants: A = 285604.56383  B =  38778.06810  C =  34142.37427 [MHz]
  Nuclear repulsion =   31.272414220564698

  Charge       = 0
  Multiplicity = 1
  Electrons    = 16
  Nalpha       = 8
  Nbeta        = 8

  ==> Algorithm <==

  SCF Algorithm Type is DF.
  DIIS enabled.
  MOM disabled.
  Fractional occupation disabled.
  Guess Type is SAD.
  Energy threshold   = 1.00e-08
  Density threshold  = 1.00e-08
  Integral threshold = 0.00e+00

  ==> Primary Basis <==

  Basis Set: AUG-CC-PV(T+D)Z
    Blend: AUG-CC-PV(T+D)Z
    Number of shells: 46
    Number of basis function: 138
    Number of Cartesian functions: 160
    Spherical Harmonics?: true
    Max angular momentum: 3

  ==> DFT Potential <==

   => Composite Functional: WB97X-V <= 

    wB97X-V Hyb-GGA Exchange-Correlation Functional

    N. Mardirossian and M. Head-Gordon, Phys. Chem. Chem. Phys. 16, 9904 (2014)

    Deriv               =              1
    GGA                 =           TRUE
    Meta                =          FALSE

    Exchange Hybrid     =           TRUE
    MP2 Hybrid          =          FALSE

   => Exchange-Correlation Functionals <=

    1.0000   wB97X-V range-separated functional

   => Exact (HF) Exchange <=

    0.8330            HF,LR [omega = 0.3000]
    0.1670               HF 

   => VV10 Non-Local Parameters <=

    VV10 B              =     6.0000E+00
    VV10 C              =     1.0000E-02

   => Molecular Quadrature <=

    Radial Scheme          =       TREUTLER
    Pruning Scheme         =           FLAT
    Nuclear Scheme         =       TREUTLER

    BS radius alpha        =              1
    Pruning alpha          =              1
    Radial Points          =             75
    Spherical Points       =            302
    Total Points           =          90600
    Total Blocks           =            750
    Max Points             =            256
    Max Functions          =            138

   => Loading Basis Set <=

    Name: (AUG-CC-PV(T+D)Z AUX)
    Role: JKFIT
    Keyword: DF_BASIS_SCF
    atoms 1   entry O          line   286 file /work/zw18965/.conda/envs/p4env/share/psi4/basis/aug-cc-pvtz-jkfit.gbs 
    atoms 2   entry C          line   162 file /work/zw18965/.conda/envs/p4env/share/psi4/basis/aug-cc-pvtz-jkfit.gbs 
    atoms 3-4 entry H          line    70 file /work/zw18965/.conda/envs/p4env/share/psi4/basis/aug-cc-pvtz-jkfit.gbs 

  ==> Pre-Iterations <==

   -------------------------------------------------------
    Irrep   Nso     Nmo     Nalpha   Nbeta   Ndocc  Nsocc
   -------------------------------------------------------
     A1        54      54       0       0       0       0
     A2        17      17       0       0       0       0
     B1        38      38       0       0       0       0
     B2        29      29       0       0       0       0
   -------------------------------------------------------
    Total     138     138       8       8       8       0
   -------------------------------------------------------

  ==> Integral Setup <==

  ==> DiskDFJK: Density-Fitted J/K Matrices <==

    J tasked:                  Yes
    K tasked:                  Yes
    wK tasked:                 Yes
    Omega:               3.000E-01
    OpenMP threads:             24
    Integrals threads:          24
    Memory [MiB]:           102650
    Algorithm:                Core
    Integral Cache:           NONE
    Schwarz Cutoff:          1E-12
    Fitting Condition:       1E-10

   => Auxiliary Basis Set <=

  Basis Set: (AUG-CC-PV(T+D)Z AUX)
    Blend: AUG-CC-PVTZ-JKFIT
    Number of shells: 88
    Number of basis function: 300
    Number of Cartesian functions: 372
    Spherical Harmonics?: true
    Max angular momentum: 4

  Cached 100.0% of DFT collocation blocks in 0.338 [GiB].

  Minimum eigenvalue in the overlap matrix is 8.4704796332E-05.
  Using Symmetric Orthogonalization.

  SCF Guess: Superposition of Atomic Densities via on-the-fly atomic UHF.

  ==> Iterations <==

                           Total Energy        Delta E     RMS |[F,P]|

   @DF-RKS iter SAD:  -113.82610728281981   -1.13826e+02   0.00000e+00 
   @DF-RKS iter   1:  -114.42461018393182   -5.98503e-01   6.33160e-03 DIIS
   @DF-RKS iter   2:  -114.39357265265868    3.10375e-02   7.83480e-03 DIIS
   @DF-RKS iter   3:  -114.50598466085479   -1.12412e-01   7.90137e-04 DIIS
   @DF-RKS iter   4:  -114.50739600766795   -1.41135e-03   1.89361e-04 DIIS
   @DF-RKS iter   5:  -114.50748986990274   -9.38622e-05   2.39501e-05 DIIS
   @DF-RKS iter   6:  -114.50749218313648   -2.31323e-06   4.09919e-06 DIIS
   @DF-RKS iter   7:  -114.50749230485262   -1.21716e-07   7.00396e-07 DIIS
   @DF-RKS iter   8:  -114.50749230861945   -3.76683e-09   2.28432e-07 DIIS
   @DF-RKS iter   9:  -114.50749230880980   -1.90354e-10   2.20695e-08 DIIS
   @DF-RKS iter  10:  -114.50749230881452   -4.71800e-12   6.59141e-09 DIIS
  Energy and wave function converged.


  ==> Post-Iterations <==

    Orbital Energies [Eh]
    ---------------------

    Doubly Occupied:                                                      

       1A1   -19.237947     2A1   -10.373910     3A1    -1.194526  
       4A1    -0.765024     1B1    -0.617397     5A1    -0.568165  
       1B2    -0.513225     2B1    -0.380817  

    Virtual:                                                              

       6A1     0.029310     2B2     0.031290     3B1     0.045954  
       7A1     0.076113     3B2     0.093459     8A1     0.128248  
       4B1     0.132285     9A1     0.168997     5B1     0.193952  
      10A1     0.200139     4B2     0.202188    11A1     0.238745  
       1A2     0.242606     6B1     0.269052     5B2     0.299815  
      12A1     0.329930     7B1     0.329939    13A1     0.345285  
      14A1     0.367484     2A2     0.377770     8B1     0.382920  
       6B2     0.400795    15A1     0.455435     9B1     0.461048  
      16A1     0.514939     7B2     0.520559    17A1     0.615074  
      10B1     0.623457    18A1     0.652706    11B1     0.729818  
       3A2     0.767690     8B2     0.771183    19A1     0.792117  
      20A1     0.800526     4A2     0.821491    12B1     0.825607  
       9B2     0.883295    13B1     0.887260    21A1     0.898744  
      10B2     0.939062    22A1     0.940072    23A1     0.960657  
       5A2     0.973548    14B1     0.982566    11B2     0.989773  
      24A1     1.027079    15B1     1.040282     6A2     1.049278  
      25A1     1.185577    12B2     1.189992    16B1     1.240959  
      26A1     1.301841    13B2     1.308001    27A1     1.366839  
      17B1     1.402887     7A2     1.444013    18B1     1.481650  
      28A1     1.495241    14B2     1.541526    29A1     1.610774  
      19B1     1.613081    15B2     1.709303    20B1     1.843615  
      30A1     1.904474     8A2     1.911526    31A1     1.969759  
      21B1     2.078155    16B2     2.145073     9A2     2.170562  
      32A1     2.171329    22B1     2.200103    33A1     2.326060  
      17B2     2.331586    23B1     2.403927    34A1     2.439023  
      18B2     2.538209    35A1     2.630212    10A2     2.632821  
      24B1     2.732571    36A1     2.765110    25B1     2.881860  
      19B2     2.882496    37A1     2.949356    11A2     2.983788  
      20B2     3.209046    38A1     3.238183    21B2     3.339399  
      26B1     3.351337    12A2     3.431539    39A1     3.460000  
      27B1     3.488997    40A1     3.683240    28B1     3.719339  
      22B2     3.784129    29B1     3.910294    41A1     3.917413  
      13A2     3.967581    30B1     3.984712    42A1     4.003950  
      23B2     4.143809    43A1     4.336954    24B2     4.440664  
      14A2     4.492572    44A1     4.530148    31B1     4.738061  
      25B2     4.767627    26B2     4.884844    32B1     4.900878  
      15A2     5.016361    45A1     5.048841    33B1     5.090715  
      46A1     5.114310    47A1     5.619436    34B1     5.855676  
      48A1     5.899077    35B1     6.212622    27B2     6.249846  
      36B1     6.297274    16A2     6.561000    49A1     6.594712  
      28B2     6.729852    17A2     6.777045    50A1     6.801058  
      51A1     7.025903    29B2     7.111477    52A1     7.299757  
      37B1     7.310181    38B1     7.370114    53A1    14.259911  
      54A1    15.695322  

    Final Occupation by Irrep:
             A1    A2    B1    B2 
    DOCC [     5,    0,    2,    1 ]

  @DF-RKS Final Energy:  -114.50749230881452

   => Energetics <=

    Nuclear Repulsion Energy =             31.2724142205646984
    One-Electron Energy =                -217.4022203893611049
    Two-Electron Energy =                  81.8324917110420529
    DFT Exchange-Correlation Energy =     -10.2766861288429681
    Empirical Dispersion Energy =           0.0000000000000000
    VV10 Nonlocal Energy =                  0.0665082777827886
    Total Energy =                       -114.5074923088145198

Computation Completed


Properties will be evaluated at   0.000000,   0.000000,   0.000000 [a0]

Properties computed using the SCF density matrix

  Nuclear Dipole Moment: [e a0]
     X:     0.0000      Y:     0.0000      Z:     2.2191

  Electronic Dipole Moment: [e a0]
     X:     0.0000      Y:     0.0000      Z:    -1.2371

  Dipole Moment: [e a0]
     X:     0.0000      Y:     0.0000      Z:     0.9820     Total:     0.9820

  Dipole Moment: [D]
     X:     0.0000      Y:     0.0000      Z:     2.4959     Total:     2.4959


*** tstop() called on bp1-compute00140.data.bp.acrc.priv at Tue Apr 27 17:22:30 2021
Module time:
	user time   =      97.59 seconds =       1.63 minutes
	system time =       3.26 seconds =       0.05 minutes
	total time  =          4 seconds =       0.07 minutes
Total time:
	user time   =     194.90 seconds =       3.25 minutes
	system time =       7.81 seconds =       0.13 minutes
	total time  =          9 seconds =       0.15 minutes

  //>>>>>>>>>>>>>>>>>>>>>>>>>>>>>>>>>>>//
  //    Loading displacement 3 of 7    //
  //<<<<<<<<<<<<<<<<<<<<<<<<<<<<<<<<<<<//

*** tstart() called on bp1-compute00140.data.bp.acrc.priv
*** at Tue Apr 27 17:22:30 2021

   => Loading Basis Set <=

    Name: AUG-CC-PV(T+D)Z
    Role: ORBITAL
    Keyword: BASIS
    atoms 1   entry O          line   347 file /work/zw18965/.conda/envs/p4env/share/psi4/basis/aug-cc-pv_tpd_z.gbs 
    atoms 2   entry C          line   255 file /work/zw18965/.conda/envs/p4env/share/psi4/basis/aug-cc-pv_tpd_z.gbs 
    atoms 3-4 entry H          line    56 file /work/zw18965/.conda/envs/p4env/share/psi4/basis/aug-cc-pv_tpd_z.gbs 


         ---------------------------------------------------------
                                   SCF
               by Justin Turney, Rob Parrish, Andy Simmonett
                          and Daniel G. A. Smith
                              RKS Reference
                       24 Threads, 137329 MiB Core
         ---------------------------------------------------------

  ==> Geometry <==

    Molecular point group: c2v
    Full point group: C2v

    Geometry (in Angstrom), charge = 0, multiplicity = 1:

       Center              X                  Y                   Z               Mass       
    ------------   -----------------  -----------------  -----------------  -----------------
         O            0.000000000000    -0.000000000000    -0.602046886557    15.994914619570
         C            0.000000000000    -0.000000000000     0.603585034810    12.000000000000
         H            0.936954410300     0.000000000000     1.184068689210     1.007825032230
         H           -0.936954410300    -0.000000000000     1.184068689210     1.007825032230

  Running in c2v symmetry.

  Rotational constants: A =      9.52674  B =      1.29721  C =      1.14175 [cm^-1]
  Rotational constants: A = 285604.56383  B =  38889.42301  C =  34228.66724 [MHz]
  Nuclear repulsion =   31.309759867027449

  Charge       = 0
  Multiplicity = 1
  Electrons    = 16
  Nalpha       = 8
  Nbeta        = 8

  ==> Algorithm <==

  SCF Algorithm Type is DF.
  DIIS enabled.
  MOM disabled.
  Fractional occupation disabled.
  Guess Type is SAD.
  Energy threshold   = 1.00e-08
  Density threshold  = 1.00e-08
  Integral threshold = 0.00e+00

  ==> Primary Basis <==

  Basis Set: AUG-CC-PV(T+D)Z
    Blend: AUG-CC-PV(T+D)Z
    Number of shells: 46
    Number of basis function: 138
    Number of Cartesian functions: 160
    Spherical Harmonics?: true
    Max angular momentum: 3

  ==> DFT Potential <==

   => Composite Functional: WB97X-V <= 

    wB97X-V Hyb-GGA Exchange-Correlation Functional

    N. Mardirossian and M. Head-Gordon, Phys. Chem. Chem. Phys. 16, 9904 (2014)

    Deriv               =              1
    GGA                 =           TRUE
    Meta                =          FALSE

    Exchange Hybrid     =           TRUE
    MP2 Hybrid          =          FALSE

   => Exchange-Correlation Functionals <=

    1.0000   wB97X-V range-separated functional

   => Exact (HF) Exchange <=

    0.8330            HF,LR [omega = 0.3000]
    0.1670               HF 

   => VV10 Non-Local Parameters <=

    VV10 B              =     6.0000E+00
    VV10 C              =     1.0000E-02

   => Molecular Quadrature <=

    Radial Scheme          =       TREUTLER
    Pruning Scheme         =           FLAT
    Nuclear Scheme         =       TREUTLER

    BS radius alpha        =              1
    Pruning alpha          =              1
    Radial Points          =             75
    Spherical Points       =            302
    Total Points           =          90600
    Total Blocks           =            748
    Max Points             =            256
    Max Functions          =            138

   => Loading Basis Set <=

    Name: (AUG-CC-PV(T+D)Z AUX)
    Role: JKFIT
    Keyword: DF_BASIS_SCF
    atoms 1   entry O          line   286 file /work/zw18965/.conda/envs/p4env/share/psi4/basis/aug-cc-pvtz-jkfit.gbs 
    atoms 2   entry C          line   162 file /work/zw18965/.conda/envs/p4env/share/psi4/basis/aug-cc-pvtz-jkfit.gbs 
    atoms 3-4 entry H          line    70 file /work/zw18965/.conda/envs/p4env/share/psi4/basis/aug-cc-pvtz-jkfit.gbs 

  ==> Pre-Iterations <==

   -------------------------------------------------------
    Irrep   Nso     Nmo     Nalpha   Nbeta   Ndocc  Nsocc
   -------------------------------------------------------
     A1        54      54       0       0       0       0
     A2        17      17       0       0       0       0
     B1        38      38       0       0       0       0
     B2        29      29       0       0       0       0
   -------------------------------------------------------
    Total     138     138       8       8       8       0
   -------------------------------------------------------

  ==> Integral Setup <==

  ==> DiskDFJK: Density-Fitted J/K Matrices <==

    J tasked:                  Yes
    K tasked:                  Yes
    wK tasked:                 Yes
    Omega:               3.000E-01
    OpenMP threads:             24
    Integrals threads:          24
    Memory [MiB]:           102650
    Algorithm:                Core
    Integral Cache:           NONE
    Schwarz Cutoff:          1E-12
    Fitting Condition:       1E-10

   => Auxiliary Basis Set <=

  Basis Set: (AUG-CC-PV(T+D)Z AUX)
    Blend: AUG-CC-PVTZ-JKFIT
    Number of shells: 88
    Number of basis function: 300
    Number of Cartesian functions: 372
    Spherical Harmonics?: true
    Max angular momentum: 4

  Cached 100.0% of DFT collocation blocks in 0.338 [GiB].

  Minimum eigenvalue in the overlap matrix is 8.4558347666E-05.
  Using Symmetric Orthogonalization.

  SCF Guess: Superposition of Atomic Densities via on-the-fly atomic UHF.

  ==> Iterations <==

                           Total Energy        Delta E     RMS |[F,P]|

   @DF-RKS iter SAD:  -113.82949223468272   -1.13829e+02   0.00000e+00 
   @DF-RKS iter   1:  -114.42454485307918   -5.95053e-01   6.33782e-03 DIIS
   @DF-RKS iter   2:  -114.39408750539019    3.04573e-02   7.82128e-03 DIIS
   @DF-RKS iter   3:  -114.50601923993949   -1.11932e-01   7.90672e-04 DIIS
   @DF-RKS iter   4:  -114.50743059073409   -1.41135e-03   1.89168e-04 DIIS
   @DF-RKS iter   5:  -114.50752427302622   -9.36823e-05   2.38399e-05 DIIS
   @DF-RKS iter   6:  -114.50752657054549   -2.29752e-06   4.07897e-06 DIIS
   @DF-RKS iter   7:  -114.50752669118410   -1.20639e-07   6.88882e-07 DIIS
   @DF-RKS iter   8:  -114.50752669485851   -3.67442e-09   2.22853e-07 DIIS
   @DF-RKS iter   9:  -114.50752669504075   -1.82240e-10   2.15669e-08 DIIS
   @DF-RKS iter  10:  -114.50752669504526   -4.50484e-12   6.44214e-09 DIIS
  Energy and wave function converged.


  ==> Post-Iterations <==

    Orbital Energies [Eh]
    ---------------------

    Doubly Occupied:                                                      

       1A1   -19.237803     2A1   -10.373554     3A1    -1.195551  
       4A1    -0.764716     1B1    -0.617700     5A1    -0.568458  
       1B2    -0.513876     2B1    -0.380665  

    Virtual:                                                              

       6A1     0.029343     2B2     0.031708     3B1     0.045980  
       7A1     0.076117     3B2     0.093565     8A1     0.128294  
       4B1     0.132271     9A1     0.168991     5B1     0.194023  
      10A1     0.200194     4B2     0.202136    11A1     0.238831  
       1A2     0.242650     6B1     0.269128     5B2     0.299898  
       7B1     0.329939    12A1     0.330026    13A1     0.345302  
      14A1     0.367524     2A2     0.377762     8B1     0.382939  
       6B2     0.400917    15A1     0.455635     9B1     0.461319  
      16A1     0.515347     7B2     0.520468    17A1     0.615535  
      10B1     0.623442    18A1     0.653274    11B1     0.729766  
       3A2     0.767549     8B2     0.771154    19A1     0.792216  
      20A1     0.800462     4A2     0.821717    12B1     0.825843  
       9B2     0.883419    13B1     0.887217    21A1     0.898790  
      10B2     0.939436    22A1     0.940879    23A1     0.960758  
       5A2     0.973695    14B1     0.982606    11B2     0.989897  
      24A1     1.027173    15B1     1.040388     6A2     1.049339  
      25A1     1.186097    12B2     1.189967    16B1     1.241165  
      26A1     1.302338    13B2     1.307950    27A1     1.366900  
      17B1     1.402956     7A2     1.444280    18B1     1.481590  
      28A1     1.495759    14B2     1.541596    29A1     1.610594  
      19B1     1.613919    15B2     1.710446    20B1     1.844073  
      30A1     1.904568     8A2     1.911667    31A1     1.969101  
      21B1     2.078523    16B2     2.145673     9A2     2.170771  
      32A1     2.171978    22B1     2.200429    33A1     2.326438  
      17B2     2.332062    23B1     2.403833    34A1     2.440535  
      18B2     2.538644    35A1     2.630538    10A2     2.633858  
      24B1     2.733286    36A1     2.765714    25B1     2.881454  
      19B2     2.881578    37A1     2.949820    11A2     2.983737  
      20B2     3.209705    38A1     3.239524    21B2     3.339380  
      26B1     3.351961    12A2     3.432094    39A1     3.460185  
      27B1     3.488880    40A1     3.683840    28B1     3.719755  
      22B2     3.785544    29B1     3.911905    41A1     3.920132  
      13A2     3.968622    30B1     3.985594    42A1     4.005433  
      23B2     4.144619    43A1     4.339632    24B2     4.441043  
      14A2     4.492885    44A1     4.531600    31B1     4.741688  
      25B2     4.770826    26B2     4.886741    32B1     4.901411  
      15A2     5.017076    45A1     5.049334    33B1     5.091245  
      46A1     5.115158    47A1     5.619094    34B1     5.857417  
      48A1     5.899627    35B1     6.212712    27B2     6.249998  
      36B1     6.297887    16A2     6.561969    49A1     6.596635  
      28B2     6.732508    17A2     6.777778    50A1     6.801643  
      51A1     7.027910    29B2     7.111631    52A1     7.301445  
      37B1     7.310809    38B1     7.374032    53A1    14.301456  
      54A1    15.702836  

    Final Occupation by Irrep:
             A1    A2    B1    B2 
    DOCC [     5,    0,    2,    1 ]

  @DF-RKS Final Energy:  -114.50752669504526

   => Energetics <=

    Nuclear Repulsion Energy =             31.3097598670274486
    One-Electron Energy =                -217.4734976918346945
    Two-Electron Energy =                  81.8677412519000427
    DFT Exchange-Correlation Energy =     -10.2780382216479556
    Empirical Dispersion Energy =           0.0000000000000000
    VV10 Nonlocal Energy =                  0.0665080995098971
    Total Energy =                       -114.5075266950452573

Computation Completed


Properties will be evaluated at   0.000000,   0.000000,   0.000000 [a0]

Properties computed using the SCF density matrix

  Nuclear Dipole Moment: [e a0]
     X:     0.0000      Y:     0.0000      Z:     2.2172

  Electronic Dipole Moment: [e a0]
     X:     0.0000      Y:     0.0000      Z:    -1.2387

  Dipole Moment: [e a0]
     X:     0.0000      Y:     0.0000      Z:     0.9784     Total:     0.9784

  Dipole Moment: [D]
     X:     0.0000      Y:     0.0000      Z:     2.4870     Total:     2.4870


*** tstop() called on bp1-compute00140.data.bp.acrc.priv at Tue Apr 27 17:22:34 2021
Module time:
	user time   =      91.77 seconds =       1.53 minutes
	system time =       2.22 seconds =       0.04 minutes
	total time  =          4 seconds =       0.07 minutes
Total time:
	user time   =     286.83 seconds =       4.78 minutes
	system time =      10.04 seconds =       0.17 minutes
	total time  =         13 seconds =       0.22 minutes

  //>>>>>>>>>>>>>>>>>>>>>>>>>>>>>>>>>>>//
  //    Loading displacement 4 of 7    //
  //<<<<<<<<<<<<<<<<<<<<<<<<<<<<<<<<<<<//

*** tstart() called on bp1-compute00140.data.bp.acrc.priv
*** at Tue Apr 27 17:22:34 2021

   => Loading Basis Set <=

    Name: AUG-CC-PV(T+D)Z
    Role: ORBITAL
    Keyword: BASIS
    atoms 1   entry O          line   347 file /work/zw18965/.conda/envs/p4env/share/psi4/basis/aug-cc-pv_tpd_z.gbs 
    atoms 2   entry C          line   255 file /work/zw18965/.conda/envs/p4env/share/psi4/basis/aug-cc-pv_tpd_z.gbs 
    atoms 3-4 entry H          line    56 file /work/zw18965/.conda/envs/p4env/share/psi4/basis/aug-cc-pv_tpd_z.gbs 


         ---------------------------------------------------------
                                   SCF
               by Justin Turney, Rob Parrish, Andy Simmonett
                          and Daniel G. A. Smith
                              RKS Reference
                       24 Threads, 137329 MiB Core
         ---------------------------------------------------------

  ==> Geometry <==

    Molecular point group: c2v
    Full point group: C2v

    Geometry (in Angstrom), charge = 0, multiplicity = 1:

       Center              X                  Y                   Z               Mass       
    ------------   -----------------  -----------------  -----------------  -----------------
         O            0.000000000000    -0.000000000000    -0.602499002387    15.994914619570
         C            0.000000000000    -0.000000000000     0.603811342327    12.000000000000
         H            0.936954410300     0.000000000000     1.186309089952     1.007825032230
         H           -0.936954410300    -0.000000000000     1.186309089952     1.007825032230

  Running in c2v symmetry.

  Rotational constants: A =      9.52674  B =      1.29495  C =      1.13999 [cm^-1]
  Rotational constants: A = 285604.56383  B =  38821.62792  C =  34176.13741 [MHz]
  Nuclear repulsion =   31.287407525849975

  Charge       = 0
  Multiplicity = 1
  Electrons    = 16
  Nalpha       = 8
  Nbeta        = 8

  ==> Algorithm <==

  SCF Algorithm Type is DF.
  DIIS enabled.
  MOM disabled.
  Fractional occupation disabled.
  Guess Type is SAD.
  Energy threshold   = 1.00e-08
  Density threshold  = 1.00e-08
  Integral threshold = 0.00e+00

  ==> Primary Basis <==

  Basis Set: AUG-CC-PV(T+D)Z
    Blend: AUG-CC-PV(T+D)Z
    Number of shells: 46
    Number of basis function: 138
    Number of Cartesian functions: 160
    Spherical Harmonics?: true
    Max angular momentum: 3

  ==> DFT Potential <==

   => Composite Functional: WB97X-V <= 

    wB97X-V Hyb-GGA Exchange-Correlation Functional

    N. Mardirossian and M. Head-Gordon, Phys. Chem. Chem. Phys. 16, 9904 (2014)

    Deriv               =              1
    GGA                 =           TRUE
    Meta                =          FALSE

    Exchange Hybrid     =           TRUE
    MP2 Hybrid          =          FALSE

   => Exchange-Correlation Functionals <=

    1.0000   wB97X-V range-separated functional

   => Exact (HF) Exchange <=

    0.8330            HF,LR [omega = 0.3000]
    0.1670               HF 

   => VV10 Non-Local Parameters <=

    VV10 B              =     6.0000E+00
    VV10 C              =     1.0000E-02

   => Molecular Quadrature <=

    Radial Scheme          =       TREUTLER
    Pruning Scheme         =           FLAT
    Nuclear Scheme         =       TREUTLER

    BS radius alpha        =              1
    Pruning alpha          =              1
    Radial Points          =             75
    Spherical Points       =            302
    Total Points           =          90600
    Total Blocks           =            748
    Max Points             =            256
    Max Functions          =            138

   => Loading Basis Set <=

    Name: (AUG-CC-PV(T+D)Z AUX)
    Role: JKFIT
    Keyword: DF_BASIS_SCF
    atoms 1   entry O          line   286 file /work/zw18965/.conda/envs/p4env/share/psi4/basis/aug-cc-pvtz-jkfit.gbs 
    atoms 2   entry C          line   162 file /work/zw18965/.conda/envs/p4env/share/psi4/basis/aug-cc-pvtz-jkfit.gbs 
    atoms 3-4 entry H          line    70 file /work/zw18965/.conda/envs/p4env/share/psi4/basis/aug-cc-pvtz-jkfit.gbs 

  ==> Pre-Iterations <==

   -------------------------------------------------------
    Irrep   Nso     Nmo     Nalpha   Nbeta   Ndocc  Nsocc
   -------------------------------------------------------
     A1        54      54       0       0       0       0
     A2        17      17       0       0       0       0
     B1        38      38       0       0       0       0
     B2        29      29       0       0       0       0
   -------------------------------------------------------
    Total     138     138       8       8       8       0
   -------------------------------------------------------

  ==> Integral Setup <==

  ==> DiskDFJK: Density-Fitted J/K Matrices <==

    J tasked:                  Yes
    K tasked:                  Yes
    wK tasked:                 Yes
    Omega:               3.000E-01
    OpenMP threads:             24
    Integrals threads:          24
    Memory [MiB]:           102650
    Algorithm:                Core
    Integral Cache:           NONE
    Schwarz Cutoff:          1E-12
    Fitting Condition:       1E-10

   => Auxiliary Basis Set <=

  Basis Set: (AUG-CC-PV(T+D)Z AUX)
    Blend: AUG-CC-PVTZ-JKFIT
    Number of shells: 88
    Number of basis function: 300
    Number of Cartesian functions: 372
    Spherical Harmonics?: true
    Max angular momentum: 4

  Cached 100.0% of DFT collocation blocks in 0.338 [GiB].

  Minimum eigenvalue in the overlap matrix is 8.4820098817E-05.
  Using Symmetric Orthogonalization.

  SCF Guess: Superposition of Atomic Densities via on-the-fly atomic UHF.

  ==> Iterations <==

                           Total Energy        Delta E     RMS |[F,P]|

   @DF-RKS iter SAD:  -113.82765895240526   -1.13828e+02   0.00000e+00 
   @DF-RKS iter   1:  -114.42453687730581   -5.96878e-01   6.33666e-03 DIIS
   @DF-RKS iter   2:  -114.39367410125608    3.08628e-02   7.83344e-03 DIIS
   @DF-RKS iter   3:  -114.50601498358913   -1.12341e-01   7.89608e-04 DIIS
   @DF-RKS iter   4:  -114.50742402315736   -1.40904e-03   1.89318e-04 DIIS
   @DF-RKS iter   5:  -114.50751797246724   -9.39493e-05   2.39074e-05 DIIS
   @DF-RKS iter   6:  -114.50752028565812   -2.31319e-06   4.09254e-06 DIIS
   @DF-RKS iter   7:  -114.50752040732200   -1.21664e-07   6.92796e-07 DIIS
   @DF-RKS iter   8:  -114.50752041103742   -3.71541e-09   2.24937e-07 DIIS
   @DF-RKS iter   9:  -114.50752041122263   -1.85210e-10   2.17664e-08 DIIS
   @DF-RKS iter  10:  -114.50752041122743   -4.80327e-12   6.50302e-09 DIIS
  Energy and wave function converged.


  ==> Post-Iterations <==

    Orbital Energies [Eh]
    ---------------------

    Doubly Occupied:                                                      

       1A1   -19.238001     2A1   -10.373948     3A1    -1.195256  
       4A1    -0.764702     1B1    -0.617202     5A1    -0.568494  
       1B2    -0.513714     2B1    -0.380736  

    Virtual:                                                              

       6A1     0.029321     2B2     0.031523     3B1     0.046004  
       7A1     0.076102     3B2     0.093526     8A1     0.128235  
       4B1     0.132247     9A1     0.169019     5B1     0.194053  
      10A1     0.200085     4B2     0.202118    11A1     0.238799  
       1A2     0.242664     6B1     0.268877     5B2     0.299764  
      12A1     0.329680     7B1     0.329974    13A1     0.345302  
      14A1     0.367435     2A2     0.377645     8B1     0.382965  
       6B2     0.400999    15A1     0.455743     9B1     0.460927  
      16A1     0.515285     7B2     0.520418    17A1     0.615261  
      10B1     0.623282    18A1     0.653015    11B1     0.729789  
       3A2     0.767762     8B2     0.771000    19A1     0.791894  
      20A1     0.800578     4A2     0.821594    12B1     0.825617  
       9B2     0.883314    13B1     0.887250    21A1     0.898466  
      10B2     0.938653    22A1     0.940349    23A1     0.960556  
       5A2     0.973238    14B1     0.982476    11B2     0.990012  
      24A1     1.026917    15B1     1.040496     6A2     1.049572  
      25A1     1.186607    12B2     1.189688    16B1     1.240234  
      26A1     1.301819    13B2     1.307628    27A1     1.367223  
      17B1     1.402758     7A2     1.443664    18B1     1.481632  
      28A1     1.495068    14B2     1.541740    29A1     1.610868  
      19B1     1.612488    15B2     1.709583    20B1     1.843081  
      30A1     1.903777     8A2     1.910886    31A1     1.968732  
      21B1     2.078654    16B2     2.145235     9A2     2.170441  
      32A1     2.172060    22B1     2.200986    33A1     2.326329  
      17B2     2.332081    23B1     2.404702    34A1     2.439695  
      18B2     2.538585    35A1     2.630216    10A2     2.633220  
      24B1     2.732499    36A1     2.765904    19B2     2.881468  
      25B1     2.881843    37A1     2.949271    11A2     2.984198  
      20B2     3.208705    38A1     3.238855    21B2     3.339273  
      26B1     3.351262    12A2     3.433093    39A1     3.459945  
      27B1     3.487813    40A1     3.682918    28B1     3.716530  
      22B2     3.785552    29B1     3.911144    41A1     3.918766  
      13A2     3.965844    30B1     3.984092    42A1     4.005224  
      23B2     4.143884    43A1     4.337009    24B2     4.439394  
      14A2     4.491778    44A1     4.530465    31B1     4.738049  
      25B2     4.770072    26B2     4.882794    32B1     4.900738  
      15A2     5.014479    45A1     5.047639    33B1     5.087838  
      46A1     5.111905    47A1     5.615849    34B1     5.854491  
      48A1     5.898832    35B1     6.213326    27B2     6.249831  
      36B1     6.298182    16A2     6.561560    49A1     6.595482  
      28B2     6.731329    17A2     6.777175    50A1     6.801154  
      51A1     7.026864    29B2     7.111529    52A1     7.300730  
      37B1     7.310815    38B1     7.370779    53A1    14.283748  
      54A1    15.681502  

    Final Occupation by Irrep:
             A1    A2    B1    B2 
    DOCC [     5,    0,    2,    1 ]

  @DF-RKS Final Energy:  -114.50752041122743

   => Energetics <=

    Nuclear Repulsion Energy =             31.2874075258499751
    One-Electron Energy =                -217.4300297641144368
    Two-Electron Energy =                  81.8455235841109499
    DFT Exchange-Correlation Energy =     -10.2769296722637975
    Empirical Dispersion Energy =           0.0000000000000000
    VV10 Nonlocal Energy =                  0.0665079151898725
    Total Energy =                       -114.5075204112274321

Computation Completed


Properties will be evaluated at   0.000000,   0.000000,   0.000000 [a0]

Properties computed using the SCF density matrix

  Nuclear Dipole Moment: [e a0]
     X:     0.0000      Y:     0.0000      Z:     2.2214

  Electronic Dipole Moment: [e a0]
     X:     0.0000      Y:     0.0000      Z:    -1.2420

  Dipole Moment: [e a0]
     X:     0.0000      Y:     0.0000      Z:     0.9794     Total:     0.9794

  Dipole Moment: [D]
     X:     0.0000      Y:     0.0000      Z:     2.4893     Total:     2.4893


*** tstop() called on bp1-compute00140.data.bp.acrc.priv at Tue Apr 27 17:22:38 2021
Module time:
	user time   =      91.75 seconds =       1.53 minutes
	system time =       2.36 seconds =       0.04 minutes
	total time  =          4 seconds =       0.07 minutes
Total time:
	user time   =     378.71 seconds =       6.31 minutes
	system time =      12.41 seconds =       0.21 minutes
	total time  =         17 seconds =       0.28 minutes

  //>>>>>>>>>>>>>>>>>>>>>>>>>>>>>>>>>>>//
  //    Loading displacement 5 of 7    //
  //<<<<<<<<<<<<<<<<<<<<<<<<<<<<<<<<<<<//

*** tstart() called on bp1-compute00140.data.bp.acrc.priv
*** at Tue Apr 27 17:22:38 2021

   => Loading Basis Set <=

    Name: AUG-CC-PV(T+D)Z
    Role: ORBITAL
    Keyword: BASIS
    atoms 1   entry O          line   347 file /work/zw18965/.conda/envs/p4env/share/psi4/basis/aug-cc-pv_tpd_z.gbs 
    atoms 2   entry C          line   255 file /work/zw18965/.conda/envs/p4env/share/psi4/basis/aug-cc-pv_tpd_z.gbs 
    atoms 3-4 entry H          line    56 file /work/zw18965/.conda/envs/p4env/share/psi4/basis/aug-cc-pv_tpd_z.gbs 


         ---------------------------------------------------------
                                   SCF
               by Justin Turney, Rob Parrish, Andy Simmonett
                          and Daniel G. A. Smith
                              RKS Reference
                       24 Threads, 137329 MiB Core
         ---------------------------------------------------------

  ==> Geometry <==

    Molecular point group: c2v
    Full point group: C2v

    Geometry (in Angstrom), charge = 0, multiplicity = 1:

       Center              X                  Y                   Z               Mass       
    ------------   -----------------  -----------------  -----------------  -----------------
         O            0.000000000000    -0.000000000000    -0.602499002387    15.994914619570
         C            0.000000000000    -0.000000000000     0.604390652900    12.000000000000
         H            0.936954410300     0.000000000000     1.182860214075     1.007825032230
         H           -0.936954410300    -0.000000000000     1.182860214075     1.007825032230

  Running in c2v symmetry.

  Rotational constants: A =      9.52674  B =      1.29575  C =      1.14062 [cm^-1]
  Rotational constants: A = 285604.56383  B =  38845.71101  C =  34194.80028 [MHz]
  Nuclear repulsion =   31.294741495946525

  Charge       = 0
  Multiplicity = 1
  Electrons    = 16
  Nalpha       = 8
  Nbeta        = 8

  ==> Algorithm <==

  SCF Algorithm Type is DF.
  DIIS enabled.
  MOM disabled.
  Fractional occupation disabled.
  Guess Type is SAD.
  Energy threshold   = 1.00e-08
  Density threshold  = 1.00e-08
  Integral threshold = 0.00e+00

  ==> Primary Basis <==

  Basis Set: AUG-CC-PV(T+D)Z
    Blend: AUG-CC-PV(T+D)Z
    Number of shells: 46
    Number of basis function: 138
    Number of Cartesian functions: 160
    Spherical Harmonics?: true
    Max angular momentum: 3

  ==> DFT Potential <==

   => Composite Functional: WB97X-V <= 

    wB97X-V Hyb-GGA Exchange-Correlation Functional

    N. Mardirossian and M. Head-Gordon, Phys. Chem. Chem. Phys. 16, 9904 (2014)

    Deriv               =              1
    GGA                 =           TRUE
    Meta                =          FALSE

    Exchange Hybrid     =           TRUE
    MP2 Hybrid          =          FALSE

   => Exchange-Correlation Functionals <=

    1.0000   wB97X-V range-separated functional

   => Exact (HF) Exchange <=

    0.8330            HF,LR [omega = 0.3000]
    0.1670               HF 

   => VV10 Non-Local Parameters <=

    VV10 B              =     6.0000E+00
    VV10 C              =     1.0000E-02

   => Molecular Quadrature <=

    Radial Scheme          =       TREUTLER
    Pruning Scheme         =           FLAT
    Nuclear Scheme         =       TREUTLER

    BS radius alpha        =              1
    Pruning alpha          =              1
    Radial Points          =             75
    Spherical Points       =            302
    Total Points           =          90600
    Total Blocks           =            747
    Max Points             =            256
    Max Functions          =            138

   => Loading Basis Set <=

    Name: (AUG-CC-PV(T+D)Z AUX)
    Role: JKFIT
    Keyword: DF_BASIS_SCF
    atoms 1   entry O          line   286 file /work/zw18965/.conda/envs/p4env/share/psi4/basis/aug-cc-pvtz-jkfit.gbs 
    atoms 2   entry C          line   162 file /work/zw18965/.conda/envs/p4env/share/psi4/basis/aug-cc-pvtz-jkfit.gbs 
    atoms 3-4 entry H          line    70 file /work/zw18965/.conda/envs/p4env/share/psi4/basis/aug-cc-pvtz-jkfit.gbs 

  ==> Pre-Iterations <==

   -------------------------------------------------------
    Irrep   Nso     Nmo     Nalpha   Nbeta   Ndocc  Nsocc
   -------------------------------------------------------
     A1        54      54       0       0       0       0
     A2        17      17       0       0       0       0
     B1        38      38       0       0       0       0
     B2        29      29       0       0       0       0
   -------------------------------------------------------
    Total     138     138       8       8       8       0
   -------------------------------------------------------

  ==> Integral Setup <==

  ==> DiskDFJK: Density-Fitted J/K Matrices <==

    J tasked:                  Yes
    K tasked:                  Yes
    wK tasked:                 Yes
    Omega:               3.000E-01
    OpenMP threads:             24
    Integrals threads:          24
    Memory [MiB]:           102650
    Algorithm:                Core
    Integral Cache:           NONE
    Schwarz Cutoff:          1E-12
    Fitting Condition:       1E-10

   => Auxiliary Basis Set <=

  Basis Set: (AUG-CC-PV(T+D)Z AUX)
    Blend: AUG-CC-PVTZ-JKFIT
    Number of shells: 88
    Number of basis function: 300
    Number of Cartesian functions: 372
    Spherical Harmonics?: true
    Max angular momentum: 4

  Cached 100.0% of DFT collocation blocks in 0.338 [GiB].

  Minimum eigenvalue in the overlap matrix is 8.4444249813E-05.
  Using Symmetric Orthogonalization.

  SCF Guess: Superposition of Atomic Densities via on-the-fly atomic UHF.

  ==> Iterations <==

                           Total Energy        Delta E     RMS |[F,P]|

   @DF-RKS iter SAD:  -113.82793679021843   -1.13828e+02   0.00000e+00 
   @DF-RKS iter   1:  -114.42461781199019   -5.96681e-01   6.33272e-03 DIIS
   @DF-RKS iter   2:  -114.39398668966246    3.06311e-02   7.82259e-03 DIIS
   @DF-RKS iter   3:  -114.50598781126052   -1.12001e-01   7.91204e-04 DIIS
   @DF-RKS iter   4:  -114.50740148991002   -1.41368e-03   1.89212e-04 DIIS
   @DF-RKS iter   5:  -114.50749508676350   -9.35969e-05   2.38827e-05 DIIS
   @DF-RKS iter   6:  -114.50749738438938   -2.29763e-06   4.08565e-06 DIIS
   @DF-RKS iter   7:  -114.50749750507876   -1.20689e-07   6.96429e-07 DIIS
   @DF-RKS iter   8:  -114.50749750880370   -3.72494e-09   2.26325e-07 DIIS
   @DF-RKS iter   9:  -114.50749750899080   -1.87100e-10   2.18682e-08 DIIS
   @DF-RKS iter  10:  -114.50749750899561   -4.81748e-12   6.53140e-09 DIIS
  Energy and wave function converged.


  ==> Post-Iterations <==

    Orbital Energies [Eh]
    ---------------------

    Doubly Occupied:                                                      

       1A1   -19.237750     2A1   -10.373516     3A1    -1.194821  
       4A1    -0.765036     1B1    -0.617895     5A1    -0.568128  
       1B2    -0.513387     2B1    -0.380746  

    Virtual:                                                              

       6A1     0.029332     2B2     0.031475     3B1     0.045930  
       7A1     0.076128     3B2     0.093498     8A1     0.128308  
       4B1     0.132310     9A1     0.168968     5B1     0.193922  
      10A1     0.200247     4B2     0.202206    11A1     0.238777  
       1A2     0.242591     6B1     0.269303     5B2     0.299948  
       7B1     0.329903    12A1     0.330277    13A1     0.345285  
      14A1     0.367573     2A2     0.377887     8B1     0.382893  
       6B2     0.400713    15A1     0.455318     9B1     0.461440  
      16A1     0.515009     7B2     0.520608    17A1     0.615352  
      10B1     0.623618    18A1     0.652961    11B1     0.729794  
       3A2     0.767477     8B2     0.771337    19A1     0.792435  
      20A1     0.800413     4A2     0.821615    12B1     0.825834  
       9B2     0.883400    13B1     0.887230    21A1     0.899071  
      10B2     0.939845    22A1     0.940597    23A1     0.960862  
       5A2     0.974002    14B1     0.982695    11B2     0.989663  
      24A1     1.027337    15B1     1.040175     6A2     1.049046  
      25A1     1.185060    12B2     1.190269    16B1     1.241885  
      26A1     1.302355    13B2     1.308321    27A1     1.366525  
      17B1     1.403083     7A2     1.444630    18B1     1.481608  
      28A1     1.495934    14B2     1.541379    29A1     1.610504  
      19B1     1.614511    15B2     1.710163    20B1     1.844611  
      30A1     1.905248     8A2     1.912306    31A1     1.970142  
      21B1     2.078004    16B2     2.145510     9A2     2.170894  
      32A1     2.171249    22B1     2.199531    33A1     2.326168  
      17B2     2.331563    23B1     2.403079    34A1     2.439864  
      18B2     2.538269    35A1     2.630528    10A2     2.633454  
      24B1     2.733359    36A1     2.764938    25B1     2.881469  
      19B2     2.882608    37A1     2.949905    11A2     2.983329  
      20B2     3.210047    38A1     3.238854    21B2     3.339506  
      26B1     3.352025    12A2     3.430539    39A1     3.460243  
      27B1     3.490063    40A1     3.684157    28B1     3.722575  
      22B2     3.784115    29B1     3.911058    41A1     3.918777  
      13A2     3.970367    30B1     3.986223    42A1     4.004166  
      23B2     4.144531    43A1     4.339558    24B2     4.442313  
      14A2     4.493684    44A1     4.531279    31B1     4.741654  
      25B2     4.768362    26B2     4.888826    32B1     4.901561  
      15A2     5.018957    45A1     5.050438    33B1     5.094147  
      46A1     5.117661    47A1     5.622694    34B1     5.858614  
      48A1     5.899886    35B1     6.212004    27B2     6.250011  
      36B1     6.296981    16A2     6.561405    49A1     6.595869  
      28B2     6.731027    17A2     6.777648    50A1     6.801549  
      51A1     7.026939    29B2     7.111583    52A1     7.300464  
      37B1     7.310198    38B1     7.373332    53A1    14.277544  
      54A1    15.716629  

    Final Occupation by Irrep:
             A1    A2    B1    B2 
    DOCC [     5,    0,    2,    1 ]

  @DF-RKS Final Energy:  -114.50749750899561

   => Energetics <=

    Nuclear Repulsion Energy =             31.2947414959465249
    One-Electron Energy =                -217.4456371263003973
    Two-Electron Energy =                  81.8546823426262904
    DFT Exchange-Correlation Energy =     -10.2777926788697300
    Empirical Dispersion Energy =           0.0000000000000000
    VV10 Nonlocal Energy =                  0.0665084576017106
    Total Energy =                       -114.5074975089956126

Computation Completed


Properties will be evaluated at   0.000000,   0.000000,   0.000000 [a0]

Properties computed using the SCF density matrix

  Nuclear Dipole Moment: [e a0]
     X:     0.0000      Y:     0.0000      Z:     2.2149

  Electronic Dipole Moment: [e a0]
     X:     0.0000      Y:     0.0000      Z:    -1.2338

  Dipole Moment: [e a0]
     X:     0.0000      Y:     0.0000      Z:     0.9811     Total:     0.9811

  Dipole Moment: [D]
     X:     0.0000      Y:     0.0000      Z:     2.4936     Total:     2.4936


*** tstop() called on bp1-compute00140.data.bp.acrc.priv at Tue Apr 27 17:22:42 2021
Module time:
	user time   =      91.65 seconds =       1.53 minutes
	system time =       2.22 seconds =       0.04 minutes
	total time  =          4 seconds =       0.07 minutes
Total time:
	user time   =     470.49 seconds =       7.84 minutes
	system time =      14.64 seconds =       0.24 minutes
	total time  =         21 seconds =       0.35 minutes

  //>>>>>>>>>>>>>>>>>>>>>>>>>>>>>>>>>>>//
  //    Loading displacement 6 of 7    //
  //<<<<<<<<<<<<<<<<<<<<<<<<<<<<<<<<<<<//

*** tstart() called on bp1-compute00140.data.bp.acrc.priv
*** at Tue Apr 27 17:22:42 2021

   => Loading Basis Set <=

    Name: AUG-CC-PV(T+D)Z
    Role: ORBITAL
    Keyword: BASIS
    atoms 1   entry O          line   347 file /work/zw18965/.conda/envs/p4env/share/psi4/basis/aug-cc-pv_tpd_z.gbs 
    atoms 2   entry C          line   255 file /work/zw18965/.conda/envs/p4env/share/psi4/basis/aug-cc-pv_tpd_z.gbs 
    atoms 3-4 entry H          line    56 file /work/zw18965/.conda/envs/p4env/share/psi4/basis/aug-cc-pv_tpd_z.gbs 


         ---------------------------------------------------------
                                   SCF
               by Justin Turney, Rob Parrish, Andy Simmonett
                          and Daniel G. A. Smith
                              RKS Reference
                       24 Threads, 137329 MiB Core
         ---------------------------------------------------------

  ==> Geometry <==

    Molecular point group: c2v
    Full point group: C2v

    Geometry (in Angstrom), charge = 0, multiplicity = 1:

       Center              X                  Y                   Z               Mass       
    ------------   -----------------  -----------------  -----------------  -----------------
         O            0.000000000000    -0.000000000000    -0.602499002387    15.994914619570
         C            0.000000000000    -0.000000000000     0.604100997613    12.000000000000
         H            0.935090763668     0.000000000000     1.184584652013     1.007825032230
         H           -0.935090763668    -0.000000000000     1.184584652013     1.007825032230

  Running in c2v symmetry.

  Rotational constants: A =      9.56475  B =      1.29535  C =      1.14085 [cm^-1]
  Rotational constants: A = 286744.12463  B =  38833.68662  C =  34201.75175 [MHz]
  Nuclear repulsion =   31.301725197061042

  Charge       = 0
  Multiplicity = 1
  Electrons    = 16
  Nalpha       = 8
  Nbeta        = 8

  ==> Algorithm <==

  SCF Algorithm Type is DF.
  DIIS enabled.
  MOM disabled.
  Fractional occupation disabled.
  Guess Type is SAD.
  Energy threshold   = 1.00e-08
  Density threshold  = 1.00e-08
  Integral threshold = 0.00e+00

  ==> Primary Basis <==

  Basis Set: AUG-CC-PV(T+D)Z
    Blend: AUG-CC-PV(T+D)Z
    Number of shells: 46
    Number of basis function: 138
    Number of Cartesian functions: 160
    Spherical Harmonics?: true
    Max angular momentum: 3

  ==> DFT Potential <==

   => Composite Functional: WB97X-V <= 

    wB97X-V Hyb-GGA Exchange-Correlation Functional

    N. Mardirossian and M. Head-Gordon, Phys. Chem. Chem. Phys. 16, 9904 (2014)

    Deriv               =              1
    GGA                 =           TRUE
    Meta                =          FALSE

    Exchange Hybrid     =           TRUE
    MP2 Hybrid          =          FALSE

   => Exchange-Correlation Functionals <=

    1.0000   wB97X-V range-separated functional

   => Exact (HF) Exchange <=

    0.8330            HF,LR [omega = 0.3000]
    0.1670               HF 

   => VV10 Non-Local Parameters <=

    VV10 B              =     6.0000E+00
    VV10 C              =     1.0000E-02

   => Molecular Quadrature <=

    Radial Scheme          =       TREUTLER
    Pruning Scheme         =           FLAT
    Nuclear Scheme         =       TREUTLER

    BS radius alpha        =              1
    Pruning alpha          =              1
    Radial Points          =             75
    Spherical Points       =            302
    Total Points           =          90600
    Total Blocks           =            750
    Max Points             =            256
    Max Functions          =            138

   => Loading Basis Set <=

    Name: (AUG-CC-PV(T+D)Z AUX)
    Role: JKFIT
    Keyword: DF_BASIS_SCF
    atoms 1   entry O          line   286 file /work/zw18965/.conda/envs/p4env/share/psi4/basis/aug-cc-pvtz-jkfit.gbs 
    atoms 2   entry C          line   162 file /work/zw18965/.conda/envs/p4env/share/psi4/basis/aug-cc-pvtz-jkfit.gbs 
    atoms 3-4 entry H          line    70 file /work/zw18965/.conda/envs/p4env/share/psi4/basis/aug-cc-pvtz-jkfit.gbs 

  ==> Pre-Iterations <==

   -------------------------------------------------------
    Irrep   Nso     Nmo     Nalpha   Nbeta   Ndocc  Nsocc
   -------------------------------------------------------
     A1        54      54       0       0       0       0
     A2        17      17       0       0       0       0
     B1        38      38       0       0       0       0
     B2        29      29       0       0       0       0
   -------------------------------------------------------
    Total     138     138       8       8       8       0
   -------------------------------------------------------

  ==> Integral Setup <==

  ==> DiskDFJK: Density-Fitted J/K Matrices <==

    J tasked:                  Yes
    K tasked:                  Yes
    wK tasked:                 Yes
    Omega:               3.000E-01
    OpenMP threads:             24
    Integrals threads:          24
    Memory [MiB]:           102650
    Algorithm:                Core
    Integral Cache:           NONE
    Schwarz Cutoff:          1E-12
    Fitting Condition:       1E-10

   => Auxiliary Basis Set <=

  Basis Set: (AUG-CC-PV(T+D)Z AUX)
    Blend: AUG-CC-PVTZ-JKFIT
    Number of shells: 88
    Number of basis function: 300
    Number of Cartesian functions: 372
    Spherical Harmonics?: true
    Max angular momentum: 4

  Cached 100.0% of DFT collocation blocks in 0.338 [GiB].

  Minimum eigenvalue in the overlap matrix is 8.3922454894E-05.
  Using Symmetric Orthogonalization.

  SCF Guess: Superposition of Atomic Densities via on-the-fly atomic UHF.

  ==> Iterations <==

                           Total Energy        Delta E     RMS |[F,P]|

   @DF-RKS iter SAD:  -113.82864158750013   -1.13829e+02   0.00000e+00 
   @DF-RKS iter   1:  -114.42471749429322   -5.96076e-01   6.32862e-03 DIIS
   @DF-RKS iter   2:  -114.39431803179494    3.03995e-02   7.81149e-03 DIIS
   @DF-RKS iter   3:  -114.50598091082132   -1.11663e-01   7.92036e-04 DIIS
   @DF-RKS iter   4:  -114.50739668158809   -1.41577e-03   1.89040e-04 DIIS
   @DF-RKS iter   5:  -114.50749021987066   -9.35383e-05   2.38819e-05 DIIS
   @DF-RKS iter   6:  -114.50749252062198   -2.30075e-06   4.07735e-06 DIIS
   @DF-RKS iter   7:  -114.50749264116729   -1.20545e-07   6.90122e-07 DIIS
   @DF-RKS iter   8:  -114.50749264484995   -3.68266e-09   2.24026e-07 DIIS
   @DF-RKS iter   9:  -114.50749264503372   -1.83775e-10   2.16768e-08 DIIS
   @DF-RKS iter  10:  -114.50749264503827   -4.54747e-12   6.49699e-09 DIIS
  Energy and wave function converged.


  ==> Post-Iterations <==

    Orbital Energies [Eh]
    ---------------------

    Doubly Occupied:                                                      

       1A1   -19.237836     2A1   -10.373410     3A1    -1.194997  
       4A1    -0.765358     1B1    -0.617728     5A1    -0.568372  
       1B2    -0.513519     2B1    -0.380773  

    Virtual:                                                              

       6A1     0.029321     2B2     0.031489     3B1     0.045959  
       7A1     0.076118     3B2     0.093493     8A1     0.128297  
       4B1     0.132265     9A1     0.169111     5B1     0.194020  
      10A1     0.200426     4B2     0.202154    11A1     0.238808  
       1A2     0.242711     6B1     0.269168     5B2     0.299822  
      12A1     0.329784     7B1     0.330065    13A1     0.345271  
      14A1     0.367822     2A2     0.377742     8B1     0.382994  
       6B2     0.400931    15A1     0.455813     9B1     0.461346  
      16A1     0.515502     7B2     0.520785    17A1     0.615534  
      10B1     0.623500    18A1     0.653058    11B1     0.729974  
       3A2     0.767230     8B2     0.771101    19A1     0.792258  
      20A1     0.800393     4A2     0.821664    12B1     0.826225  
       9B2     0.883352    13B1     0.887432    21A1     0.898854  
      10B2     0.938943    22A1     0.940438    23A1     0.960591  
       5A2     0.973807    14B1     0.982815    11B2     0.989990  
      24A1     1.027209    15B1     1.040628     6A2     1.050491  
      25A1     1.186295    12B2     1.190518    16B1     1.240923  
      26A1     1.302490    13B2     1.307973    27A1     1.367035  
      17B1     1.403622     7A2     1.444231    18B1     1.481971  
      28A1     1.495520    14B2     1.542478    29A1     1.610797  
      19B1     1.613913    15B2     1.710267    20B1     1.844933  
      30A1     1.906029     8A2     1.911917    31A1     1.971066  
      21B1     2.078456    16B2     2.145493     9A2     2.170719  
      32A1     2.171890    22B1     2.200701    33A1     2.326356  
      17B2     2.332122    23B1     2.403649    34A1     2.439960  
      18B2     2.538651    35A1     2.629592    10A2     2.633672  
      24B1     2.732433    36A1     2.764592    25B1     2.882292  
      19B2     2.882400    37A1     2.950102    11A2     2.983349  
      20B2     3.209997    38A1     3.238509    21B2     3.339461  
      26B1     3.352909    12A2     3.432322    39A1     3.460621  
      27B1     3.488393    40A1     3.686062    28B1     3.721116  
      22B2     3.785547    29B1     3.911675    41A1     3.919437  
      13A2     3.968267    30B1     3.987584    42A1     4.005257  
      23B2     4.146589    43A1     4.340870    24B2     4.441833  
      14A2     4.494843    44A1     4.532423    31B1     4.740524  
      25B2     4.770763    26B2     4.887992    32B1     4.903126  
      15A2     5.021276    45A1     5.054082    33B1     5.095270  
      46A1     5.120477    47A1     5.624338    34B1     5.858215  
      48A1     5.898440    35B1     6.213749    27B2     6.249971  
      36B1     6.298494    16A2     6.561923    49A1     6.596186  
      28B2     6.731679    17A2     6.777535    50A1     6.801666  
      51A1     7.026974    29B2     7.111631    52A1     7.300918  
      37B1     7.312387    38B1     7.374449    53A1    14.282755  
      54A1    15.731692  

    Final Occupation by Irrep:
             A1    A2    B1    B2 
    DOCC [     5,    0,    2,    1 ]

  @DF-RKS Final Energy:  -114.50749264503827

   => Energetics <=

    Nuclear Repulsion Energy =             31.3017251970610424
    One-Electron Energy =                -217.4578703838477907
    Two-Electron Energy =                  81.8603934262644088
    DFT Exchange-Correlation Energy =     -10.2782505838044322
    Empirical Dispersion Energy =           0.0000000000000000
    VV10 Nonlocal Energy =                  0.0665096992885067
    Total Energy =                       -114.5074926450382691

Computation Completed


Properties will be evaluated at   0.000000,   0.000000,   0.000000 [a0]

Properties computed using the SCF density matrix

  Nuclear Dipole Moment: [e a0]
     X:     0.0000      Y:     0.0000      Z:     2.2181

  Electronic Dipole Moment: [e a0]
     X:     0.0000      Y:     0.0000      Z:    -1.2370

  Dipole Moment: [e a0]
     X:     0.0000      Y:     0.0000      Z:     0.9812     Total:     0.9812

  Dipole Moment: [D]
     X:     0.0000      Y:     0.0000      Z:     2.4939     Total:     2.4939


*** tstop() called on bp1-compute00140.data.bp.acrc.priv at Tue Apr 27 17:22:46 2021
Module time:
	user time   =      91.47 seconds =       1.52 minutes
	system time =       2.09 seconds =       0.03 minutes
	total time  =          4 seconds =       0.07 minutes
Total time:
	user time   =     562.09 seconds =       9.37 minutes
	system time =      16.74 seconds =       0.28 minutes
	total time  =         25 seconds =       0.42 minutes

  //>>>>>>>>>>>>>>>>>>>>>>>>>>>>>>>>>>>//
  //    Loading displacement 7 of 7    //
  //<<<<<<<<<<<<<<<<<<<<<<<<<<<<<<<<<<<//

*** tstart() called on bp1-compute00140.data.bp.acrc.priv
*** at Tue Apr 27 17:22:46 2021

   => Loading Basis Set <=

    Name: AUG-CC-PV(T+D)Z
    Role: ORBITAL
    Keyword: BASIS
    atoms 1   entry O          line   347 file /work/zw18965/.conda/envs/p4env/share/psi4/basis/aug-cc-pv_tpd_z.gbs 
    atoms 2   entry C          line   255 file /work/zw18965/.conda/envs/p4env/share/psi4/basis/aug-cc-pv_tpd_z.gbs 
    atoms 3-4 entry H          line    56 file /work/zw18965/.conda/envs/p4env/share/psi4/basis/aug-cc-pv_tpd_z.gbs 


         ---------------------------------------------------------
                                   SCF
               by Justin Turney, Rob Parrish, Andy Simmonett
                          and Daniel G. A. Smith
                              RKS Reference
                       24 Threads, 137329 MiB Core
         ---------------------------------------------------------

  ==> Geometry <==

    Molecular point group: c2v
    Full point group: C2v

    Geometry (in Angstrom), charge = 0, multiplicity = 1:

       Center              X                  Y                   Z               Mass       
    ------------   -----------------  -----------------  -----------------  -----------------
         O            0.000000000000    -0.000000000000    -0.602499002387    15.994914619570
         C            0.000000000000    -0.000000000000     0.604100997613    12.000000000000
         H            0.938818056932     0.000000000000     1.184584652013     1.007825032230
         H           -0.938818056932    -0.000000000000     1.184584652013     1.007825032230

  Running in c2v symmetry.

  Rotational constants: A =      9.48896  B =      1.29535  C =      1.13976 [cm^-1]
  Rotational constants: A = 284471.78271  B =  38833.68662  C =  34169.19635 [MHz]
  Nuclear repulsion =   31.280440688513217

  Charge       = 0
  Multiplicity = 1
  Electrons    = 16
  Nalpha       = 8
  Nbeta        = 8

  ==> Algorithm <==

  SCF Algorithm Type is DF.
  DIIS enabled.
  MOM disabled.
  Fractional occupation disabled.
  Guess Type is SAD.
  Energy threshold   = 1.00e-08
  Density threshold  = 1.00e-08
  Integral threshold = 0.00e+00

  ==> Primary Basis <==

  Basis Set: AUG-CC-PV(T+D)Z
    Blend: AUG-CC-PV(T+D)Z
    Number of shells: 46
    Number of basis function: 138
    Number of Cartesian functions: 160
    Spherical Harmonics?: true
    Max angular momentum: 3

  ==> DFT Potential <==

   => Composite Functional: WB97X-V <= 

    wB97X-V Hyb-GGA Exchange-Correlation Functional

    N. Mardirossian and M. Head-Gordon, Phys. Chem. Chem. Phys. 16, 9904 (2014)

    Deriv               =              1
    GGA                 =           TRUE
    Meta                =          FALSE

    Exchange Hybrid     =           TRUE
    MP2 Hybrid          =          FALSE

   => Exchange-Correlation Functionals <=

    1.0000   wB97X-V range-separated functional

   => Exact (HF) Exchange <=

    0.8330            HF,LR [omega = 0.3000]
    0.1670               HF 

   => VV10 Non-Local Parameters <=

    VV10 B              =     6.0000E+00
    VV10 C              =     1.0000E-02

   => Molecular Quadrature <=

    Radial Scheme          =       TREUTLER
    Pruning Scheme         =           FLAT
    Nuclear Scheme         =       TREUTLER

    BS radius alpha        =              1
    Pruning alpha          =              1
    Radial Points          =             75
    Spherical Points       =            302
    Total Points           =          90600
    Total Blocks           =            750
    Max Points             =            256
    Max Functions          =            138

   => Loading Basis Set <=

    Name: (AUG-CC-PV(T+D)Z AUX)
    Role: JKFIT
    Keyword: DF_BASIS_SCF
    atoms 1   entry O          line   286 file /work/zw18965/.conda/envs/p4env/share/psi4/basis/aug-cc-pvtz-jkfit.gbs 
    atoms 2   entry C          line   162 file /work/zw18965/.conda/envs/p4env/share/psi4/basis/aug-cc-pvtz-jkfit.gbs 
    atoms 3-4 entry H          line    70 file /work/zw18965/.conda/envs/p4env/share/psi4/basis/aug-cc-pvtz-jkfit.gbs 

  ==> Pre-Iterations <==

   -------------------------------------------------------
    Irrep   Nso     Nmo     Nalpha   Nbeta   Ndocc  Nsocc
   -------------------------------------------------------
     A1        54      54       0       0       0       0
     A2        17      17       0       0       0       0
     B1        38      38       0       0       0       0
     B2        29      29       0       0       0       0
   -------------------------------------------------------
    Total     138     138       8       8       8       0
   -------------------------------------------------------

  ==> Integral Setup <==

  ==> DiskDFJK: Density-Fitted J/K Matrices <==

    J tasked:                  Yes
    K tasked:                  Yes
    wK tasked:                 Yes
    Omega:               3.000E-01
    OpenMP threads:             24
    Integrals threads:          24
    Memory [MiB]:           102650
    Algorithm:                Core
    Integral Cache:           NONE
    Schwarz Cutoff:          1E-12
    Fitting Condition:       1E-10

   => Auxiliary Basis Set <=

  Basis Set: (AUG-CC-PV(T+D)Z AUX)
    Blend: AUG-CC-PVTZ-JKFIT
    Number of shells: 88
    Number of basis function: 300
    Number of Cartesian functions: 372
    Spherical Harmonics?: true
    Max angular momentum: 4

  Cached 100.0% of DFT collocation blocks in 0.338 [GiB].

  Minimum eigenvalue in the overlap matrix is 8.5346806423E-05.
  Using Symmetric Orthogonalization.

  SCF Guess: Superposition of Atomic Densities via on-the-fly atomic UHF.

  ==> Iterations <==

                           Total Energy        Delta E     RMS |[F,P]|

   @DF-RKS iter SAD:  -113.82695217356317   -1.13827e+02   0.00000e+00 
   @DF-RKS iter   1:  -114.42443455687147   -5.97482e-01   6.34075e-03 DIIS
   @DF-RKS iter   2:  -114.39334076660144    3.10938e-02   7.84448e-03 DIIS
   @DF-RKS iter   3:  -114.50601913542032   -1.12678e-01   7.88791e-04 DIIS
   @DF-RKS iter   4:  -114.50742612766082   -1.40699e-03   1.89489e-04 DIIS
   @DF-RKS iter   5:  -114.50752013494112   -9.40073e-05   2.39081e-05 DIIS
   @DF-RKS iter   6:  -114.50752244493977   -2.31000e-06   4.10067e-06 DIIS
   @DF-RKS iter   7:  -114.50752256674716   -1.21807e-07   6.99068e-07 DIIS
   @DF-RKS iter   8:  -114.50752257050446   -3.75731e-09   2.27231e-07 DIIS
   @DF-RKS iter   9:  -114.50752257069340   -1.88933e-10   2.19578e-08 DIIS
   @DF-RKS iter  10:  -114.50752257069796   -4.56168e-12   6.53785e-09 DIIS
  Energy and wave function converged.


  ==> Post-Iterations <==

    Orbital Energies [Eh]
    ---------------------

    Doubly Occupied:                                                      

       1A1   -19.237914     2A1   -10.374053     3A1    -1.195079  
       4A1    -0.764384     1B1    -0.617367     5A1    -0.568251  
       1B2    -0.513581     2B1    -0.380710  

[...]
         C            0.000000000000     0.000392848110     0.600855685588    12.000000000000
         H            0.940945292540    -0.001575084556     1.183045401673     1.007825032230
         H           -0.940945292540    -0.001575084556     1.183045401673     1.007825032230

  Running in cs symmetry.

  Rotational constants: A =      9.44606  B =      1.30587  C =      1.14727 [cm^-1]
  Rotational constants: A = 283185.89049  B =  39149.00871  C =  34394.22007 [MHz]
  Nuclear repulsion =   31.374314571569172

  Charge       = 0
  Multiplicity = 1
  Electrons    = 16
  Nalpha       = 8
  Nbeta        = 8

  ==> Algorithm <==

  SCF Algorithm Type is DF.
  DIIS enabled.
  MOM disabled.
  Fractional occupation disabled.
  Guess Type is SAD.
  Energy threshold   = 1.00e-10
  Density threshold  = 1.00e-10
  Integral threshold = 0.00e+00

  ==> Primary Basis <==

  Basis Set: AUG-CC-PV(T+D)Z
    Blend: AUG-CC-PV(T+D)Z
    Number of shells: 46
    Number of basis function: 138
    Number of Cartesian functions: 160
    Spherical Harmonics?: true
    Max angular momentum: 3

  ==> DFT Potential <==

   => Composite Functional: WB97X-V <= 

    wB97X-V Hyb-GGA Exchange-Correlation Functional

    N. Mardirossian and M. Head-Gordon, Phys. Chem. Chem. Phys. 16, 9904 (2014)

    Deriv               =              1
    GGA                 =           TRUE
    Meta                =          FALSE

    Exchange Hybrid     =           TRUE
    MP2 Hybrid          =          FALSE

   => Exchange-Correlation Functionals <=

    1.0000   wB97X-V range-separated functional

   => Exact (HF) Exchange <=

    0.8330            HF,LR [omega = 0.3000]
    0.1670               HF 

   => VV10 Non-Local Parameters <=

    VV10 B              =     6.0000E+00
    VV10 C              =     1.0000E-02

   => Molecular Quadrature <=

    Radial Scheme          =       TREUTLER
    Pruning Scheme         =           FLAT
    Nuclear Scheme         =       TREUTLER

    BS radius alpha        =              1
    Pruning alpha          =              1
    Radial Points          =             75
    Spherical Points       =            302
    Total Points           =          90600
    Total Blocks           =            751
    Max Points             =            256
    Max Functions          =            138

   => Loading Basis Set <=

    Name: (AUG-CC-PV(T+D)Z AUX)
    Role: JKFIT
    Keyword: DF_BASIS_SCF
    atoms 1   entry O          line   286 file /work/zw18965/.conda/envs/p4env/share/psi4/basis/aug-cc-pvtz-jkfit.gbs 
    atoms 2   entry C          line   162 file /work/zw18965/.conda/envs/p4env/share/psi4/basis/aug-cc-pvtz-jkfit.gbs 
    atoms 3-4 entry H          line    70 file /work/zw18965/.conda/envs/p4env/share/psi4/basis/aug-cc-pvtz-jkfit.gbs 

  ==> Pre-Iterations <==

   -------------------------------------------------------
    Irrep   Nso     Nmo     Nalpha   Nbeta   Ndocc  Nsocc
   -------------------------------------------------------
     A'        83      83       0       0       0       0
     A"        55      55       0       0       0       0
   -------------------------------------------------------
    Total     138     138       8       8       8       0
   -------------------------------------------------------

  ==> Integral Setup <==

  ==> DiskDFJK: Density-Fitted J/K Matrices <==

    J tasked:                  Yes
    K tasked:                  Yes
    wK tasked:                 Yes
    Omega:               3.000E-01
    OpenMP threads:             24
    Integrals threads:          24
    Memory [MiB]:           102650
    Algorithm:                Core
    Integral Cache:           NONE
    Schwarz Cutoff:          1E-12
    Fitting Condition:       1E-10

   => Auxiliary Basis Set <=

  Basis Set: (AUG-CC-PV(T+D)Z AUX)
    Blend: AUG-CC-PVTZ-JKFIT
    Number of shells: 88
    Number of basis function: 300
    Number of Cartesian functions: 372
    Spherical Harmonics?: true
    Max angular momentum: 4

  Cached 100.0% of DFT collocation blocks in 0.338 [GiB].

  Minimum eigenvalue in the overlap matrix is 8.5899206125E-05.
  Using Symmetric Orthogonalization.

  SCF Guess: Superposition of Atomic Densities via on-the-fly atomic UHF.

  ==> Iterations <==

                           Total Energy        Delta E     RMS |[F,P]|

   @DF-RKS iter SAD:  -113.83572474958613   -1.13836e+02   0.00000e+00 
   @DF-RKS iter   1:  -114.42397630291184   -5.88252e-01   4.73853e-03 DIIS
   @DF-RKS iter   2:  -114.39408051984472    2.98958e-02   5.82566e-03 DIIS
   @DF-RKS iter   3:  -114.50608479978966   -1.12004e-01   5.86350e-04 DIIS
   @DF-RKS iter   4:  -114.50748523079416   -1.40043e-03   1.40825e-04 DIIS
   @DF-RKS iter   5:  -114.50757914670328   -9.39159e-05   1.75727e-05 DIIS
   @DF-RKS iter   6:  -114.50758142385655   -2.27715e-06   3.02084e-06 DIIS
   @DF-RKS iter   7:  -114.50758154375491   -1.19898e-07   4.98759e-07 DIIS
   @DF-RKS iter   8:  -114.50758154729868   -3.54378e-09   1.58080e-07 DIIS
   @DF-RKS iter   9:  -114.50758154746666   -1.67972e-10   1.53723e-08 DIIS
   @DF-RKS iter  10:  -114.50758154747093   -4.27747e-12   4.53640e-09 DIIS
   @DF-RKS iter  11:  -114.50758154747108   -1.42109e-13   5.72769e-10 DIIS
   @DF-RKS iter  12:  -114.50758154747112   -4.26326e-14   1.12072e-10 DIIS
   @DF-RKS iter  13:  -114.50758154747125   -1.27898e-13   2.39051e-11 DIIS
  Energy and wave function converged.


  ==> Post-Iterations <==

    Orbital Energies [Eh]
    ---------------------

    Doubly Occupied:                                                      

       1Ap   -19.237653     2Ap   -10.373565     3Ap    -1.198311  
       4Ap    -0.762794     1App   -0.617774     5Ap    -0.569192  
       6Ap    -0.515664     2App   -0.380221  

    Virtual:                                                              

       7Ap     0.029423     8Ap     0.032750     3App    0.046075  
       9Ap     0.076109    10Ap     0.093877    11Ap     0.128308  
       4App    0.132223    12Ap     0.168744     5App    0.194178  
      13Ap     0.199703    14Ap     0.201988    15Ap     0.238997  
       6App    0.242605     7App    0.268967    16Ap     0.300092  
       8App    0.329697    17Ap     0.330415    18Ap     0.345398  
      19Ap     0.366883     9App    0.377685    10App    0.382878  
      20Ap     0.401169    21Ap     0.455672    11App    0.461410  
      22Ap     0.515670    23Ap     0.519591    24Ap     0.616055  
      12App    0.623155    25Ap     0.654613    13App    0.729246  
      14App    0.768150    26Ap     0.771085    27Ap     0.792001  
      28Ap     0.800624    15App    0.822055    16App    0.825311  
      29Ap     0.883689    17App    0.886731    30Ap     0.898462  
      31Ap     0.940474    32Ap     0.942807    33Ap     0.961122  
      18App    0.973324    19App    0.982121    34Ap     0.990028  
      35Ap     1.027060    20App    1.040158    21App    1.047202  
      36Ap     1.186974    37Ap     1.188607    22App    1.241242  
      38Ap     1.302436    39Ap     1.307574    40Ap     1.367021  
      23App    1.401471    24App    1.444323    25App    1.480696  
      41Ap     1.496583    42Ap     1.539933    43Ap     1.610081  
      26App    1.614194    44Ap     1.712110    27App    1.842239  
      45Ap     1.900877    28App    1.910673    46Ap     1.963499  
      29App    2.079431    47Ap     2.146743    30App    2.170957  
      48Ap     2.173420    31App    2.200923    49Ap     2.327187  
      50Ap     2.332784    32App    2.404792    51Ap     2.443762  
      52Ap     2.539381    53Ap     2.632938    33App    2.635521  
      34App    2.735609    54Ap     2.769409    55Ap     2.878061  
      35App    2.879269    56Ap     2.949527    36App    2.984922  
      57Ap     3.209376    58Ap     3.243528    59Ap     3.339142  
      37App    3.350431    38App    3.433488    60Ap     3.459339  
      39App    3.488806    61Ap     3.679401    40App    3.714782  
      62Ap     3.788060    41App    3.914550    63Ap     3.925054  
      42App    3.968788    43App    3.981918    64Ap     4.008217  
      65Ap     4.141152    66Ap     4.339589    67Ap     4.438628  
      44App    4.488330    68Ap     4.531451    45App    4.747431  
      69Ap     4.775286    70Ap     4.884868    46App    4.898192  
      47App    5.007197    71Ap     5.038732    48App    5.080775  
      72Ap     5.102737    73Ap     5.604670    49App    5.856098  
      74Ap     5.902520    50App    6.211106    75Ap     6.250182  
      51App    6.297948    52App    6.563422    76Ap     6.600038  
      77Ap     6.738047    53App    6.779087    78Ap     6.802272  
      79Ap     7.032722    80Ap     7.111741    81Ap     7.305024  
      54App    7.308410    55App    7.377391    82Ap    14.400973  
      83Ap    15.636422  

    Final Occupation by Irrep:
             Ap   App 
    DOCC [     6,    2 ]

  @DF-RKS Final Energy:  -114.50758154747125

   => Energetics <=

    Nuclear Repulsion Energy =             31.3743145715691725
    One-Electron Energy =                -217.5964062049775407
    Two-Electron Energy =                  81.9270625160210813
    DFT Exchange-Correlation Energy =     -10.2790567098152188
    Empirical Dispersion Energy =           0.0000000000000000
    VV10 Nonlocal Energy =                  0.0665042797312536
    Total Energy =                       -114.5075815474712471

Computation Completed


Properties will be evaluated at   0.000000,   0.000000,   0.000000 [a0]

Properties computed using the SCF density matrix

  Nuclear Dipole Moment: [e a0]
     X:     0.0000      Y:    -0.0030      Z:     2.2153

  Electronic Dipole Moment: [e a0]
     X:     0.0000      Y:     0.0025      Z:    -1.2482

  Dipole Moment: [e a0]
     X:     0.0000      Y:    -0.0004      Z:     0.9671     Total:     0.9671

  Dipole Moment: [D]
     X:     0.0000      Y:    -0.0010      Z:     2.4580     Total:     2.4580


*** tstop() called on bp1-compute00140.data.bp.acrc.priv at Tue Apr 27 17:25:15 2021
Module time:
	user time   =     104.37 seconds =       1.74 minutes
	system time =       2.22 seconds =       0.04 minutes
	total time  =          5 seconds =       0.08 minutes
Total time:
	user time   =    4017.06 seconds =      66.95 minutes
	system time =      96.32 seconds =       1.61 minutes
	total time  =        174 seconds =       2.90 minutes

         ----------------------------------------------------------
                                   FINDIF
                     R. A. King and Jonathon Misiewicz
         ---------------------------------------------------------

  Computing second-derivative from energies using projected, 
  symmetry-adapted, cartesian coordinates.

  18 energies passed in, including the reference geometry.
    Using 3-point formula.
    Energy without displacement: -114.5075822374
    Check energies below for precision!
    0: -1        :      -114.5075806651
    0: 1         :      -114.5075807766
    1: -1        :      -114.5075809510
    1: 1         :      -114.5075795523
    2: -1        :      -114.5075791898
    2: 1         :      -114.5075787193
    0: 1, 1: 1   :      -114.5075784120
    0: -1, 1: -1 :      -114.5075796942
    0: 1, 2: 1   :      -114.5075774747
    0: -1, 2: -1 :      -114.5075778333
    1: 1, 2: 1   :      -114.5075785838
    1: -1, 2: -1 :      -114.5075804666
    3: -1        :      -114.5075814793
    4: -1        :      -114.5075779921
    3: 1, 4: 1   :      -114.5075772732
    3: -1, 4: -1 :      -114.5075772744
    5: -1        :      -114.5075815475

-------------------------------------------------------------


  ==> Harmonic Vibrational Analysis <==

  non-mass-weighted Hessian:       Symmetric? True   Hermitian? True   Lin Dep Dim?  6 (0)
  projection of translations (True) and rotations (True) removed 6 degrees of freedom (6)
  total projector:                 Symmetric? True   Hermitian? True   Lin Dep Dim?  6 (6)
  mass-weighted Hessian:           Symmetric? True   Hermitian? True   Lin Dep Dim?  6 (0)
  pre-proj  low-frequency mode:    0.0000i [cm^-1]
  pre-proj  low-frequency mode:    0.0000i [cm^-1]
  pre-proj  low-frequency mode:    0.0000i [cm^-1]
  pre-proj  low-frequency mode:    0.0000i [cm^-1]
  pre-proj  low-frequency mode:    0.0000  [cm^-1]
  pre-proj  low-frequency mode:    0.0000  [cm^-1]
  pre-proj  all modes:['0.0000i' '0.0000i' '0.0000i' '0.0000i' '0.0000' '0.0000' '1207.6647'
 '1265.8713' '1531.9971' '1843.2957' '2932.3703' '2995.7840']
  projected mass-weighted Hessian: Symmetric? True   Hermitian? True   Lin Dep Dim?  6 (6)
  post-proj low-frequency mode:    0.0000i [cm^-1] (TR)
  post-proj low-frequency mode:    0.0000i [cm^-1] (TR)
  post-proj low-frequency mode:    0.0000i [cm^-1] (TR)
  post-proj low-frequency mode:    0.0000  [cm^-1] (TR)
  post-proj low-frequency mode:    0.0000  [cm^-1] (TR)
  post-proj low-frequency mode:    0.0000  [cm^-1] (TR)
  post-proj  all modes:['0.0000i' '0.0000i' '0.0000i' '0.0000' '0.0000' '0.0000' '1207.6647'
 '1265.8713' '1531.9971' '1843.2957' '2932.3703' '2995.7840']

  Vibration                       7                   8                   9           
  Freq [cm^-1]                1207.6647           1265.8713           1531.9971       
  Irrep                           B2                  B1                  A1          
  Reduced mass [u]              1.3659              1.3428              1.0953        
  Force const [mDyne/A]         1.1737              1.2678              1.5147        
  Turning point v=0 [a0]        0.2702              0.2661              0.2679        
  RMS dev v=0 [a0 u^1/2]        0.2233              0.2181              0.1982        
  Char temp [K]               1737.5606           1821.3069           2204.2027       
  ----------------------------------------------------------------------------------
      1   O                0.00  0.04 -0.00   -0.08  0.00 -0.00    0.00  0.00 -0.08   
      2   C               -0.00 -0.17 -0.00    0.15 -0.00 -0.00   -0.00 -0.00 -0.00   
      3   H               -0.00  0.70 -0.00   -0.25  0.00  0.65   -0.35 -0.00  0.61   
      4   H               -0.00  0.70 -0.00   -0.25  0.00 -0.65    0.35  0.00  0.61   

  Vibration                       10                  11                  12          
  Freq [cm^-1]                1843.2957           2932.3703           2995.7840       
  Irrep                           A1                  A1                  B1          
  Reduced mass [u]              7.8887              1.0446              1.1207        
  Force const [mDyne/A]        15.7923              5.2921              5.9262        
  Turning point v=0 [a0]        0.0910              0.1983              0.1894        
  RMS dev v=0 [a0 u^1/2]        0.1807              0.1433              0.1418        
  Char temp [K]               2652.0921           4219.0280           4310.2662       
  ----------------------------------------------------------------------------------
      1   O                0.00 -0.00 -0.43    0.00  0.00 -0.00    0.00  0.00  0.00   
      2   C               -0.00  0.00  0.61   -0.00  0.00 -0.06   -0.10  0.00  0.00   
      3   H                0.44 -0.00 -0.17    0.61 -0.00  0.35    0.60  0.00  0.37   
      4   H               -0.44 -0.00 -0.17   -0.61 -0.00  0.35    0.60  0.00 -0.37   

  ==> Thermochemistry Components <==

  Entropy, S
    Electronic S            0.000 [cal/(mol K)]        0.000 [J/(mol K)]       0.00000000 [mEh/K] (multiplicity = 1)
    Translational S        36.130 [cal/(mol K)]      151.169 [J/(mol K)]       0.05757719 [mEh/K] (mol. weight = 30.0106 [u], P = 101325.00 [Pa])
    Rotational S           16.007 [cal/(mol K)]       66.973 [J/(mol K)]       0.02550864 [mEh/K] (symmetry no. = 2)
    Vibrational S           0.085 [cal/(mol K)]        0.354 [J/(mol K)]       0.00013473 [mEh/K]
  Total S                  52.222 [cal/(mol K)]      218.496 [J/(mol K)]       0.08322056 [mEh/K]
  Correction S              0.000 [cal/(mol K)]        0.000 [J/(mol K)]       0.00000000 [mEh/K]

  Constant volume heat capacity, Cv
    Electronic Cv           0.000 [cal/(mol K)]        0.000 [J/(mol K)]       0.00000000 [mEh/K]
    Translational Cv        2.981 [cal/(mol K)]       12.472 [J/(mol K)]       0.00475022 [mEh/K]
    Rotational Cv           2.981 [cal/(mol K)]       12.472 [J/(mol K)]       0.00475022 [mEh/K]
    Vibrational Cv          0.455 [cal/(mol K)]        1.902 [J/(mol K)]       0.00072433 [mEh/K]
  Total Cv                  6.416 [cal/(mol K)]       26.845 [J/(mol K)]       0.01022476 [mEh/K]
  Correction Cv             0.000 [cal/(mol K)]        0.000 [J/(mol K)]       0.00000000 [mEh/K]

  Constant pressure heat capacity, Cp
    Electronic Cp           0.000 [cal/(mol K)]        0.000 [J/(mol K)]       0.00000000 [mEh/K]
    Translational Cp        4.968 [cal/(mol K)]       20.786 [J/(mol K)]       0.00791703 [mEh/K]
    Rotational Cp           2.981 [cal/(mol K)]       12.472 [J/(mol K)]       0.00475022 [mEh/K]
    Vibrational Cp          0.455 [cal/(mol K)]        1.902 [J/(mol K)]       0.00072433 [mEh/K]
  Total Cp                  8.403 [cal/(mol K)]       35.160 [J/(mol K)]       0.01339157 [mEh/K]
  Correction Cp             0.000 [cal/(mol K)]        0.000 [J/(mol K)]       0.00000000 [mEh/K]

  ==> Thermochemistry Energy Analysis <==

  Raw electronic energy, E0
  Total E0, Electronic energy at well bottom at 0 [K]                 -114.50758224 [Eh]

  Zero-point energy, ZPE_vib = Sum_i nu_i / 2
    Electronic ZPE          0.000 [kcal/mol]        0.000 [kJ/mol]       0.00000000 [Eh]
    Translational ZPE       0.000 [kcal/mol]        0.000 [kJ/mol]       0.00000000 [Eh]
    Rotational ZPE          0.000 [kcal/mol]        0.000 [kJ/mol]       0.00000000 [Eh]
    Vibrational ZPE        16.836 [kcal/mol]       70.442 [kJ/mol]       0.02682994 [Eh]        5888.491 [cm^-1]
  Correction ZPE           16.836 [kcal/mol]       70.442 [kJ/mol]       0.02682994 [Eh]        5888.491 [cm^-1]
  Total ZPE, Electronic energy at 0 [K]                               -114.48075230 [Eh]

  Thermal Energy, E (includes ZPE)
    Electronic E            0.000 [kcal/mol]        0.000 [kJ/mol]       0.00000000 [Eh]
    Translational E         0.889 [kcal/mol]        3.718 [kJ/mol]       0.00141628 [Eh]
    Rotational E            0.889 [kcal/mol]        3.718 [kJ/mol]       0.00141628 [Eh]
    Vibrational E          16.858 [kcal/mol]       70.533 [kJ/mol]       0.02686451 [Eh]
  Correction E             18.635 [kcal/mol]       77.970 [kJ/mol]       0.02969707 [Eh]
  Total E, Electronic energy at  298.15 [K]                           -114.47788517 [Eh]

  Enthalpy, H_trans = E_trans + k_B * T
    Electronic H            0.000 [kcal/mol]        0.000 [kJ/mol]       0.00000000 [Eh]
    Translational H         1.481 [kcal/mol]        6.197 [kJ/mol]       0.00236046 [Eh]
    Rotational H            0.889 [kcal/mol]        3.718 [kJ/mol]       0.00141628 [Eh]
    Vibrational H          16.858 [kcal/mol]       70.533 [kJ/mol]       0.02686451 [Eh]
  Correction H             19.228 [kcal/mol]       80.449 [kJ/mol]       0.03064125 [Eh]
  Total H, Enthalpy at  298.15 [K]                                    -114.47694099 [Eh]

  Gibbs free energy, G = H - T * S
    Electronic G            0.000 [kcal/mol]        0.000 [kJ/mol]       0.00000000 [Eh]
    Translational G        -9.291 [kcal/mol]      -38.874 [kJ/mol]      -0.01480618 [Eh]
    Rotational G           -3.884 [kcal/mol]      -16.250 [kJ/mol]      -0.00618912 [Eh]
    Vibrational G          16.833 [kcal/mol]       70.427 [kJ/mol]       0.02682434 [Eh]
  Correction G              3.658 [kcal/mol]       15.304 [kJ/mol]       0.00582904 [Eh]
  Total G, Free enthalpy at  298.15 [K]                               -114.50175320 [Eh]

    Psi4 stopped on: Tuesday, 27 April 2021 05:25PM
    Psi4 wall time for execution: 0:02:53.63

*** Psi4 exiting successfully. Buy a developer a beer!
