
    -----------------------------------------------------------------------
          Psi4: An Open-Source Ab Initio Electronic Structure Package
                               Psi4 1.3.2 release

                         Git: Rev {HEAD} ecbda83 


    R. M. Parrish, L. A. Burns, D. G. A. Smith, A. C. Simmonett,
    A. E. DePrince III, E. G. Hohenstein, U. Bozkaya, A. Yu. Sokolov,
    R. Di Remigio, R. M. Richard, J. F. Gonthier, A. M. James,
    H. R. McAlexander, A. Kumar, M. Saitow, X. Wang, B. P. Pritchard,
    P. Verma, H. F. Schaefer III, K. Patkowski, R. A. King, E. F. Valeev,
    F. A. Evangelista, J. M. Turney, T. D. Crawford, and C. D. Sherrill,
    J. Chem. Theory Comput. 13(7) pp 3185--3197 (2017).
    (doi: 10.1021/acs.jctc.7b00174)


                         Additional Contributions by
    P. Kraus, H. Kruse, M. H. Lechner, M. C. Schieber, R. A. Shaw,
    A. Alenaizan, R. Galvelis, Z. L. Glick, S. Lehtola, and J. P. Misiewicz

    -----------------------------------------------------------------------


    Psi4 started on: Tuesday, 27 April 2021 05:23PM

    Process ID: 277079
    Host:       bp1-compute00046.data.bp.acrc.priv
    PSIDATADIR: /work/zw18965/.conda/envs/p4env/share/psi4
    Memory:     500.0 MiB
    Threads:    24
    
  ==> Input File <==

--------------------------------------------------------------------------
memory 144 GB

molecule {
0 1
H 0.0000000000 0.0000000000 0.0000000000
C 0.0000000000 0.0000000000 1.0668000000
N 0.0000000000 0.0000000000 2.2232000000
}

set dynamic_level 1
set basis aug-cc-pV(T+d)Z
 
optimize("wB97X-V")
frequencies("wB97X-V")
--------------------------------------------------------------------------

  Memory set to 134.110 GiB by Python driver.
gradient() will perform gradient computation by finite difference of analytic energies.

         ----------------------------------------------------------
                                   FINDIF
                     R. A. King and Jonathon Misiewicz
         ---------------------------------------------------------

  Using finite-differences of energies to determine gradients.
    Generating geometries for use with 3-point formula.
    Displacement size will be 5.00e-03.
    Number of atoms is 3.
    Number of symmetric SALCs is 2.
    Translations projected? 1. Rotations projected? 1.
    Number of geometries (including reference) is 5.

  //>>>>>>>>>>>>>>>>>>>>>>>>>>>>>>>>>>>//
  //    Loading displacement 1 of 5    //
  //<<<<<<<<<<<<<<<<<<<<<<<<<<<<<<<<<<<//

*** tstart() called on bp1-compute00046.data.bp.acrc.priv
*** at Tue Apr 27 17:23:47 2021

   => Loading Basis Set <=

    Name: AUG-CC-PV(T+D)Z
    Role: ORBITAL
    Keyword: BASIS
    atoms 1 entry H          line    56 file /work/zw18965/.conda/envs/p4env/share/psi4/basis/aug-cc-pv_tpd_z.gbs 
    atoms 2 entry C          line   255 file /work/zw18965/.conda/envs/p4env/share/psi4/basis/aug-cc-pv_tpd_z.gbs 
    atoms 3 entry N          line   301 file /work/zw18965/.conda/envs/p4env/share/psi4/basis/aug-cc-pv_tpd_z.gbs 


         ---------------------------------------------------------
                                   SCF
               by Justin Turney, Rob Parrish, Andy Simmonett
                          and Daniel G. A. Smith
                              RKS Reference
                       24 Threads, 137329 MiB Core
         ---------------------------------------------------------

  ==> Geometry <==

    Molecular point group: c2v
    Full point group: C_inf_v

    Geometry (in Angstrom), charge = 0, multiplicity = 1:

       Center              X                  Y                   Z               Mass       
    ------------   -----------------  -----------------  -----------------  -----------------
         H            0.000000000000     0.000000000000    -1.626500253361     1.007825032230
         C            0.000000000000     0.000000000000    -0.559700253361    12.000000000000
         N            0.000000000000     0.000000000000     0.596699746639    14.003074004430

  Running in c2v symmetry.

  Rotational constants: A = ************  B =      1.47729  C =      1.47729 [cm^-1]
  Rotational constants: A = ************  B =  44288.06083  C =  44288.06083 [MHz]
  Nuclear repulsion =   23.861936158778459

  Charge       = 0
  Multiplicity = 1
  Electrons    = 14
  Nalpha       = 7
  Nbeta        = 7

  ==> Algorithm <==

  SCF Algorithm Type is DF.
  DIIS enabled.
  MOM disabled.
  Fractional occupation disabled.
  Guess Type is SAD.
  Energy threshold   = 1.00e-08
  Density threshold  = 1.00e-08
  Integral threshold = 0.00e+00

  ==> Primary Basis <==

  Basis Set: AUG-CC-PV(T+D)Z
    Blend: AUG-CC-PV(T+D)Z
    Number of shells: 37
    Number of basis function: 115
    Number of Cartesian functions: 135
    Spherical Harmonics?: true
    Max angular momentum: 3

  ==> DFT Potential <==

   => Composite Functional: WB97X-V <= 

    wB97X-V Hyb-GGA Exchange-Correlation Functional

    N. Mardirossian and M. Head-Gordon, Phys. Chem. Chem. Phys. 16, 9904 (2014)

    Deriv               =              1
    GGA                 =           TRUE
    Meta                =          FALSE

    Exchange Hybrid     =           TRUE
    MP2 Hybrid          =          FALSE

   => Exchange-Correlation Functionals <=

    1.0000   wB97X-V range-separated functional

   => Exact (HF) Exchange <=

    0.8330            HF,LR [omega = 0.3000]
    0.1670               HF 

   => VV10 Non-Local Parameters <=

    VV10 B              =     6.0000E+00
    VV10 C              =     1.0000E-02

   => Molecular Quadrature <=

    Radial Scheme          =       TREUTLER
    Pruning Scheme         =           FLAT
    Nuclear Scheme         =       TREUTLER

    BS radius alpha        =              1
    Pruning alpha          =              1
    Radial Points          =             75
    Spherical Points       =            302
    Total Points           =          67950
    Total Blocks           =            583
    Max Points             =            256
    Max Functions          =            115

   => Loading Basis Set <=

    Name: (AUG-CC-PV(T+D)Z AUX)
    Role: JKFIT
    Keyword: DF_BASIS_SCF
    atoms 1 entry H          line    70 file /work/zw18965/.conda/envs/p4env/share/psi4/basis/aug-cc-pvtz-jkfit.gbs 
    atoms 2 entry C          line   162 file /work/zw18965/.conda/envs/p4env/share/psi4/basis/aug-cc-pvtz-jkfit.gbs 
    atoms 3 entry N          line   224 file /work/zw18965/.conda/envs/p4env/share/psi4/basis/aug-cc-pvtz-jkfit.gbs 

  ==> Pre-Iterations <==

   -------------------------------------------------------
    Irrep   Nso     Nmo     Nalpha   Nbeta   Ndocc  Nsocc
   -------------------------------------------------------
     A1        49      49       0       0       0       0
     A2        12      12       0       0       0       0
     B1        27      27       0       0       0       0
     B2        27      27       0       0       0       0
   -------------------------------------------------------
    Total     115     115       7       7       7       0
   -------------------------------------------------------

  ==> Integral Setup <==

  ==> DiskDFJK: Density-Fitted J/K Matrices <==

    J tasked:                  Yes
    K tasked:                  Yes
    wK tasked:                 Yes
    Omega:               3.000E-01
    OpenMP threads:             24
    Integrals threads:          24
    Memory [MiB]:           102777
    Algorithm:                Core
    Integral Cache:           NONE
    Schwarz Cutoff:          1E-12
    Fitting Condition:       1E-10

   => Auxiliary Basis Set <=

  Basis Set: (AUG-CC-PV(T+D)Z AUX)
    Blend: AUG-CC-PVTZ-JKFIT
    Number of shells: 74
    Number of basis function: 254
    Number of Cartesian functions: 317
    Spherical Harmonics?: true
    Max angular momentum: 4

  Cached 100.0% of DFT collocation blocks in 0.214 [GiB].

  Minimum eigenvalue in the overlap matrix is 8.6322917229E-05.
  Using Symmetric Orthogonalization.

  SCF Guess: Superposition of Atomic Densities via on-the-fly atomic UHF.

  ==> Iterations <==

                           Total Energy        Delta E     RMS |[F,P]|

   @DF-RKS iter SAD:   -92.56421430608547   -9.25642e+01   0.00000e+00 
   @DF-RKS iter   1:   -93.33971533163238   -7.75501e-01   7.32562e-03 DIIS
   @DF-RKS iter   2:   -93.30905519673976    3.06601e-02   8.42003e-03 DIIS
   @DF-RKS iter   3:   -93.42386109371233   -1.14806e-01   1.38023e-03 DIIS
   @DF-RKS iter   4:   -93.42709683719666   -3.23574e-03   1.53373e-04 DIIS
   @DF-RKS iter   5:   -93.42713553999258   -3.87028e-05   2.18755e-05 DIIS
   @DF-RKS iter   6:   -93.42713663454602   -1.09455e-06   3.61930e-06 DIIS
   @DF-RKS iter   7:   -93.42713668298506   -4.84390e-08   5.34144e-07 DIIS
   @DF-RKS iter   8:   -93.42713668452998   -1.54492e-09   8.65777e-08 DIIS
   @DF-RKS iter   9:   -93.42713668455838   -2.83933e-11   6.80583e-09 DIIS
  Energy and wave function converged.


  ==> Post-Iterations <==

    Orbital Energies [Eh]
    ---------------------

    Doubly Occupied:                                                      

       1A1   -14.440146     2A1   -10.328882     3A1    -1.055007  
       4A1    -0.729845     5A1    -0.501169     1B2    -0.474008  
       1B1    -0.474008  

    Virtual:                                                              

       6A1     0.026704     2B1     0.065039     2B2     0.065039  
       7A1     0.070711     3B1     0.108600     3B2     0.108600  
       8A1     0.125115     9A1     0.141388     4B1     0.170316  
       4B2     0.170316    10A1     0.201798    11A1     0.261340  
       1A2     0.279232    12A1     0.279233     5B1     0.288031  
       5B2     0.288031    13A1     0.358639    14A1     0.380366  
       6B1     0.414449     6B2     0.414449    15A1     0.516669  
       2A2     0.523042    16A1     0.523043     7B1     0.534701  
       7B2     0.534701    17A1     0.577307     8B1     0.612758  
       8B2     0.612758    18A1     0.734322    19A1     0.811933  
      20A1     0.831952     3A2     0.831952     9B1     0.832516  
       9B2     0.832516    21A1     0.906139    22A1     0.995122  
      10B1     1.008189    10B2     1.008189    11B1     1.020549  
      11B2     1.020549     4A2     1.049385    23A1     1.049386  
      24A1     1.128115    12B1     1.162437    12B2     1.162437  
      25A1     1.264520     5A2     1.264524    26A1     1.330739  
      13B1     1.488709    13B2     1.488709    14B2     1.523756  
      14B1     1.523756    15B1     1.564799    15B2     1.564799  
      27A1     1.660849     6A2     1.660850    28A1     1.770641  
      29A1     1.806718    30A1     1.930933    16B2     1.954020  
      16B1     1.954020     7A2     2.139519    31A1     2.139523  
      17B1     2.266394    17B2     2.266394    32A1     2.302957  
      33A1     2.433327    18B1     2.741796    18B2     2.741796  
      34A1     2.811143    19B1     3.098907    19B2     3.098907  
      35A1     3.179167     8A2     3.179169    20B2     3.252001  
      20B1     3.252001    36A1     3.253141     9A2     3.253143  
      37A1     3.480560    21B1     3.541008    21B2     3.541008  
      38A1     3.641815    39A1     4.033739    10A2     4.033743  
      22B1     4.104654    22B2     4.104654    40A1     4.241787  
      41A1     4.363220    23B1     4.545098    23B2     4.545098  
      24B1     4.702066    24B2     4.702066    11A2     4.935434  
      42A1     4.935444    43A1     5.087883    25B1     5.096061  
      25B2     5.096061    12A2     5.213063    44A1     5.213063  
      45A1     5.454144    26B1     5.456096    26B2     5.456096  
      46A1     6.043563    27B1     6.547870    27B2     6.547870  
      47A1     6.626746    48A1    13.618551    49A1    17.410379  

    Final Occupation by Irrep:
             A1    A2    B1    B2 
    DOCC [     5,    0,    1,    1 ]

  @DF-RKS Final Energy:   -93.42713668455838

   => Energetics <=

    Nuclear Repulsion Energy =             23.8619361587784589
    One-Electron Energy =                -172.7015926433137736
    Two-Electron Energy =                  64.1373031682324779
    DFT Exchange-Correlation Energy =      -8.7831642050033114
    Empirical Dispersion Energy =           0.0000000000000000
    VV10 Nonlocal Energy =                  0.0583808367477545
    Total Energy =                        -93.4271366845583913

Computation Completed


Properties will be evaluated at   0.000000,   0.000000,   0.000000 [a0]

Properties computed using the SCF density matrix

  Nuclear Dipole Moment: [e a0]
     X:     0.0000      Y:     0.0000      Z:    -1.5265

  Electronic Dipole Moment: [e a0]
     X:     0.0000      Y:     0.0000      Z:     0.3123

  Dipole Moment: [e a0]
     X:     0.0000      Y:     0.0000      Z:    -1.2142     Total:     1.2142

  Dipole Moment: [D]
     X:     0.0000      Y:     0.0000      Z:    -3.0861     Total:     3.0861


*** tstop() called on bp1-compute00046.data.bp.acrc.priv at Tue Apr 27 17:23:50 2021
Module time:
	user time   =      73.23 seconds =       1.22 minutes
	system time =       3.68 seconds =       0.06 minutes
	total time  =          3 seconds =       0.05 minutes
Total time:
	user time   =      73.23 seconds =       1.22 minutes
	system time =       3.68 seconds =       0.06 minutes
	total time  =          3 seconds =       0.05 minutes

  //>>>>>>>>>>>>>>>>>>>>>>>>>>>>>>>>>>>//
  //    Loading displacement 2 of 5    //
  //<<<<<<<<<<<<<<<<<<<<<<<<<<<<<<<<<<<//

*** tstart() called on bp1-compute00046.data.bp.acrc.priv
*** at Tue Apr 27 17:23:50 2021

   => Loading Basis Set <=

    Name: AUG-CC-PV(T+D)Z
    Role: ORBITAL
    Keyword: BASIS
    atoms 1 entry H          line    56 file /work/zw18965/.conda/envs/p4env/share/psi4/basis/aug-cc-pv_tpd_z.gbs 
    atoms 2 entry C          line   255 file /work/zw18965/.conda/envs/p4env/share/psi4/basis/aug-cc-pv_tpd_z.gbs 
    atoms 3 entry N          line   301 file /work/zw18965/.conda/envs/p4env/share/psi4/basis/aug-cc-pv_tpd_z.gbs 


         ---------------------------------------------------------
                                   SCF
               by Justin Turney, Rob Parrish, Andy Simmonett
                          and Daniel G. A. Smith
                              RKS Reference
                       24 Threads, 137329 MiB Core
         ---------------------------------------------------------

  ==> Geometry <==

    Molecular point group: c2v
    Full point group: C_inf_v

    Geometry (in Angstrom), charge = 0, multiplicity = 1:

       Center              X                  Y                   Z               Mass       
    ------------   -----------------  -----------------  -----------------  -----------------
         H            0.000000000000     0.000000000000    -1.629086210919     1.007825032230
         C            0.000000000000     0.000000000000    -0.559600027028    12.000000000000
         N            0.000000000000     0.000000000000     0.596799972972    14.003074004430

  Running in c2v symmetry.

  Rotational constants: A = ************  B =      1.47615  C =      1.47615 [cm^-1]
  Rotational constants: A = ************  B =  44253.88092  C =  44253.88092 [MHz]
  Nuclear repulsion =   23.852450107742836

  Charge       = 0
  Multiplicity = 1
  Electrons    = 14
  Nalpha       = 7
  Nbeta        = 7

  ==> Algorithm <==

  SCF Algorithm Type is DF.
  DIIS enabled.
  MOM disabled.
  Fractional occupation disabled.
  Guess Type is SAD.
  Energy threshold   = 1.00e-08
  Density threshold  = 1.00e-08
  Integral threshold = 0.00e+00

  ==> Primary Basis <==

  Basis Set: AUG-CC-PV(T+D)Z
    Blend: AUG-CC-PV(T+D)Z
    Number of shells: 37
    Number of basis function: 115
    Number of Cartesian functions: 135
    Spherical Harmonics?: true
    Max angular momentum: 3

  ==> DFT Potential <==

   => Composite Functional: WB97X-V <= 

    wB97X-V Hyb-GGA Exchange-Correlation Functional

    N. Mardirossian and M. Head-Gordon, Phys. Chem. Chem. Phys. 16, 9904 (2014)

    Deriv               =              1
    GGA                 =           TRUE
    Meta                =          FALSE

    Exchange Hybrid     =           TRUE
    MP2 Hybrid          =          FALSE

   => Exchange-Correlation Functionals <=

    1.0000   wB97X-V range-separated functional

   => Exact (HF) Exchange <=

    0.8330            HF,LR [omega = 0.3000]
    0.1670               HF 

   => VV10 Non-Local Parameters <=

    VV10 B              =     6.0000E+00
    VV10 C              =     1.0000E-02

   => Molecular Quadrature <=

    Radial Scheme          =       TREUTLER
    Pruning Scheme         =           FLAT
    Nuclear Scheme         =       TREUTLER

    BS radius alpha        =              1
    Pruning alpha          =              1
    Radial Points          =             75
    Spherical Points       =            302
    Total Points           =          67950
    Total Blocks           =            580
    Max Points             =            255
    Max Functions          =            115

   => Loading Basis Set <=

    Name: (AUG-CC-PV(T+D)Z AUX)
    Role: JKFIT
    Keyword: DF_BASIS_SCF
    atoms 1 entry H          line    70 file /work/zw18965/.conda/envs/p4env/share/psi4/basis/aug-cc-pvtz-jkfit.gbs 
    atoms 2 entry C          line   162 file /work/zw18965/.conda/envs/p4env/share/psi4/basis/aug-cc-pvtz-jkfit.gbs 
    atoms 3 entry N          line   224 file /work/zw18965/.conda/envs/p4env/share/psi4/basis/aug-cc-pvtz-jkfit.gbs 

  ==> Pre-Iterations <==

   -------------------------------------------------------
    Irrep   Nso     Nmo     Nalpha   Nbeta   Ndocc  Nsocc
   -------------------------------------------------------
     A1        49      49       0       0       0       0
     A2        12      12       0       0       0       0
     B1        27      27       0       0       0       0
     B2        27      27       0       0       0       0
   -------------------------------------------------------
    Total     115     115       7       7       7       0
   -------------------------------------------------------

  ==> Integral Setup <==

  ==> DiskDFJK: Density-Fitted J/K Matrices <==

    J tasked:                  Yes
    K tasked:                  Yes
    wK tasked:                 Yes
    Omega:               3.000E-01
    OpenMP threads:             24
    Integrals threads:          24
    Memory [MiB]:           102777
    Algorithm:                Core
    Integral Cache:           NONE
    Schwarz Cutoff:          1E-12
    Fitting Condition:       1E-10

   => Auxiliary Basis Set <=

  Basis Set: (AUG-CC-PV(T+D)Z AUX)
    Blend: AUG-CC-PVTZ-JKFIT
    Number of shells: 74
    Number of basis function: 254
    Number of Cartesian functions: 317
    Spherical Harmonics?: true
    Max angular momentum: 4

  Cached 100.0% of DFT collocation blocks in 0.214 [GiB].

  Minimum eigenvalue in the overlap matrix is 8.6955749047E-05.
  Using Symmetric Orthogonalization.

  SCF Guess: Superposition of Atomic Densities via on-the-fly atomic UHF.

  ==> Iterations <==

                           Total Energy        Delta E     RMS |[F,P]|

   @DF-RKS iter SAD:   -92.56370836639968   -9.25637e+01   0.00000e+00 
   @DF-RKS iter   1:   -93.33940480044130   -7.75696e-01   7.33742e-03 DIIS
   @DF-RKS iter   2:   -93.30835309480534    3.10517e-02   8.44372e-03 DIIS
   @DF-RKS iter   3:   -93.42387049510648   -1.15517e-01   1.37871e-03 DIIS
   @DF-RKS iter   4:   -93.42710053263430   -3.23004e-03   1.53707e-04 DIIS
   @DF-RKS iter   5:   -93.42713941126321   -3.88786e-05   2.19176e-05 DIIS
   @DF-RKS iter   6:   -93.42714051063274   -1.09937e-06   3.63502e-06 DIIS
   @DF-RKS iter   7:   -93.42714055948589   -4.88532e-08   5.37145e-07 DIIS
   @DF-RKS iter   8:   -93.42714056104808   -1.56219e-09   8.69348e-08 DIIS
   @DF-RKS iter   9:   -93.42714056107657   -2.84928e-11   6.85014e-09 DIIS
  Energy and wave function converged.


  ==> Post-Iterations <==

    Orbital Energies [Eh]
    ---------------------

    Doubly Occupied:                                                      

       1A1   -14.440104     2A1   -10.329088     3A1    -1.054978  
       4A1    -0.729060     5A1    -0.501113     1B1    -0.473968  
       1B2    -0.473968  

    Virtual:                                                              

       6A1     0.026685     2B2     0.065037     2B1     0.065037  
       7A1     0.070653     3B1     0.108654     3B2     0.108654  
       8A1     0.125057     9A1     0.141272     4B2     0.170329  
       4B1     0.170329    10A1     0.201479    11A1     0.261246  
       1A2     0.279258    12A1     0.279258     5B1     0.287943  
       5B2     0.287943    13A1     0.358469    14A1     0.380199  
       6B2     0.414544     6B1     0.414544    15A1     0.516855  
       2A2     0.523073    16A1     0.523074     7B1     0.534253  
       7B2     0.534253    17A1     0.577258     8B1     0.612839  
       8B2     0.612839    18A1     0.733818    19A1     0.812095  
      20A1     0.832055     3A2     0.832055     9B1     0.832525  
       9B2     0.832525    21A1     0.905990    22A1     0.995415  
      10B2     1.008393    10B1     1.008393    11B2     1.020582  
      11B1     1.020582     4A2     1.048893    23A1     1.048894  
      24A1     1.127499    12B1     1.161437    12B2     1.161437  
      25A1     1.264278     5A2     1.264282    26A1     1.330497  
      13B2     1.487959    13B1     1.487959    14B1     1.523957  
      14B2     1.523957    15B1     1.564833    15B2     1.564833  
      27A1     1.660589     6A2     1.660589    28A1     1.770920  
      29A1     1.806962    30A1     1.926521    16B1     1.953332  
      16B2     1.953332     7A2     2.139326    31A1     2.139330  
      17B1     2.266747    17B2     2.266747    32A1     2.309931  
      33A1     2.433615    18B1     2.741547    18B2     2.741547  
      34A1     2.809936    19B1     3.097423    19B2     3.097423  
      35A1     3.179301     8A2     3.179303    20B2     3.252048  
      20B1     3.252048    36A1     3.253225     9A2     3.253226  
      37A1     3.479511    21B1     3.540698    21B2     3.540698  
      38A1     3.640081    39A1     4.031034    10A2     4.031039  
      22B1     4.104196    22B2     4.104196    40A1     4.240094  
      41A1     4.357614    23B1     4.542482    23B2     4.542482  
      24B2     4.702108    24B1     4.702108    11A2     4.935068  
      42A1     4.935078    43A1     5.083414    25B1     5.092193  
      25B2     5.092193    12A2     5.212536    44A1     5.212536  
      26B1     5.453260    26B2     5.453260    45A1     5.453933  
      46A1     6.040439    27B1     6.542878    27B2     6.542878  
      47A1     6.622955    48A1    13.570965    49A1    17.403815  

    Final Occupation by Irrep:
             A1    A2    B1    B2 
    DOCC [     5,    0,    1,    1 ]

  @DF-RKS Final Energy:   -93.42714056107657

   => Energetics <=

    Nuclear Repulsion Energy =             23.8524501077428361
    One-Electron Energy =                -172.6846996176499260
    Two-Electron Energy =                  64.1291279034539627
    DFT Exchange-Correlation Energy =      -8.7823985359767676
    Empirical Dispersion Energy =           0.0000000000000000
    VV10 Nonlocal Energy =                  0.0583795813533208
    Total Energy =                        -93.4271405610765697

Computation Completed


Properties will be evaluated at   0.000000,   0.000000,   0.000000 [a0]

Properties computed using the SCF density matrix

  Nuclear Dipole Moment: [e a0]
     X:     0.0000      Y:     0.0000      Z:    -1.5290

  Electronic Dipole Moment: [e a0]
     X:     0.0000      Y:     0.0000      Z:     0.3135

  Dipole Moment: [e a0]
     X:     0.0000      Y:     0.0000      Z:    -1.2155     Total:     1.2155

  Dipole Moment: [D]
     X:     0.0000      Y:     0.0000      Z:    -3.0895     Total:     3.0895


*** tstop() called on bp1-compute00046.data.bp.acrc.priv at Tue Apr 27 17:23:53 2021
Module time:
	user time   =      75.81 seconds =       1.26 minutes
	system time =       3.21 seconds =       0.05 minutes
	total time  =          3 seconds =       0.05 minutes
Total time:
	user time   =     149.20 seconds =       2.49 minutes
	system time =       6.91 seconds =       0.12 minutes
	total time  =          6 seconds =       0.10 minutes

  //>>>>>>>>>>>>>>>>>>>>>>>>>>>>>>>>>>>//
  //    Loading displacement 3 of 5    //
  //<<<<<<<<<<<<<<<<<<<<<<<<<<<<<<<<<<<//

*** tstart() called on bp1-compute00046.data.bp.acrc.priv
*** at Tue Apr 27 17:23:53 2021

   => Loading Basis Set <=

    Name: AUG-CC-PV(T+D)Z
    Role: ORBITAL
    Keyword: BASIS
    atoms 1 entry H          line    56 file /work/zw18965/.conda/envs/p4env/share/psi4/basis/aug-cc-pv_tpd_z.gbs 
    atoms 2 entry C          line   255 file /work/zw18965/.conda/envs/p4env/share/psi4/basis/aug-cc-pv_tpd_z.gbs 
    atoms 3 entry N          line   301 file /work/zw18965/.conda/envs/p4env/share/psi4/basis/aug-cc-pv_tpd_z.gbs 


         ---------------------------------------------------------
                                   SCF
               by Justin Turney, Rob Parrish, Andy Simmonett
                          and Daniel G. A. Smith
                              RKS Reference
                       24 Threads, 137329 MiB Core
         ---------------------------------------------------------

  ==> Geometry <==

    Molecular point group: c2v
    Full point group: C_inf_v

    Geometry (in Angstrom), charge = 0, multiplicity = 1:

       Center              X                  Y                   Z               Mass       
    ------------   -----------------  -----------------  -----------------  -----------------
         H            0.000000000000     0.000000000000    -1.623914295803     1.007825032230
         C            0.000000000000     0.000000000000    -0.559800479695    12.000000000000
         N            0.000000000000     0.000000000000     0.596599520305    14.003074004430

  Running in c2v symmetry.

  Rotational constants: A = ************  B =      1.47843  C =      1.47843 [cm^-1]
  Rotational constants: A = ************  B =  44322.23916  C =  44322.23916 [MHz]
  Nuclear repulsion =   23.871464815116820

  Charge       = 0
  Multiplicity = 1
  Electrons    = 14
  Nalpha       = 7
  Nbeta        = 7

  ==> Algorithm <==

  SCF Algorithm Type is DF.
  DIIS enabled.
  MOM disabled.
  Fractional occupation disabled.
  Guess Type is SAD.
  Energy threshold   = 1.00e-08
  Density threshold  = 1.00e-08
  Integral threshold = 0.00e+00

  ==> Primary Basis <==

  Basis Set: AUG-CC-PV(T+D)Z
    Blend: AUG-CC-PV(T+D)Z
    Number of shells: 37
    Number of basis function: 115
    Number of Cartesian functions: 135
    Spherical Harmonics?: true
    Max angular momentum: 3

  ==> DFT Potential <==

   => Composite Functional: WB97X-V <= 

    wB97X-V Hyb-GGA Exchange-Correlation Functional

    N. Mardirossian and M. Head-Gordon, Phys. Chem. Chem. Phys. 16, 9904 (2014)

    Deriv               =              1
    GGA                 =           TRUE
    Meta                =          FALSE

    Exchange Hybrid     =           TRUE
    MP2 Hybrid          =          FALSE

   => Exchange-Correlation Functionals <=

    1.0000   wB97X-V range-separated functional

   => Exact (HF) Exchange <=

    0.8330            HF,LR [omega = 0.3000]
    0.1670               HF 

   => VV10 Non-Local Parameters <=

    VV10 B              =     6.0000E+00
    VV10 C              =     1.0000E-02

   => Molecular Quadrature <=

    Radial Scheme          =       TREUTLER
    Pruning Scheme         =           FLAT
    Nuclear Scheme         =       TREUTLER

    BS radius alpha        =              1
    Pruning alpha          =              1
    Radial Points          =             75
    Spherical Points       =            302
    Total Points           =          67950
    Total Blocks           =            582
    Max Points             =            256
    Max Functions          =            115

   => Loading Basis Set <=

    Name: (AUG-CC-PV(T+D)Z AUX)
    Role: JKFIT
    Keyword: DF_BASIS_SCF
    atoms 1 entry H          line    70 file /work/zw18965/.conda/envs/p4env/share/psi4/basis/aug-cc-pvtz-jkfit.gbs 
    atoms 2 entry C          line   162 file /work/zw18965/.conda/envs/p4env/share/psi4/basis/aug-cc-pvtz-jkfit.gbs 
    atoms 3 entry N          line   224 file /work/zw18965/.conda/envs/p4env/share/psi4/basis/aug-cc-pvtz-jkfit.gbs 

  ==> Pre-Iterations <==

   -------------------------------------------------------
    Irrep   Nso     Nmo     Nalpha   Nbeta   Ndocc  Nsocc
   -------------------------------------------------------
     A1        49      49       0       0       0       0
     A2        12      12       0       0       0       0
     B1        27      27       0       0       0       0
     B2        27      27       0       0       0       0
   -------------------------------------------------------
    Total     115     115       7       7       7       0
   -------------------------------------------------------

  ==> Integral Setup <==

  ==> DiskDFJK: Density-Fitted J/K Matrices <==

    J tasked:                  Yes
    K tasked:                  Yes
    wK tasked:                 Yes
    Omega:               3.000E-01
    OpenMP threads:             24
    Integrals threads:          24
    Memory [MiB]:           102777
    Algorithm:                Core
    Integral Cache:           NONE
    Schwarz Cutoff:          1E-12
    Fitting Condition:       1E-10

   => Auxiliary Basis Set <=

  Basis Set: (AUG-CC-PV(T+D)Z AUX)
    Blend: AUG-CC-PVTZ-JKFIT
    Number of shells: 74
    Number of basis function: 254
    Number of Cartesian functions: 317
    Spherical Harmonics?: true
    Max angular momentum: 4

  Cached 100.0% of DFT collocation blocks in 0.214 [GiB].

  Minimum eigenvalue in the overlap matrix is 8.5696291921E-05.
  Using Symmetric Orthogonalization.

  SCF Guess: Superposition of Atomic Densities via on-the-fly atomic UHF.

  ==> Iterations <==

                           Total Energy        Delta E     RMS |[F,P]|

   @DF-RKS iter SAD:   -92.56471242574177   -9.25647e+01   0.00000e+00 
   @DF-RKS iter   1:   -93.34001591214712   -7.75303e-01   7.31375e-03 DIIS
   @DF-RKS iter   2:   -93.30974982125872    3.02661e-02   8.39616e-03 DIIS
   @DF-RKS iter   3:   -93.42384097791950   -1.14091e-01   1.38178e-03 DIIS
   @DF-RKS iter   4:   -93.42708263320725   -3.24166e-03   1.53040e-04 DIIS
   @DF-RKS iter   5:   -93.42712116274613   -3.85295e-05   2.18334e-05 DIIS
   @DF-RKS iter   6:   -93.42712225254429   -1.08980e-06   3.60358e-06 DIIS
   @DF-RKS iter   7:   -93.42712230059054   -4.80462e-08   5.31164e-07 DIIS
   @DF-RKS iter   8:   -93.42712230211170   -1.52116e-09   8.62248e-08 DIIS
   @DF-RKS iter   9:   -93.42712230213961   -2.79101e-11   6.76231e-09 DIIS
  Energy and wave function converged.


  ==> Post-Iterations <==

    Orbital Energies [Eh]
    ---------------------

    Doubly Occupied:                                                      

       1A1   -14.440189     2A1   -10.328674     3A1    -1.055036  
       4A1    -0.730632     5A1    -0.501224     1B1    -0.474048  
       1B2    -0.474048  

    Virtual:                                                              

       6A1     0.026722     2B1     0.065040     2B2     0.065040  
       7A1     0.070768     3B1     0.108547     3B2     0.108547  
       8A1     0.125169     9A1     0.141504     4B1     0.170303  
       4B2     0.170303    10A1     0.202119    11A1     0.261435  
       1A2     0.279206    12A1     0.279207     5B2     0.288119  
       5B1     0.288119    13A1     0.358794    14A1     0.380549  
       6B1     0.414355     6B2     0.414355    15A1     0.516483  
       2A2     0.523011    16A1     0.523012     7B2     0.535150  
       7B1     0.535150    17A1     0.577356     8B2     0.612677  
       8B1     0.612677    18A1     0.734822    19A1     0.811773  
      20A1     0.831847     3A2     0.831847     9B2     0.832507  
       9B1     0.832507    21A1     0.906291    22A1     0.994836  
      10B1     1.007984    10B2     1.007984    11B1     1.020516  
      11B2     1.020516     4A2     1.049878    23A1     1.049879  
      24A1     1.128755    12B2     1.163438    12B1     1.163438  
      25A1     1.264764     5A2     1.264768    26A1     1.330981  
      13B2     1.489459    13B1     1.489459    14B2     1.523557  
      14B1     1.523557    15B2     1.564766    15B1     1.564766  
      27A1     1.661110     6A2     1.661110    28A1     1.770360  
      29A1     1.806480    30A1     1.935377    16B2     1.954705  
      16B1     1.954705     7A2     2.139710    31A1     2.139714  
      17B2     2.266033    17B1     2.266033    32A1     2.295935  
      33A1     2.433201    18B2     2.742040    18B1     2.742040  
      34A1     2.812360    19B2     3.100414    19B1     3.100414  
      35A1     3.179031     8A2     3.179033    20B1     3.251954  
      20B2     3.251954    36A1     3.253073     9A2     3.253075  
      37A1     3.481601    21B2     3.541316    21B1     3.541316  
      38A1     3.643553    39A1     4.036451    10A2     4.036455  
      22B2     4.105098    22B1     4.105098    40A1     4.243466  
      41A1     4.368883    23B1     4.547715    23B2     4.547715  
      24B1     4.702025    24B2     4.702025    11A2     4.935803  
      42A1     4.935813    43A1     5.092409    25B2     5.099892  
      25B1     5.099892    12A2     5.213593    44A1     5.213594  
      45A1     5.454464    26B2     5.458983    26B1     5.458983  
      46A1     6.046732    27B1     6.552877    27B2     6.552877  
      47A1     6.630690    48A1    13.666287    49A1    17.417221  

    Final Occupation by Irrep:
             A1    A2    B1    B2 
    DOCC [     5,    0,    1,    1 ]

  @DF-RKS Final Energy:   -93.42712230213961

   => Energetics <=

    Nuclear Repulsion Energy =             23.8714648151168198
    One-Electron Energy =                -172.7185442764211416
    Two-Electron Energy =                  64.1455082638613163
    DFT Exchange-Correlation Energy =      -8.7839332019784191
    Empirical Dispersion Energy =           0.0000000000000000
    VV10 Nonlocal Energy =                  0.0583820972818369
    Total Energy =                        -93.4271223021395940

Computation Completed


Properties will be evaluated at   0.000000,   0.000000,   0.000000 [a0]

Properties computed using the SCF density matrix

  Nuclear Dipole Moment: [e a0]
     X:     0.0000      Y:     0.0000      Z:    -1.5241

  Electronic Dipole Moment: [e a0]
     X:     0.0000      Y:     0.0000      Z:     0.3112

  Dipole Moment: [e a0]
     X:     0.0000      Y:     0.0000      Z:    -1.2129     Total:     1.2129

  Dipole Moment: [D]
     X:     0.0000      Y:     0.0000      Z:    -3.0828     Total:     3.0828


*** tstop() called on bp1-compute00046.data.bp.acrc.priv at Tue Apr 27 17:23:56 2021
Module time:
	user time   =      70.84 seconds =       1.18 minutes
	system time =       2.37 seconds =       0.04 minutes
	total time  =          3 seconds =       0.05 minutes
Total time:
	user time   =     220.20 seconds =       3.67 minutes
	system time =       9.29 seconds =       0.15 minutes
	total time  =          9 seconds =       0.15 minutes

  //>>>>>>>>>>>>>>>>>>>>>>>>>>>>>>>>>>>//
  //    Loading displacement 4 of 5    //
  //<<<<<<<<<<<<<<<<<<<<<<<<<<<<<<<<<<<//

*** tstart() called on bp1-compute00046.data.bp.acrc.priv
*** at Tue Apr 27 17:23:56 2021

   => Loading Basis Set <=

    Name: AUG-CC-PV(T+D)Z
    Role: ORBITAL
    Keyword: BASIS
    atoms 1 entry H          line    56 file /work/zw18965/.conda/envs/p4env/share/psi4/basis/aug-cc-pv_tpd_z.gbs 
    atoms 2 entry C          line   255 file /work/zw18965/.conda/envs/p4env/share/psi4/basis/aug-cc-pv_tpd_z.gbs 
    atoms 3 entry N          line   301 file /work/zw18965/.conda/envs/p4env/share/psi4/basis/aug-cc-pv_tpd_z.gbs 


         ---------------------------------------------------------
                                   SCF
               by Justin Turney, Rob Parrish, Andy Simmonett
                          and Daniel G. A. Smith
                              RKS Reference
                       24 Threads, 137329 MiB Core
         ---------------------------------------------------------

  ==> Geometry <==

    Molecular point group: c2v
    Full point group: C_inf_v

    Geometry (in Angstrom), charge = 0, multiplicity = 1:

       Center              X                  Y                   Z               Mass       
    ------------   -----------------  -----------------  -----------------  -----------------
         H            0.000000000000     0.000000000000    -1.626500253361     1.007825032230
         C            0.000000000000     0.000000000000    -0.560260758838    12.000000000000
         N            0.000000000000     0.000000000000     0.597180074437    14.003074004430

  Running in c2v symmetry.

  Rotational constants: A = ************  B =      1.47528  C =      1.47528 [cm^-1]
  Rotational constants: A = ************  B =  44227.74118  C =  44227.74118 [MHz]
  Nuclear repulsion =   23.845857601427369

  Charge       = 0
  Multiplicity = 1
  Electrons    = 14
  Nalpha       = 7
  Nbeta        = 7

  ==> Algorithm <==

  SCF Algorithm Type is DF.
  DIIS enabled.
  MOM disabled.
  Fractional occupation disabled.
  Guess Type is SAD.
  Energy threshold   = 1.00e-08
  Density threshold  = 1.00e-08
  Integral threshold = 0.00e+00

  ==> Primary Basis <==

  Basis Set: AUG-CC-PV(T+D)Z
    Blend: AUG-CC-PV(T+D)Z
    Number of shells: 37
    Number of basis function: 115
    Number of Cartesian functions: 135
    Spherical Harmonics?: true
    Max angular momentum: 3

  ==> DFT Potential <==

   => Composite Functional: WB97X-V <= 

    wB97X-V Hyb-GGA Exchange-Correlation Functional

    N. Mardirossian and M. Head-Gordon, Phys. Chem. Chem. Phys. 16, 9904 (2014)

    Deriv               =              1
    GGA                 =           TRUE
    Meta                =          FALSE

    Exchange Hybrid     =           TRUE
    MP2 Hybrid          =          FALSE

   => Exchange-Correlation Functionals <=

    1.0000   wB97X-V range-separated functional

   => Exact (HF) Exchange <=

    0.8330            HF,LR [omega = 0.3000]
    0.1670               HF 

   => VV10 Non-Local Parameters <=

    VV10 B              =     6.0000E+00
    VV10 C              =     1.0000E-02

   => Molecular Quadrature <=

    Radial Scheme          =       TREUTLER
    Pruning Scheme         =           FLAT
    Nuclear Scheme         =       TREUTLER

    BS radius alpha        =              1
    Pruning alpha          =              1
    Radial Points          =             75
    Spherical Points       =            302
    Total Points           =          67950
    Total Blocks           =            581
    Max Points             =            256
    Max Functions          =            115

   => Loading Basis Set <=

    Name: (AUG-CC-PV(T+D)Z AUX)
    Role: JKFIT
    Keyword: DF_BASIS_SCF
    atoms 1 entry H          line    70 file /work/zw18965/.conda/envs/p4env/share/psi4/basis/aug-cc-pvtz-jkfit.gbs 
    atoms 2 entry C          line   162 file /work/zw18965/.conda/envs/p4env/share/psi4/basis/aug-cc-pvtz-jkfit.gbs 
    atoms 3 entry N          line   224 file /work/zw18965/.conda/envs/p4env/share/psi4/basis/aug-cc-pvtz-jkfit.gbs 

  ==> Pre-Iterations <==

   -------------------------------------------------------
    Irrep   Nso     Nmo     Nalpha   Nbeta   Ndocc  Nsocc
   -------------------------------------------------------
     A1        49      49       0       0       0       0
     A2        12      12       0       0       0       0
     B1        27      27       0       0       0       0
     B2        27      27       0       0       0       0
   -------------------------------------------------------
    Total     115     115       7       7       7       0
   -------------------------------------------------------

  ==> Integral Setup <==

  ==> DiskDFJK: Density-Fitted J/K Matrices <==

    J tasked:                  Yes
    K tasked:                  Yes
    wK tasked:                 Yes
    Omega:               3.000E-01
    OpenMP threads:             24
    Integrals threads:          24
    Memory [MiB]:           102777
    Algorithm:                Core
    Integral Cache:           NONE
    Schwarz Cutoff:          1E-12
    Fitting Condition:       1E-10

   => Auxiliary Basis Set <=

  Basis Set: (AUG-CC-PV(T+D)Z AUX)
    Blend: AUG-CC-PVTZ-JKFIT
    Number of shells: 74
    Number of basis function: 254
    Number of Cartesian functions: 317
    Spherical Harmonics?: true
    Max angular momentum: 4

  Cached 100.0% of DFT collocation blocks in 0.214 [GiB].

  Minimum eigenvalue in the overlap matrix is 8.6294500092E-05.
  Using Symmetric Orthogonalization.

  SCF Guess: Superposition of Atomic Densities via on-the-fly atomic UHF.

  ==> Iterations <==

                           Total Energy        Delta E     RMS |[F,P]|

   @DF-RKS iter SAD:   -92.56289678541219   -9.25629e+01   0.00000e+00 
   @DF-RKS iter   1:   -93.33992118116609   -7.77024e-01   7.31253e-03 DIIS
   @DF-RKS iter   2:   -93.30891230144911    3.10089e-02   8.42153e-03 DIIS
   @DF-RKS iter   3:   -93.42380927435403   -1.14897e-01   1.37894e-03 DIIS
   @DF-RKS iter   4:   -93.42704073893927   -3.23146e-03   1.53247e-04 DIIS
   @DF-RKS iter   5:   -93.42707939669317   -3.86578e-05   2.19112e-05 DIIS
   @DF-RKS iter   6:   -93.42708049379567   -1.09710e-06   3.63215e-06 DIIS
   @DF-RKS iter   7:   -93.42708054245772   -4.86620e-08   5.36108e-07 DIIS
   @DF-RKS iter   8:   -93.42708054401032   -1.55261e-09   8.68884e-08 DIIS
   @DF-RKS iter   9:   -93.42708054403889   -2.85638e-11   6.79569e-09 DIIS
  Energy and wave function converged.


  ==> Post-Iterations <==

    Orbital Energies [Eh]
    ---------------------

    Doubly Occupied:                                                      

       1A1   -14.440480     2A1   -10.329165     3A1    -1.054658  
       4A1    -0.730120     5A1    -0.501264     1B1    -0.473777  
       1B2    -0.473777  

    Virtual:                                                              

       6A1     0.026703     2B1     0.064932     2B2     0.064932  
       7A1     0.070705     3B1     0.108420     3B2     0.108420  
       8A1     0.125120     9A1     0.141399     4B1     0.170245  
       4B2     0.170245    10A1     0.201804    11A1     0.261313  
       1A2     0.279227    12A1     0.279227     5B1     0.288002  
       5B2     0.288002    13A1     0.358670    14A1     0.380367  
       6B1     0.414440     6B2     0.414440    15A1     0.516415  
       2A2     0.523014    16A1     0.523015     7B1     0.534704  
       7B2     0.534704    17A1     0.577264     8B1     0.612650  
       8B2     0.612650    18A1     0.734326    19A1     0.811903  
      20A1     0.831946     3A2     0.831946     9B1     0.832499  
       9B2     0.832499    21A1     0.905636    22A1     0.994771  
      10B1     1.008183    10B2     1.008183    11B2     1.020518  
      11B1     1.020518     4A2     1.049333    23A1     1.049333  
      24A1     1.127599    12B1     1.162443    12B2     1.162443  
      25A1     1.264626     5A2     1.264630    26A1     1.330795  
      13B2     1.488337    13B1     1.488337    14B1     1.523764  
      14B2     1.523764    15B2     1.564575    15B1     1.564575  
      27A1     1.660607     6A2     1.660607    28A1     1.770111  
      29A1     1.806356    30A1     1.931762    16B1     1.953650  
      16B2     1.953650     7A2     2.138995    31A1     2.138999  
      17B1     2.266482    17B2     2.266482    32A1     2.301313  
      33A1     2.432096    18B1     2.741990    18B2     2.741990  
      34A1     2.811471    19B1     3.098918    19B2     3.098918  
      35A1     3.179154     8A2     3.179156    20B1     3.252011  
      20B2     3.252011    36A1     3.252795     9A2     3.252797  
      37A1     3.479547    21B1     3.539728    21B2     3.539728  
      38A1     3.641756    39A1     4.033908    10A2     4.033912  
      22B2     4.103459    22B1     4.103459    40A1     4.240957  
      41A1     4.364641    23B2     4.545356    23B1     4.545356  
      24B1     4.701811    24B2     4.701811    11A2     4.934915  
      42A1     4.934925    43A1     5.088142    25B2     5.096661  
      25B1     5.096661    12A2     5.211815    44A1     5.211815  
      45A1     5.452458    26B1     5.455402    26B2     5.455402  
      46A1     6.042197    27B2     6.545994    27B1     6.545994  
      47A1     6.623291    48A1    13.623677    49A1    17.377238  

    Final Occupation by Irrep:
             A1    A2    B1    B2 
    DOCC [     5,    0,    1,    1 ]

  @DF-RKS Final Energy:   -93.42708054403889

   => Energetics <=

    Nuclear Repulsion Energy =             23.8458576014273689
    One-Electron Energy =                -172.6694293031354448
    Two-Electron Energy =                  64.1205424640353527
    DFT Exchange-Correlation Energy =      -8.7824319189586770
    Empirical Dispersion Energy =           0.0000000000000000
    VV10 Nonlocal Energy =                  0.0583806125925263
    Total Energy =                        -93.4270805440388870

Computation Completed


Properties will be evaluated at   0.000000,   0.000000,   0.000000 [a0]

Properties computed using the SCF density matrix

  Nuclear Dipole Moment: [e a0]
     X:     0.0000      Y:     0.0000      Z:    -1.5265

  Electronic Dipole Moment: [e a0]
     X:     0.0000      Y:     0.0000      Z:     0.3126

  Dipole Moment: [e a0]
     X:     0.0000      Y:     0.0000      Z:    -1.2139     Total:     1.2139

  Dipole Moment: [D]
     X:     0.0000      Y:     0.0000      Z:    -3.0855     Total:     3.0855


*** tstop() called on bp1-compute00046.data.bp.acrc.priv at Tue Apr 27 17:24:00 2021
Module time:
	user time   =      74.95 seconds =       1.25 minutes
	system time =       3.04 seconds =       0.05 minutes
	total time  =          4 seconds =       0.07 minutes
Total time:
	user time   =     295.29 seconds =       4.92 minutes
	system time =      12.34 seconds =       0.21 minutes
	total time  =         13 seconds =       0.22 minutes

  //>>>>>>>>>>>>>>>>>>>>>>>>>>>>>>>>>>>//
  //    Loading displacement 5 of 5    //
  //<<<<<<<<<<<<<<<<<<<<<<<<<<<<<<<<<<<//

*** tstart() called on bp1-compute00046.data.bp.acrc.priv
*** at Tue Apr 27 17:24:00 2021

   => Loading Basis Set <=

    Name: AUG-CC-PV(T+D)Z
    Role: ORBITAL
    Keyword: BASIS
    atoms 1 entry H          line    56 file /work/zw18965/.conda/envs/p4env/share/psi4/basis/aug-cc-pv_tpd_z.gbs 
    atoms 2 entry C          line   255 file /work/zw18965/.conda/envs/p4env/share/psi4/basis/aug-cc-pv_tpd_z.gbs 
    atoms 3 entry N          line   301 file /work/zw18965/.conda/envs/p4env/share/psi4/basis/aug-cc-pv_tpd_z.gbs 


         ---------------------------------------------------------
                                   SCF
               by Justin Turney, Rob Parrish, Andy Simmonett
                          and Daniel G. A. Smith
                              RKS Reference
                       24 Threads, 137329 MiB Core
         ---------------------------------------------------------

  ==> Geometry <==

    Molecular point group: c2v
    Full point group: C_inf_v

    Geometry (in Angstrom), charge = 0, multiplicity = 1:

       Center              X                  Y                   Z               Mass       
    ------------   -----------------  -----------------  -----------------  -----------------
         H            0.000000000000     0.000000000000    -1.626500253361     1.007825032230
         C            0.000000000000     0.000000000000    -0.559139747885    12.000000000000
         N            0.000000000000     0.000000000000     0.596219418840    14.003074004430

  Running in c2v symmetry.

  Rotational constants: A = ************  B =      1.47931  C =      1.47931 [cm^-1]
  Rotational constants: A = ************  B =  44348.49075  C =  44348.49075 [MHz]
  Nuclear repulsion =   23.878047654907576

  Charge       = 0
  Multiplicity = 1
  Electrons    = 14
  Nalpha       = 7
  Nbeta        = 7

  ==> Algorithm <==

  SCF Algorithm Type is DF.
  DIIS enabled.
  MOM disabled.
  Fractional occupation disabled.
  Guess Type is SAD.
  Energy threshold   = 1.00e-08
  Density threshold  = 1.00e-08
  Integral threshold = 0.00e+00

  ==> Primary Basis <==

  Basis Set: AUG-CC-PV(T+D)Z
    Blend: AUG-CC-PV(T+D)Z
    Number of shells: 37
    Number of basis function: 115
    Number of Cartesian functions: 135
    Spherical Harmonics?: true
    Max angular momentum: 3

  ==> DFT Potential <==

   => Composite Functional: WB97X-V <= 

    wB97X-V Hyb-GGA Exchange-Correlation Functional

    N. Mardirossian and M. Head-Gordon, Phys. Chem. Chem. Phys. 16, 9904 (2014)

    Deriv               =              1
    GGA                 =           TRUE
    Meta                =          FALSE

    Exchange Hybrid     =           TRUE
    MP2 Hybrid          =          FALSE

   => Exchange-Correlation Functionals <=

    1.0000   wB97X-V range-separated functional

   => Exact (HF) Exchange <=

    0.8330            HF,LR [omega = 0.3000]
    0.1670               HF 

   => VV10 Non-Local Parameters <=

    VV10 B              =     6.0000E+00
    VV10 C              =     1.0000E-02

   => Molecular Quadrature <=

    Radial Scheme          =       TREUTLER
    Pruning Scheme         =           FLAT
    Nuclear Scheme         =       TREUTLER

    BS radius alpha        =              1
    Pruning alpha          =              1
    Radial Points          =             75
    Spherical Points       =            302
    Total Points           =          67950
    Total Blocks           =            580
    Max Points             =            256
    Max Functions          =            115

   => Loading Basis Set <=

    Name: (AUG-CC-PV(T+D)Z AUX)
    Role: JKFIT
    Keyword: DF_BASIS_SCF
    atoms 1 entry H          line    70 file /work/zw18965/.conda/envs/p4env/share/psi4/basis/aug-cc-pvtz-jkfit.gbs 
    atoms 2 entry C          line   162 file /work/zw18965/.conda/envs/p4env/share/psi4/basis/aug-cc-pvtz-jkfit.gbs 
    atoms 3 entry N          line   224 file /work/zw18965/.conda/envs/p4env/share/psi4/basis/aug-cc-pvtz-jkfit.gbs 

  ==> Pre-Iterations <==

   -------------------------------------------------------
    Irrep   Nso     Nmo     Nalpha   Nbeta   Ndocc  Nsocc
   -------------------------------------------------------
     A1        49      49       0       0       0       0
     A2        12      12       0       0       0       0
     B1        27      27       0       0       0       0
     B2        27      27       0       0       0       0
   -------------------------------------------------------
    Total     115     115       7       7       7       0
   -------------------------------------------------------

  ==> Integral Setup <==

  ==> DiskDFJK: Density-Fitted J/K Matrices <==

    J tasked:                  Yes
    K tasked:                  Yes
    wK tasked:                 Yes
    Omega:               3.000E-01
    OpenMP threads:             24
    Integrals threads:          24
    Memory [MiB]:           102777
    Algorithm:                Core
    Integral Cache:           NONE
    Schwarz Cutoff:          1E-12
    Fitting Condition:       1E-10

   => Auxiliary Basis Set <=

  Basis Set: (AUG-CC-PV(T+D)Z AUX)
    Blend: AUG-CC-PVTZ-JKFIT
    Number of shells: 74
    Number of basis function: 254
    Number of Cartesian functions: 317
    Spherical Harmonics?: true
    Max angular momentum: 4

  Cached 100.0% of DFT collocation blocks in 0.214 [GiB].

  Minimum eigenvalue in the overlap matrix is 8.6351463185E-05.
  Using Symmetric Orthogonalization.

  SCF Guess: Superposition of Atomic Densities via on-the-fly atomic UHF.

  ==> Iterations <==

                           Total Energy        Delta E     RMS |[F,P]|

   @DF-RKS iter SAD:   -92.56553088592798   -9.25655e+01   0.00000e+00 
   @DF-RKS iter   1:   -93.33950299468221   -7.73972e-01   7.33875e-03 DIIS
   @DF-RKS iter   2:   -93.30919217461555    3.03108e-02   8.41856e-03 DIIS
   @DF-RKS iter   3:   -93.42390762251161   -1.14715e-01   1.38150e-03 DIIS
   @DF-RKS iter   4:   -93.42714761030952   -3.23999e-03   1.53500e-04 DIIS
   @DF-RKS iter   5:   -93.42718635908827   -3.87488e-05   2.18397e-05 DIIS
   @DF-RKS iter   6:   -93.42718745108979   -1.09200e-06   3.60641e-06 DIIS
   @DF-RKS iter   7:   -93.42718749932124   -4.82314e-08   5.32187e-07 DIIS
   @DF-RKS iter   8:   -93.42718750085895   -1.53771e-09   8.62699e-08 DIIS
   @DF-RKS iter   9:   -93.42718750088720   -2.82512e-11   6.81632e-09 DIIS
  Energy and wave function converged.


  ==> Post-Iterations <==

    Orbital Energies [Eh]
    ---------------------

    Doubly Occupied:                                                      

       1A1   -14.439812     2A1   -10.328598     3A1    -1.055356  
       4A1    -0.729569     5A1    -0.501073     1B1    -0.474239  
       1B2    -0.474239  

    Virtual:                                                              

       6A1     0.026704     2B1     0.065144     2B2     0.065144  
       7A1     0.070717     3B1     0.108782     3B2     0.108782  
       8A1     0.125109     9A1     0.141378     4B1     0.170387  
       4B2     0.170387    10A1     0.201792    11A1     0.261367  
       1A2     0.279238    12A1     0.279238     5B2     0.288060  
       5B1     0.288060    13A1     0.358608    14A1     0.380364  
       6B1     0.414459     6B2     0.414459    15A1     0.516922  
       2A2     0.523071    16A1     0.523071     7B2     0.534697  
       7B1     0.534697    17A1     0.577350     8B2     0.612867  
       8B1     0.612867    18A1     0.734319    19A1     0.811962  
      20A1     0.831959     3A2     0.831959     9B2     0.832532  
       9B1     0.832532    21A1     0.906640    22A1     0.995473  
      10B1     1.008195    10B2     1.008195    11B1     1.020580  
      11B2     1.020580     4A2     1.049437    23A1     1.049438  
      24A1     1.128638    12B2     1.162432    12B1     1.162432  
      25A1     1.264415     5A2     1.264419    26A1     1.330685  
      13B2     1.489080    13B1     1.489080    14B1     1.523749  
      14B2     1.523749    15B1     1.565024    15B2     1.565024  
      27A1     1.661092     6A2     1.661092    28A1     1.771170  
      29A1     1.807083    30A1     1.930109    16B2     1.954389  
      16B1     1.954389     7A2     2.140042    31A1     2.140046  
      17B2     2.266306    17B1     2.266306    32A1     2.304610  
      33A1     2.434566    18B1     2.741603    18B2     2.741603  
      34A1     2.810816    19B1     3.098898    19B2     3.098898  
      35A1     3.179180     8A2     3.179182    20B2     3.251991  
      20B1     3.251991    36A1     3.253489     9A2     3.253491  
      37A1     3.481566    21B2     3.542291    21B1     3.542291  
      38A1     3.641873    39A1     4.033570    10A2     4.033574  
      22B1     4.105847    22B2     4.105847    40A1     4.242587  
      41A1     4.361848    23B2     4.544840    23B1     4.544840  
      24B2     4.702323    24B1     4.702323    11A2     4.935954  
      42A1     4.935963    43A1     5.087631    25B1     5.095455  
      25B2     5.095455    12A2     5.214313    44A1     5.214313  
      45A1     5.455840    26B2     5.456791    26B1     5.456791  
      46A1     6.044937    27B1     6.549751    27B2     6.549751  
      47A1     6.630227    48A1    13.613413    49A1    17.443558  

    Final Occupation by Irrep:
             A1    A2    B1    B2 
    DOCC [     5,    0,    1,    1 ]

  @DF-RKS Final Energy:   -93.42718750088720

   => Energetics <=

    Nuclear Repulsion Energy =             23.8780476549075757
    One-Electron Energy =                -172.7338102551566692
    Two-Electron Energy =                  64.1540926186230251
    DFT Exchange-Correlation Energy =      -8.7838985830171943
    Empirical Dispersion Energy =           0.0000000000000000
    VV10 Nonlocal Energy =                  0.0583810637560497
    Total Energy =                        -93.4271875008872001

Computation Completed


Properties will be evaluated at   0.000000,   0.000000,   0.000000 [a0]

Properties computed using the SCF density matrix

  Nuclear Dipole Moment: [e a0]
     X:     0.0000      Y:     0.0000      Z:    -1.5265

  Electronic Dipole Moment: [e a0]
     X:     0.0000      Y:     0.0000      Z:     0.3121

  Dipole Moment: [e a0]
     X:     0.0000      Y:     0.0000      Z:    -1.2144     Total:     1.2144

  Dipole Moment: [D]
     X:     0.0000      Y:     0.0000      Z:    -3.0868     Total:     3.0868


*** tstop() called on bp1-compute00046.data.bp.acrc.priv at Tue Apr 27 17:24:03 2021
Module time:
	user time   =      71.99 seconds =       1.20 minutes
	system time =       2.24 seconds =       0.04 minutes
	total time  =          3 seconds =       0.05 minutes
Total time:
	user time   =     367.41 seconds =       6.12 minutes
	system time =      14.58 seconds =       0.24 minutes
	total time  =         16 seconds =       0.27 minutes

         ----------------------------------------------------------
                                   FINDIF
                     R. A. King and Jonathon Misiewicz
         ---------------------------------------------------------

  Computing gradient from energies.
    Using 3-point formula.
    Energy without displacement:  -93.4271366846
    Check energies below for precision!
    Forces are for mass-weighted, symmetry-adapted cartesians (in au).

     Coord      Energy(-1)        Energy(+1)            Force
        0    -93.4271405611    -93.4271223021      0.0018258937
        1    -93.4270805440    -93.4271875009     -0.0106956848


-------------------------------------------------------------
  ## New Matrix (Symmetry 0) ##
  Irrep: 1 Size: 3 x 3

                 1                   2                   3

    1     0.00000000000000     0.00000000000000     0.00179850183800
    2     0.00000000000000     0.00000000000000    -0.02801931341984
    3     0.00000000000000     0.00000000000000     0.02622081158184




			-----------------------------------------
			 OPTKING 2.0: for geometry optimizations 
			  - R.A. King,  Bethel University        
			-----------------------------------------
	At level 1: Red. Int., RFO, no backsteps, dynamic trust

	Internal coordinates to be generated automatically.
	Detected frag 1 with atoms:  1 2 3
	---Fragment 1 Bond Connectivity---
	 1 : 2
	 2 : 1 3
	 3 : 2

	---Fragment 1 Geometry and Gradient---
	 H           0.0000000000        0.0000000000       -3.0736400218
	 C           0.0000000000        0.0000000000       -1.0576801912
	 N           0.0000000000        0.0000000000        1.1275991003
	             0.0000000000        0.0000000000        0.0017985018
	             0.0000000000        0.0000000000       -0.0280193134
	             0.0000000000        0.0000000000        0.0262208116

	Previous optimization step data not found.  Starting new optimization.

	---Fragment 1 Intrafragment Coordinates---
	 - Coordinate -           - BOHR/RAD -       - ANG/DEG -
	 R(1,2)           =         2.015960	       1.066800
	 R(2,3)           =         2.185279	       1.156400
	 L(1,2,3)         =         3.141593	     180.000000
	 l(1,2,3)         =         3.141593	     180.000000

	Current energy   :       -93.4271366846

	Generating empirical Hessian (Schlegel '84) for each fragment.
	Taking RFO optimization step.
	Going to follow RFO solution 1.
	Using RFO vector 1.
	Norm of target step-size    0.02069
	Projected energy change by RFO approximation:        -0.0005362783

	Back-transformation to cartesian coordinates...
	Successfully converged to displaced geometry.

	--- Internal Coordinate Step in ANG or DEG, aJ/ANG or AJ/DEG ---
	 ---------------------------------------------------------------------------
	   Coordinate                Previous        Force       Change         New 
	   ----------                --------       ------       ------       ------
	    1 R(1,2)          =      1.066800     0.014817     0.002525     1.069325
	    2 R(2,3)          =      1.156400    -0.216026    -0.010654     1.145746
	    3 L(1,2,3)        =    180.000000     0.000000     0.000000   180.000000
	    4 l(1,2,3)        =    180.000000     0.000000     0.000000   180.000000
	 ---------------------------------------------------------------------------
	Successfully symmetrized geometry.

  ==> Convergence Check <==

  Measures of convergence in internal coordinates in au.
  Criteria marked as inactive (o), active & met (*), and active & unmet ( ).
  --------------------------------------------------------------------------------------------- ~
   Step     Total Energy     Delta E     MAX Force     RMS Force      MAX Disp      RMS Disp    ~
  --------------------------------------------------------------------------------------------- ~
    Convergence Criteria    1.00e-06 *    3.00e-04 *             o    1.20e-03 *             o  ~
  --------------------------------------------------------------------------------------------- ~
      1     -93.42713668   -9.34e+01      2.62e-02      1.31e-02 o    2.01e-02      1.03e-02 o  ~
  ---------------------------------------------------------------------------------------------

	Writing optimization data to binary file.
	Structure for next step:
	Cartesian Geometry (in Angstrom)
	    H     0.0000000000   0.0000000000  -1.6246321658
	    C     0.0000000000   0.0000000000  -0.5553071036
	    N     0.0000000000   0.0000000000   0.5904385155
			--------------------------
			 OPTKING Finished Execution 
			--------------------------

    Structure for next step:
    Molecular point group: c2v
    Full point group: C_inf_v

    Geometry (in Angstrom), charge = 0, multiplicity = 1:

    H            0.000000000000     0.000000000000    -1.623407630190
    C            0.000000000000     0.000000000000    -0.554082563750
    N            0.000000000000     0.000000000000     0.591663059811

gradient() will perform gradient computation by finite difference of analytic energies.

         ----------------------------------------------------------
                                   FINDIF
                     R. A. King and Jonathon Misiewicz
         ---------------------------------------------------------

  Using finite-differences of energies to determine gradients.
    Generating geometries for use with 3-point formula.
    Displacement size will be 5.00e-03.
    Number of atoms is 3.
    Number of symmetric SALCs is 2.
    Translations projected? 1. Rotations projected? 1.
    Number of geometries (including reference) is 5.

  //>>>>>>>>>>>>>>>>>>>>>>>>>>>>>>>>>>>//
  //    Loading displacement 1 of 5    //
  //<<<<<<<<<<<<<<<<<<<<<<<<<<<<<<<<<<<//

*** tstart() called on bp1-compute00046.data.bp.acrc.priv
*** at Tue Apr 27 17:24:03 2021

   => Loading Basis Set <=

    Name: AUG-CC-PV(T+D)Z
    Role: ORBITAL
    Keyword: BASIS
    atoms 1 entry H          line    56 file /work/zw18965/.conda/envs/p4env/share/psi4/basis/aug-cc-pv_tpd_z.gbs 
    atoms 2 entry C          line   255 file /work/zw18965/.conda/envs/p4env/share/psi4/basis/aug-cc-pv_tpd_z.gbs 
    atoms 3 entry N          line   301 file /work/zw18965/.conda/envs/p4env/share/psi4/basis/aug-cc-pv_tpd_z.gbs 


         ---------------------------------------------------------
                                   SCF
               by Justin Turney, Rob Parrish, Andy Simmonett
                          and Daniel G. A. Smith
                              RKS Reference
                       24 Threads, 137329 MiB Core
         ---------------------------------------------------------

  ==> Geometry <==

    Molecular point group: c2v
    Full point group: C_inf_v

    Geometry (in Angstrom), charge = 0, multiplicity = 1:

       Center              X                  Y                   Z               Mass       
    ------------   -----------------  -----------------  -----------------  -----------------
         H            0.000000000000     0.000000000000    -1.623407630190     1.007825032230
         C            0.000000000000     0.000000000000    -0.554082563750    12.000000000000
         N            0.000000000000     0.000000000000     0.591663059811    14.003074004430

  Running in c2v symmetry.

  Rotational constants: A = ************  B =      1.49950  C =      1.49950 [cm^-1]
  Rotational constants: A = ************  B =  44953.93342  C =  44953.93342 [MHz]
  Nuclear repulsion =   24.039746720395151

  Charge       = 0
  Multiplicity = 1
  Electrons    = 14
  Nalpha       = 7
  Nbeta        = 7

  ==> Algorithm <==

  SCF Algorithm Type is DF.
  DIIS enabled.
  MOM disabled.
  Fractional occupation disabled.
  Guess Type is READ.
  Energy threshold   = 1.00e-08
  Density threshold  = 1.00e-08
  Integral threshold = 0.00e+00

  ==> Primary Basis <==

  Basis Set: AUG-CC-PV(T+D)Z
    Blend: AUG-CC-PV(T+D)Z
    Number of shells: 37
    Number of basis function: 115
    Number of Cartesian functions: 135
    Spherical Harmonics?: true
    Max angular momentum: 3

  ==> DFT Potential <==

   => Composite Functional: WB97X-V <= 

    wB97X-V Hyb-GGA Exchange-Correlation Functional

    N. Mardirossian and M. Head-Gordon, Phys. Chem. Chem. Phys. 16, 9904 (2014)

    Deriv               =              1
    GGA                 =           TRUE
    Meta                =          FALSE

    Exchange Hybrid     =           TRUE
    MP2 Hybrid          =          FALSE

   => Exchange-Correlation Functionals <=

    1.0000   wB97X-V range-separated functional

   => Exact (HF) Exchange <=

    0.8330            HF,LR [omega = 0.3000]
    0.1670               HF 

   => VV10 Non-Local Parameters <=

    VV10 B              =     6.0000E+00
    VV10 C              =     1.0000E-02

   => Molecular Quadrature <=

    Radial Scheme          =       TREUTLER
    Pruning Scheme         =           FLAT
    Nuclear Scheme         =       TREUTLER

    BS radius alpha        =              1
    Pruning alpha          =              1
    Radial Points          =             75
    Spherical Points       =            302
    Total Points           =          67950
    Total Blocks           =            576
    Max Points             =            256
    Max Functions          =            115

   => Loading Basis Set <=

    Name: (AUG-CC-PV(T+D)Z AUX)
    Role: JKFIT
    Keyword: DF_BASIS_SCF
    atoms 1 entry H          line    70 file /work/zw18965/.conda/envs/p4env/share/psi4/basis/aug-cc-pvtz-jkfit.gbs 
    atoms 2 entry C          line   162 file /work/zw18965/.conda/envs/p4env/share/psi4/basis/aug-cc-pvtz-jkfit.gbs 
    atoms 3 entry N          line   224 file /work/zw18965/.conda/envs/p4env/share/psi4/basis/aug-cc-pvtz-jkfit.gbs 

   => Loading Basis Set <=

    Name: AUG-CC-PV(T+D)Z
    Role: ORBITAL
    Keyword: BASIS
    atoms 1 entry H          line    56 file /work/zw18965/.conda/envs/p4env/share/psi4/basis/aug-cc-pv_tpd_z.gbs 
    atoms 2 entry C          line   255 file /work/zw18965/.conda/envs/p4env/share/psi4/basis/aug-cc-pv_tpd_z.gbs 
    atoms 3 entry N          line   301 file /work/zw18965/.conda/envs/p4env/share/psi4/basis/aug-cc-pv_tpd_z.gbs 

  Reading orbitals from file 180, no projection.

  ==> Pre-Iterations <==

   -------------------------------------------------------
    Irrep   Nso     Nmo     Nalpha   Nbeta   Ndocc  Nsocc
   -------------------------------------------------------
     A1        49      49       0       0       0       0
     A2        12      12       0       0       0       0
     B1        27      27       0       0       0       0
     B2        27      27       0       0       0       0
   -------------------------------------------------------
    Total     115     115       7       7       7       0
   -------------------------------------------------------

  ==> Integral Setup <==

  ==> DiskDFJK: Density-Fitted J/K Matrices <==

    J tasked:                  Yes
    K tasked:                  Yes
    wK tasked:                 Yes
    Omega:               3.000E-01
    OpenMP threads:             24
    Integrals threads:          24
    Memory [MiB]:           102777
    Algorithm:                Core
    Integral Cache:           NONE
    Schwarz Cutoff:          1E-12
    Fitting Condition:       1E-10

   => Auxiliary Basis Set <=

  Basis Set: (AUG-CC-PV(T+D)Z AUX)
    Blend: AUG-CC-PVTZ-JKFIT
    Number of shells: 74
    Number of basis function: 254
    Number of Cartesian functions: 317
    Spherical Harmonics?: true
    Max angular momentum: 4

  Cached 100.0% of DFT collocation blocks in 0.214 [GiB].

  Minimum eigenvalue in the overlap matrix is 8.5862317130E-05.
  Using Symmetric Orthogonalization.

  SCF Guess: Orbitals guess was supplied from a previous computation.

  ==> Iterations <==

                           Total Energy        Delta E     RMS |[F,P]|

   @DF-RKS iter   0:   -93.42606499194528   -9.34261e+01   8.47596e-04 
   @DF-RKS iter   1:   -93.42738896840602   -1.32398e-03   9.68807e-05 DIIS
   @DF-RKS iter   2:   -93.42740469770615   -1.57293e-05   5.60411e-05 DIIS
   @DF-RKS iter   3:   -93.42740893140486   -4.23370e-06   1.72638e-05 DIIS
   @DF-RKS iter   4:   -93.42740929724236   -3.65838e-07   8.02957e-06 DIIS
   @DF-RKS iter   5:   -93.42740941165195   -1.14410e-07   9.66292e-07 DIIS
   @DF-RKS iter   6:   -93.42740941471227   -3.06032e-09   1.14630e-07 DIIS
   @DF-RKS iter   7:   -93.42740941476906   -5.67866e-11   1.48674e-08 DIIS
   @DF-RKS iter   8:   -93.42740941477001   -9.52127e-13   1.88408e-09 DIIS
  Energy and wave function converged.


  ==> Post-Iterations <==

    Orbital Energies [Eh]
    ---------------------

    Doubly Occupied:                                                      

       1A1   -14.436754     2A1   -10.325716     3A1    -1.058612  
       4A1    -0.727964     5A1    -0.500246     1B2    -0.476442  
       1B1    -0.476442  

    Virtual:                                                              

       6A1     0.026729     2B1     0.066064     2B2     0.066064  
       7A1     0.070841     3B1     0.110431     3B2     0.110431  
       8A1     0.125127     9A1     0.141421     4B1     0.171054  
       4B2     0.171054    10A1     0.202115    11A1     0.261732  
       1A2     0.279256    12A1     0.279257     5B1     0.288449  
       5B2     0.288449    13A1     0.358515    14A1     0.380544  
       6B1     0.414432     6B2     0.414432    15A1     0.518993  
       2A2     0.523292    16A1     0.523293     7B1     0.535221  
       7B2     0.535221    17A1     0.577822     8B1     0.613775  
       8B2     0.613775    18A1     0.734864    19A1     0.811998  
      20A1     0.831893     3A2     0.831893     9B1     0.832676  
       9B2     0.832676    21A1     0.911339    22A1     0.998366  
      10B1     1.007973    10B2     1.007973    11B1     1.020826  
      11B2     1.020826     4A2     1.050515    23A1     1.050515  
      24A1     1.134517    12B1     1.163589    12B2     1.163589  
      25A1     1.263738     5A2     1.263742    26A1     1.330554  
      13B1     1.493356    13B2     1.493356    14B1     1.523517  
      14B2     1.523517    15B1     1.567071    15B2     1.567071  
      27A1     1.663649     6A2     1.663650    28A1     1.775600  
      29A1     1.810358    30A1     1.927959    16B1     1.958626  
      16B2     1.958626     7A2     2.145087    31A1     2.145091  
      17B1     2.265004    17B2     2.265004    32A1     2.311392  
      33A1     2.446264    18B1     2.740109    18B2     2.740109  
      34A1     2.809207    19B1     3.100650    19B2     3.100650  
      35A1     3.179141     8A2     3.179143    20B2     3.251841  
      20B1     3.251841    36A1     3.256704     9A2     3.256706  
      37A1     3.491851    21B1     3.554649    21B2     3.554649  
      38A1     3.644556    39A1     4.035312    10A2     4.035316  
      22B1     4.117322    22B2     4.117322    40A1     4.249990  
      41A1     4.358521    23B1     4.545662    23B2     4.545662  
      24B1     4.704683    24B2     4.704683    11A2     4.941243  
      42A1     4.941251    43A1     5.090751    25B1     5.094039  
      25B2     5.094039    12A2     5.226565    44A1     5.226565  
      26B1     5.466804    26B2     5.466804    45A1     5.472272  
      46A1     6.061693    27B1     6.573154    27B2     6.573154  
      47A1     6.668059    48A1    13.622741    49A1    17.758739  

    Final Occupation by Irrep:
             A1    A2    B1    B2 
    DOCC [     5,    0,    1,    1 ]

  @DF-RKS Final Energy:   -93.42740941477001

   => Energetics <=

    Nuclear Repulsion Energy =             24.0397467203951507
    One-Electron Energy =                -173.0541510376722556
    Two-Electron Energy =                  64.3203026868280290
    DFT Exchange-Correlation Energy =      -8.7916925672887967
    Empirical Dispersion Energy =           0.0000000000000000
    VV10 Nonlocal Energy =                  0.0583847829678689
    Total Energy =                        -93.4274094147699969

Computation Completed


Properties will be evaluated at   0.000000,   0.000000,   0.000000 [a0]

Properties computed using the SCF density matrix

  Nuclear Dipole Moment: [e a0]
     X:     0.0000      Y:     0.0000      Z:    -1.5236

  Electronic Dipole Moment: [e a0]
     X:     0.0000      Y:     0.0000      Z:     0.3084

  Dipole Moment: [e a0]
     X:     0.0000      Y:     0.0000      Z:    -1.2152     Total:     1.2152

  Dipole Moment: [D]
     X:     0.0000      Y:     0.0000      Z:    -3.0887     Total:     3.0887


*** tstop() called on bp1-compute00046.data.bp.acrc.priv at Tue Apr 27 17:24:05 2021
Module time:
	user time   =      56.50 seconds =       0.94 minutes
	system time =       1.90 seconds =       0.03 minutes
	total time  =          2 seconds =       0.03 minutes
Total time:
	user time   =     424.31 seconds =       7.07 minutes
	system time =      16.50 seconds =       0.28 minutes
	total time  =         18 seconds =       0.30 minutes

  //>>>>>>>>>>>>>>>>>>>>>>>>>>>>>>>>>>>//
  //    Loading displacement 2 of 5    //
  //<<<<<<<<<<<<<<<<<<<<<<<<<<<<<<<<<<<//

*** tstart() called on bp1-compute00046.data.bp.acrc.priv
*** at Tue Apr 27 17:24:05 2021

   => Loading Basis Set <=

    Name: AUG-CC-PV(T+D)Z
    Role: ORBITAL
    Keyword: BASIS
    atoms 1 entry H          line    56 file /work/zw18965/.conda/envs/p4env/share/psi4/basis/aug-cc-pv_tpd_z.gbs 
    atoms 2 entry C          line   255 file /work/zw18965/.conda/envs/p4env/share/psi4/basis/aug-cc-pv_tpd_z.gbs 
    atoms 3 entry N          line   301 file /work/zw18965/.conda/envs/p4env/share/psi4/basis/aug-cc-pv_tpd_z.gbs 


         ---------------------------------------------------------
                                   SCF
               by Justin Turney, Rob Parrish, Andy Simmonett
                          and Daniel G. A. Smith
                              RKS Reference
                       24 Threads, 137329 MiB Core
         ---------------------------------------------------------

  ==> Geometry <==

    Molecular point group: c2v
    Full point group: C_inf_v

    Geometry (in Angstrom), charge = 0, multiplicity = 1:

       Center              X                  Y                   Z               Mass       
    ------------   -----------------  -----------------  -----------------  -----------------
         H            0.000000000000     0.000000000000    -1.625993587748     1.007825032230
         C            0.000000000000     0.000000000000    -0.553982337417    12.000000000000
         N            0.000000000000     0.000000000000     0.591763286144    14.003074004430

  Running in c2v symmetry.

  Rotational constants: A = ************  B =      1.49833  C =      1.49833 [cm^-1]
  Rotational constants: A = ************  B =  44918.78525  C =  44918.78525 [MHz]
  Nuclear repulsion =   24.030281110615910

  Charge       = 0
  Multiplicity = 1
  Electrons    = 14
  Nalpha       = 7
  Nbeta        = 7

  ==> Algorithm <==

  SCF Algorithm Type is DF.
  DIIS enabled.
  MOM disabled.
  Fractional occupation disabled.
  Guess Type is READ.
  Energy threshold   = 1.00e-08
  Density threshold  = 1.00e-08
  Integral threshold = 0.00e+00

  ==> Primary Basis <==

  Basis Set: AUG-CC-PV(T+D)Z
    Blend: AUG-CC-PV(T+D)Z
    Number of shells: 37
    Number of basis function: 115
    Number of Cartesian functions: 135
    Spherical Harmonics?: true
    Max angular momentum: 3

  ==> DFT Potential <==

   => Composite Functional: WB97X-V <= 

    wB97X-V Hyb-GGA Exchange-Correlation Functional

    N. Mardirossian and M. Head-Gordon, Phys. Chem. Chem. Phys. 16, 9904 (2014)

    Deriv               =              1
    GGA                 =           TRUE
    Meta                =          FALSE

    Exchange Hybrid     =           TRUE
    MP2 Hybrid          =          FALSE

   => Exchange-Correlation Functionals <=

    1.0000   wB97X-V range-separated functional

   => Exact (HF) Exchange <=

    0.8330            HF,LR [omega = 0.3000]
    0.1670               HF 

   => VV10 Non-Local Parameters <=

    VV10 B              =     6.0000E+00
    VV10 C              =     1.0000E-02

   => Molecular Quadrature <=

    Radial Scheme          =       TREUTLER
    Pruning Scheme         =           FLAT
    Nuclear Scheme         =       TREUTLER

    BS radius alpha        =              1
    Pruning alpha          =              1
    Radial Points          =             75
    Spherical Points       =            302
    Total Points           =          67950
    Total Blocks           =            578
    Max Points             =            255
    Max Functions          =            115

   => Loading Basis Set <=

    Name: (AUG-CC-PV(T+D)Z AUX)
    Role: JKFIT
    Keyword: DF_BASIS_SCF
    atoms 1 entry H          line    70 file /work/zw18965/.conda/envs/p4env/share/psi4/basis/aug-cc-pvtz-jkfit.gbs 
    atoms 2 entry C          line   162 file /work/zw18965/.conda/envs/p4env/share/psi4/basis/aug-cc-pvtz-jkfit.gbs 
    atoms 3 entry N          line   224 file /work/zw18965/.conda/envs/p4env/share/psi4/basis/aug-cc-pvtz-jkfit.gbs 

   => Loading Basis Set <=

    Name: AUG-CC-PV(T+D)Z
    Role: ORBITAL
    Keyword: BASIS
    atoms 1 entry H          line    56 file /work/zw18965/.conda/envs/p4env/share/psi4/basis/aug-cc-pv_tpd_z.gbs 
    atoms 2 entry C          line   255 file /work/zw18965/.conda/envs/p4env/share/psi4/basis/aug-cc-pv_tpd_z.gbs 
    atoms 3 entry N          line   301 file /work/zw18965/.conda/envs/p4env/share/psi4/basis/aug-cc-pv_tpd_z.gbs 

  Reading orbitals from file 180, no projection.

  ==> Pre-Iterations <==

   -------------------------------------------------------
    Irrep   Nso     Nmo     Nalpha   Nbeta   Ndocc  Nsocc
   -------------------------------------------------------
     A1        49      49       0       0       0       0
     A2        12      12       0       0       0       0
     B1        27      27       0       0       0       0
     B2        27      27       0       0       0       0
   -------------------------------------------------------
    Total     115     115       7       7       7       0
   -------------------------------------------------------

  ==> Integral Setup <==

  ==> DiskDFJK: Density-Fitted J/K Matrices <==

    J tasked:                  Yes
    K tasked:                  Yes
[...]


*** tstop() called on bp1-compute00046.data.bp.acrc.priv at Tue Apr 27 17:25:08 2021
Module time:
	user time   =      75.71 seconds =       1.26 minutes
	system time =       2.20 seconds =       0.04 minutes
	total time  =          3 seconds =       0.05 minutes
Total time:
	user time   =    1869.61 seconds =      31.16 minutes
	system time =      62.62 seconds =       1.04 minutes
	total time  =         81 seconds =       1.35 minutes

  //>>>>>>>>>>>>>>>>>>>>>>>>>>>>>>>>>>>//
  //    Loading displacement 9 of 9    //
  //<<<<<<<<<<<<<<<<<<<<<<<<<<<<<<<<<<<//

*** tstart() called on bp1-compute00046.data.bp.acrc.priv
*** at Tue Apr 27 17:25:08 2021

   => Loading Basis Set <=

    Name: AUG-CC-PV(T+D)Z
    Role: ORBITAL
    Keyword: BASIS
    atoms 1 entry H          line    56 file /work/zw18965/.conda/envs/p4env/share/psi4/basis/aug-cc-pv_tpd_z.gbs 
    atoms 2 entry C          line   255 file /work/zw18965/.conda/envs/p4env/share/psi4/basis/aug-cc-pv_tpd_z.gbs 
    atoms 3 entry N          line   301 file /work/zw18965/.conda/envs/p4env/share/psi4/basis/aug-cc-pv_tpd_z.gbs 


         ---------------------------------------------------------
                                   SCF
               by Justin Turney, Rob Parrish, Andy Simmonett
                          and Daniel G. A. Smith
                              RKS Reference
                       24 Threads, 137329 MiB Core
         ---------------------------------------------------------

  ==> Geometry <==

    Molecular point group: cs
    Full point group: Cs

    Geometry (in Angstrom), charge = 0, multiplicity = 1:

       Center              X                  Y                   Z               Mass       
    ------------   -----------------  -----------------  -----------------  -----------------
         H            0.000000000000    -0.002246482632    -1.622827386168     1.007825032230
         C            0.000000000000     0.000364685675    -0.554048037995    12.000000000000
         N            0.000000000000    -0.000150835929     0.591591711655    14.003074004430

  Running in cs symmetry.

  Rotational constants: A = 2407987.46702  B =      1.49997  C =      1.49997 [cm^-1]
  Rotational constants: A = 72189648157.17372  B =  44968.09181  C =  44968.06380 [MHz]
  Nuclear repulsion =   24.043535976741065

  Charge       = 0
  Multiplicity = 1
  Electrons    = 14
  Nalpha       = 7
  Nbeta        = 7

  ==> Algorithm <==

  SCF Algorithm Type is DF.
  DIIS enabled.
  MOM disabled.
  Fractional occupation disabled.
  Guess Type is SAD.
  Energy threshold   = 1.00e-10
  Density threshold  = 1.00e-10
  Integral threshold = 0.00e+00

  ==> Primary Basis <==

  Basis Set: AUG-CC-PV(T+D)Z
    Blend: AUG-CC-PV(T+D)Z
    Number of shells: 37
    Number of basis function: 115
    Number of Cartesian functions: 135
    Spherical Harmonics?: true
    Max angular momentum: 3

  ==> DFT Potential <==

   => Composite Functional: WB97X-V <= 

    wB97X-V Hyb-GGA Exchange-Correlation Functional

    N. Mardirossian and M. Head-Gordon, Phys. Chem. Chem. Phys. 16, 9904 (2014)

    Deriv               =              1
    GGA                 =           TRUE
    Meta                =          FALSE

    Exchange Hybrid     =           TRUE
    MP2 Hybrid          =          FALSE

   => Exchange-Correlation Functionals <=

    1.0000   wB97X-V range-separated functional

   => Exact (HF) Exchange <=

    0.8330            HF,LR [omega = 0.3000]
    0.1670               HF 

   => VV10 Non-Local Parameters <=

    VV10 B              =     6.0000E+00
    VV10 C              =     1.0000E-02

   => Molecular Quadrature <=

    Radial Scheme          =       TREUTLER
    Pruning Scheme         =           FLAT
    Nuclear Scheme         =       TREUTLER

    BS radius alpha        =              1
    Pruning alpha          =              1
    Radial Points          =             75
    Spherical Points       =            302
    Total Points           =          67950
    Total Blocks           =            576
    Max Points             =            256
    Max Functions          =            115

   => Loading Basis Set <=

    Name: (AUG-CC-PV(T+D)Z AUX)
    Role: JKFIT
    Keyword: DF_BASIS_SCF
    atoms 1 entry H          line    70 file /work/zw18965/.conda/envs/p4env/share/psi4/basis/aug-cc-pvtz-jkfit.gbs 
    atoms 2 entry C          line   162 file /work/zw18965/.conda/envs/p4env/share/psi4/basis/aug-cc-pvtz-jkfit.gbs 
    atoms 3 entry N          line   224 file /work/zw18965/.conda/envs/p4env/share/psi4/basis/aug-cc-pvtz-jkfit.gbs 

  ==> Pre-Iterations <==

   -------------------------------------------------------
    Irrep   Nso     Nmo     Nalpha   Nbeta   Ndocc  Nsocc
   -------------------------------------------------------
     A'        76      76       0       0       0       0
     A"        39      39       0       0       0       0
   -------------------------------------------------------
    Total     115     115       7       7       7       0
   -------------------------------------------------------

  ==> Integral Setup <==

  ==> DiskDFJK: Density-Fitted J/K Matrices <==

    J tasked:                  Yes
    K tasked:                  Yes
    wK tasked:                 Yes
    Omega:               3.000E-01
    OpenMP threads:             24
    Integrals threads:          24
    Memory [MiB]:           102777
    Algorithm:                Core
    Integral Cache:           NONE
    Schwarz Cutoff:          1E-12
    Fitting Condition:       1E-10

   => Auxiliary Basis Set <=

  Basis Set: (AUG-CC-PV(T+D)Z AUX)
    Blend: AUG-CC-PVTZ-JKFIT
    Number of shells: 74
    Number of basis function: 254
    Number of Cartesian functions: 317
    Spherical Harmonics?: true
    Max angular momentum: 4

  Cached 100.0% of DFT collocation blocks in 0.214 [GiB].

  Minimum eigenvalue in the overlap matrix is 8.5724737994E-05.
  Using Symmetric Orthogonalization.

  SCF Guess: Superposition of Atomic Densities via on-the-fly atomic UHF.

  ==> Iterations <==

                           Total Energy        Delta E     RMS |[F,P]|

   @DF-RKS iter SAD:   -92.57850984472478   -9.25785e+01   0.00000e+00 
   @DF-RKS iter   1:   -93.33764919913621   -7.59139e-01   5.51599e-03 DIIS
   @DF-RKS iter   2:   -93.31114035027827    2.65088e-02   6.20211e-03 DIIS
   @DF-RKS iter   3:   -93.42408390465124   -1.12944e-01   1.03334e-03 DIIS
   @DF-RKS iter   4:   -93.42736926472932   -3.28536e-03   1.14273e-04 DIIS
   @DF-RKS iter   5:   -93.42740823330453   -3.89686e-05   1.58812e-05 DIIS
   @DF-RKS iter   6:   -93.42740929526661   -1.06196e-06   2.56539e-06 DIIS
   @DF-RKS iter   7:   -93.42740934096521   -4.56986e-08   3.77960e-07 DIIS
   @DF-RKS iter   8:   -93.42740934241361   -1.44840e-09   6.14878e-08 DIIS
   @DF-RKS iter   9:   -93.42740934244037   -2.67590e-11   5.10232e-09 DIIS
   @DF-RKS iter  10:   -93.42740934244068   -3.12639e-13   9.42719e-10 DIIS
   @DF-RKS iter  11:   -93.42740934244068    0.00000e+00   9.56172e-11 DIIS
  Energy and wave function converged.


  ==> Post-Iterations <==

    Orbital Energies [Eh]
    ---------------------

    Doubly Occupied:                                                      

       1Ap   -14.436729     2Ap   -10.325641     3Ap    -1.058654  
       4Ap    -0.728111     5Ap    -0.500248     1App   -0.476475  
       6Ap    -0.476475  

    Virtual:                                                              

       7Ap     0.026733     8Ap     0.066073     2App    0.066074  
       9Ap     0.070855    10Ap     0.110438     3App    0.110439  
      11Ap     0.125139    12Ap     0.141447    13Ap     0.171059  
       4App    0.171059    14Ap     0.202187    15Ap     0.261756  
       5App    0.279250    16Ap     0.279250    17Ap     0.288473  
       6App    0.288474    18Ap     0.358548    19Ap     0.380583  
      20Ap     0.414412     7App    0.414412    21Ap     0.518977  
       8App    0.523277    22Ap     0.523278    23Ap     0.535330  
       9App    0.535332    24Ap     0.577838    10App    0.613768  
      25Ap     0.613768    26Ap     0.734975    27Ap     0.811963  
      28Ap     0.831849    11App    0.831849    29Ap     0.832697  
      12App    0.832698    30Ap     0.911420    31Ap     0.998332  
      13App    1.007926    32Ap     1.007926    14App    1.020819  
      33Ap     1.020819    15App    1.050634    34Ap     1.050634  
      35Ap     1.134719    16App    1.163813    36Ap     1.163816  
      37Ap     1.263782    17App    1.263786    38Ap     1.330604  
      39Ap     1.493562    18App    1.493564    40Ap     1.523464  
      19App    1.523469    20App    1.567086    41Ap     1.567086  
      42Ap     1.663734    21App    1.663734    43Ap     1.775588  
      44Ap     1.810364    45Ap     1.928860    22App    1.958821  
      46Ap     1.958822    23App    2.145176    47Ap     2.145180  
      48Ap     2.264901    24App    2.264907    49Ap     2.309913  
      50Ap     2.446405    51Ap     2.740144    25App    2.740145  
      52Ap     2.809438    26App    3.100984    53Ap     3.100985  
      54Ap     3.179112    27App    3.179114    55Ap     3.251804  
      28App    3.251804    56Ap     3.256756    29App    3.256757  
      57Ap     3.492175    30App    3.554855    58Ap     3.554861  
      59Ap     3.644982    60Ap     4.035893    31App    4.035897  
      32App    4.117544    61Ap     4.117546    62Ap     4.250358  
      63Ap     4.359714    64Ap     4.546231    33App    4.546232  
      65Ap     4.704702    34App    4.704702    35App    4.941379  
      66Ap     4.941388    67Ap     5.091694    36App    5.094800  
      68Ap     5.094812    37App    5.226816    69Ap     5.226816  
      70Ap     5.467108    38App    5.467552    71Ap     5.472973  
      72Ap     6.062519    73Ap     6.574399    39App    6.574417  
      74Ap     6.669295    75Ap    13.632940    76Ap    17.763528  

    Final Occupation by Irrep:
             Ap   App 
    DOCC [     6,    1 ]

  @DF-RKS Final Energy:   -93.42740934244068

   => Energetics <=

    Nuclear Repulsion Energy =             24.0435359767410652
    One-Electron Energy =                -173.0612567072686829
    Two-Electron Energy =                  64.3238661020263578
    DFT Exchange-Correlation Energy =      -8.7919398000444708
    Empirical Dispersion Energy =           0.0000000000000000
    VV10 Nonlocal Energy =                  0.0583850861050549
    Total Energy =                        -93.4274093424406971

Computation Completed


Properties will be evaluated at   0.000000,   0.000000,   0.000000 [a0]

Properties computed using the SCF density matrix

  Nuclear Dipole Moment: [e a0]
     X:     0.0000      Y:    -0.0021      Z:    -1.5231

  Electronic Dipole Moment: [e a0]
     X:     0.0000      Y:     0.0012      Z:     0.3082

  Dipole Moment: [e a0]
     X:     0.0000      Y:    -0.0010      Z:    -1.2149     Total:     1.2149

  Dipole Moment: [D]
     X:     0.0000      Y:    -0.0024      Z:    -3.0880     Total:     3.0880


*** tstop() called on bp1-compute00046.data.bp.acrc.priv at Tue Apr 27 17:25:11 2021
Module time:
	user time   =      75.62 seconds =       1.26 minutes
	system time =       2.34 seconds =       0.04 minutes
	total time  =          3 seconds =       0.05 minutes
Total time:
	user time   =    1945.36 seconds =      32.42 minutes
	system time =      64.97 seconds =       1.08 minutes
	total time  =         84 seconds =       1.40 minutes

         ----------------------------------------------------------
                                   FINDIF
                     R. A. King and Jonathon Misiewicz
         ---------------------------------------------------------

  Computing second-derivative from energies using projected, 
  symmetry-adapted, cartesian coordinates.

  9 energies passed in, including the reference geometry.
    Using 3-point formula.
    Energy without displacement:  -93.4274096300
    Check energies below for precision!
    0: -1        :       -93.4274045647
    0: 1         :       -93.4274043064
    1: -1        :       -93.4274068031
    1: 1         :       -93.4274067979
    0: 1, 1: 1   :       -93.4274037834
    0: -1, 1: -1 :       -93.4274040167
    2: -1        :       -93.4274093419
    3: -1        :       -93.4274093424

-------------------------------------------------------------


  ==> Harmonic Vibrational Analysis <==

  non-mass-weighted Hessian:       Symmetric? True   Hermitian? True   Lin Dep Dim?  5 (0)
  projection of translations (True) and rotations (True) removed 5 degrees of freedom (5)
  total projector:                 Symmetric? True   Hermitian? True   Lin Dep Dim?  5 (5)
  mass-weighted Hessian:           Symmetric? True   Hermitian? True   Lin Dep Dim?  5 (0)
  pre-proj  low-frequency mode:    0.0000i [cm^-1]
  pre-proj  low-frequency mode:    0.0000i [cm^-1]
  pre-proj  low-frequency mode:    0.0000i [cm^-1]
  pre-proj  low-frequency mode:    0.0000  [cm^-1]
  pre-proj  low-frequency mode:    0.0000  [cm^-1]
  pre-proj  all modes:['0.0000i' '0.0000i' '0.0000i' '0.0000' '0.0000' '779.6964' '780.4458'
 '2235.7764' '3458.8611']
  projected mass-weighted Hessian: Symmetric? True   Hermitian? True   Lin Dep Dim?  5 (5)
  post-proj low-frequency mode:    0.0000i [cm^-1] (TR)
  post-proj low-frequency mode:    0.0000i [cm^-1] (TR)
  post-proj low-frequency mode:    0.0000i [cm^-1] (TR)
  post-proj low-frequency mode:    0.0000  [cm^-1] (TR)
  post-proj low-frequency mode:    0.0000  [cm^-1] (TR)
  post-proj  all modes:['0.0000i' '0.0000i' '0.0000i' '0.0000' '0.0000' '779.6964' '780.4458'
 '2235.7764' '3458.8611']

  Vibration                       6                   7                   8           
  Freq [cm^-1]                 779.6964            780.4458           2235.7764       
  Irrep                           B2                  B1                  A1          
  Reduced mass [u]              1.3457              1.3457              4.9691        
  Force const [mDyne/A]         0.4820              0.4829             14.6347        
  Turning point v=0 [a0]        0.3388              0.3386              0.1041        
  RMS dev v=0 [a0 u^1/2]        0.2779              0.2777              0.1641        
  Char temp [K]               1121.8096           1122.8878           3216.7845       
  ----------------------------------------------------------------------------------
      1   H                0.00  0.98  0.00    0.98  0.00 -0.00    0.00 -0.00 -0.82   
      2   C               -0.00 -0.16  0.00   -0.16  0.00  0.00    0.00 -0.00 -0.41   
      3   N               -0.00  0.07  0.00    0.07 -0.00 -0.00   -0.00 -0.00  0.41   

  Vibration                       9           
  Freq [cm^-1]                3458.8611       
  Irrep                           A1          
  Reduced mass [u]              1.1981        
  Force const [mDyne/A]         8.4450        
  Turning point v=0 [a0]        0.1705        
  RMS dev v=0 [a0 u^1/2]        0.1319        
  Char temp [K]               4976.5310       
  ----------------------------------------------------------------------------------
      1   H                0.00  0.00  0.99   
      2   C                0.00  0.00 -0.13   
      3   N                0.00 -0.00  0.04   

  ==> Thermochemistry Components <==

  Entropy, S
    Electronic S            0.000 [cal/(mol K)]        0.000 [J/(mol K)]       0.00000000 [mEh/K] (multiplicity = 1)
    Translational S        35.816 [cal/(mol K)]      149.856 [J/(mol K)]       0.05707695 [mEh/K] (mol. weight = 27.0109 [u], P = 101325.00 [Pa])
    Rotational S           11.781 [cal/(mol K)]       49.291 [J/(mol K)]       0.01877398 [mEh/K] (symmetry no. = 1)
    Vibrational S           0.449 [cal/(mol K)]        1.878 [J/(mol K)]       0.00071516 [mEh/K]
  Total S                  48.046 [cal/(mol K)]      201.024 [J/(mol K)]       0.07656608 [mEh/K]
  Correction S              0.000 [cal/(mol K)]        0.000 [J/(mol K)]       0.00000000 [mEh/K]

  Constant volume heat capacity, Cv
    Electronic Cv           0.000 [cal/(mol K)]        0.000 [J/(mol K)]       0.00000000 [mEh/K]
    Translational Cv        2.981 [cal/(mol K)]       12.472 [J/(mol K)]       0.00475022 [mEh/K]
    Rotational Cv           1.987 [cal/(mol K)]        8.314 [J/(mol K)]       0.00316681 [mEh/K]
    Vibrational Cv          1.373 [cal/(mol K)]        5.745 [J/(mol K)]       0.00218819 [mEh/K]
  Total Cv                  6.341 [cal/(mol K)]       26.531 [J/(mol K)]       0.01010521 [mEh/K]
  Correction Cv             0.000 [cal/(mol K)]        0.000 [J/(mol K)]       0.00000000 [mEh/K]

  Constant pressure heat capacity, Cp
    Electronic Cp           0.000 [cal/(mol K)]        0.000 [J/(mol K)]       0.00000000 [mEh/K]
    Translational Cp        4.968 [cal/(mol K)]       20.786 [J/(mol K)]       0.00791703 [mEh/K]
    Rotational Cp           1.987 [cal/(mol K)]        8.314 [J/(mol K)]       0.00316681 [mEh/K]
    Vibrational Cp          1.373 [cal/(mol K)]        5.745 [J/(mol K)]       0.00218819 [mEh/K]
  Total Cp                  8.328 [cal/(mol K)]       34.846 [J/(mol K)]       0.01327202 [mEh/K]
  Correction Cp             0.000 [cal/(mol K)]        0.000 [J/(mol K)]       0.00000000 [mEh/K]

  ==> Thermochemistry Energy Analysis <==

  Raw electronic energy, E0
  Total E0, Electronic energy at well bottom at 0 [K]                  -93.42740963 [Eh]

  Zero-point energy, ZPE_vib = Sum_i nu_i / 2
    Electronic ZPE          0.000 [kcal/mol]        0.000 [kJ/mol]       0.00000000 [Eh]
    Translational ZPE       0.000 [kcal/mol]        0.000 [kJ/mol]       0.00000000 [Eh]
    Rotational ZPE          0.000 [kcal/mol]        0.000 [kJ/mol]       0.00000000 [Eh]
    Vibrational ZPE        10.371 [kcal/mol]       43.393 [kJ/mol]       0.01652760 [Eh]        3627.390 [cm^-1]
  Correction ZPE           10.371 [kcal/mol]       43.393 [kJ/mol]       0.01652760 [Eh]        3627.390 [cm^-1]
  Total ZPE, Electronic energy at 0 [K]                                -93.41088203 [Eh]

  Thermal Energy, E (includes ZPE)
    Electronic E            0.000 [kcal/mol]        0.000 [kJ/mol]       0.00000000 [Eh]
    Translational E         0.889 [kcal/mol]        3.718 [kJ/mol]       0.00141628 [Eh]
    Rotational E            0.592 [kcal/mol]        2.479 [kJ/mol]       0.00094418 [Eh]
    Vibrational E          10.477 [kcal/mol]       43.837 [kJ/mol]       0.01669652 [Eh]
  Correction E             11.958 [kcal/mol]       50.034 [kJ/mol]       0.01905698 [Eh]
  Total E, Electronic energy at  298.15 [K]                            -93.40835265 [Eh]

  Enthalpy, H_trans = E_trans + k_B * T
    Electronic H            0.000 [kcal/mol]        0.000 [kJ/mol]       0.00000000 [Eh]
    Translational H         1.481 [kcal/mol]        6.197 [kJ/mol]       0.00236046 [Eh]
    Rotational H            0.592 [kcal/mol]        2.479 [kJ/mol]       0.00094418 [Eh]
    Vibrational H          10.477 [kcal/mol]       43.837 [kJ/mol]       0.01669652 [Eh]
  Correction H             12.551 [kcal/mol]       52.513 [kJ/mol]       0.02000116 [Eh]
  Total H, Enthalpy at  298.15 [K]                                     -93.40740847 [Eh]

  Gibbs free energy, G = H - T * S
    Electronic G            0.000 [kcal/mol]        0.000 [kJ/mol]       0.00000000 [Eh]
    Translational G        -9.197 [kcal/mol]      -38.482 [kJ/mol]      -0.01465703 [Eh]
    Rotational G           -2.920 [kcal/mol]      -12.217 [kJ/mol]      -0.00465328 [Eh]
    Vibrational G          10.343 [kcal/mol]       43.277 [kJ/mol]       0.01648329 [Eh]
  Correction G             -1.774 [kcal/mol]       -7.422 [kJ/mol]      -0.00282701 [Eh]
  Total G, Free enthalpy at  298.15 [K]                                -93.43023664 [Eh]

    Psi4 stopped on: Tuesday, 27 April 2021 05:25PM
    Psi4 wall time for execution: 0:01:25.11

*** Psi4 exiting successfully. Buy a developer a beer!
