
    -----------------------------------------------------------------------
          Psi4: An Open-Source Ab Initio Electronic Structure Package
                               Psi4 1.3.2 release

                         Git: Rev {HEAD} ecbda83 


    R. M. Parrish, L. A. Burns, D. G. A. Smith, A. C. Simmonett,
    A. E. DePrince III, E. G. Hohenstein, U. Bozkaya, A. Yu. Sokolov,
    R. Di Remigio, R. M. Richard, J. F. Gonthier, A. M. James,
    H. R. McAlexander, A. Kumar, M. Saitow, X. Wang, B. P. Pritchard,
    P. Verma, H. F. Schaefer III, K. Patkowski, R. A. King, E. F. Valeev,
    F. A. Evangelista, J. M. Turney, T. D. Crawford, and C. D. Sherrill,
    J. Chem. Theory Comput. 13(7) pp 3185--3197 (2017).
    (doi: 10.1021/acs.jctc.7b00174)


                         Additional Contributions by
    P. Kraus, H. Kruse, M. H. Lechner, M. C. Schieber, R. A. Shaw,
    A. Alenaizan, R. Galvelis, Z. L. Glick, S. Lehtola, and J. P. Misiewicz

    -----------------------------------------------------------------------


    Psi4 started on: Tuesday, 27 April 2021 05:25PM

    Process ID: 52567
    Host:       bp1-compute00190.data.bp.acrc.priv
    PSIDATADIR: /work/zw18965/.conda/envs/p4env/share/psi4
    Memory:     500.0 MiB
    Threads:    24
    
  ==> Input File <==

--------------------------------------------------------------------------
memory 144 GB

molecule {
0 1
N 0.0000000000 0.0000000000 0.0000000000
N 0.0000000000 0.0000000000 1.1003000000
}

set dynamic_level 1
set basis aug-cc-pV(T+d)Z
 
optimize("wB97X-V")
frequencies("wB97X-V")
--------------------------------------------------------------------------

  Memory set to 134.110 GiB by Python driver.
gradient() will perform gradient computation by finite difference of analytic energies.

         ----------------------------------------------------------
                                   FINDIF
                     R. A. King and Jonathon Misiewicz
         ---------------------------------------------------------

  Using finite-differences of energies to determine gradients.
    Generating geometries for use with 3-point formula.
    Displacement size will be 5.00e-03.
    Number of atoms is 2.
    Number of symmetric SALCs is 1.
    Translations projected? 1. Rotations projected? 1.
    Number of geometries (including reference) is 3.

  //>>>>>>>>>>>>>>>>>>>>>>>>>>>>>>>>>>>//
  //    Loading displacement 1 of 3    //
  //<<<<<<<<<<<<<<<<<<<<<<<<<<<<<<<<<<<//

*** tstart() called on bp1-compute00190.data.bp.acrc.priv
*** at Tue Apr 27 17:25:10 2021

   => Loading Basis Set <=

    Name: AUG-CC-PV(T+D)Z
    Role: ORBITAL
    Keyword: BASIS
    atoms 1-2 entry N          line   301 file /work/zw18965/.conda/envs/p4env/share/psi4/basis/aug-cc-pv_tpd_z.gbs 


         ---------------------------------------------------------
                                   SCF
               by Justin Turney, Rob Parrish, Andy Simmonett
                          and Daniel G. A. Smith
                              RKS Reference
                       24 Threads, 137329 MiB Core
         ---------------------------------------------------------

  ==> Geometry <==

    Molecular point group: d2h
    Full point group: D_inf_h

    Geometry (in Angstrom), charge = 0, multiplicity = 1:

       Center              X                  Y                   Z               Mass       
    ------------   -----------------  -----------------  -----------------  -----------------
         N            0.000000000000     0.000000000000    -0.550150000000    14.003074004430
         N            0.000000000000     0.000000000000     0.550150000000    14.003074004430

  Running in d2h symmetry.

  Rotational constants: A = ************  B =      1.98875  C =      1.98875 [cm^-1]
  Rotational constants: A = ************  B =  59621.31974  C =  59621.31974 [MHz]
  Nuclear repulsion =   23.566012290129969

  Charge       = 0
  Multiplicity = 1
  Electrons    = 14
  Nalpha       = 7
  Nbeta        = 7

  ==> Algorithm <==

  SCF Algorithm Type is DF.
  DIIS enabled.
  MOM disabled.
  Fractional occupation disabled.
  Guess Type is SAD.
  Energy threshold   = 1.00e-08
  Density threshold  = 1.00e-08
  Integral threshold = 0.00e+00

  ==> Primary Basis <==

  Basis Set: AUG-CC-PV(T+D)Z
    Blend: AUG-CC-PV(T+D)Z
    Number of shells: 28
    Number of basis function: 92
    Number of Cartesian functions: 110
    Spherical Harmonics?: true
    Max angular momentum: 3

  ==> DFT Potential <==

   => Composite Functional: WB97X-V <= 

    wB97X-V Hyb-GGA Exchange-Correlation Functional

    N. Mardirossian and M. Head-Gordon, Phys. Chem. Chem. Phys. 16, 9904 (2014)

    Deriv               =              1
    GGA                 =           TRUE
    Meta                =          FALSE

    Exchange Hybrid     =           TRUE
    MP2 Hybrid          =          FALSE

   => Exchange-Correlation Functionals <=

    1.0000   wB97X-V range-separated functional

   => Exact (HF) Exchange <=

    0.8330            HF,LR [omega = 0.3000]
    0.1670               HF 

   => VV10 Non-Local Parameters <=

    VV10 B              =     6.0000E+00
    VV10 C              =     1.0000E-02

   => Molecular Quadrature <=

    Radial Scheme          =       TREUTLER
    Pruning Scheme         =           FLAT
    Nuclear Scheme         =       TREUTLER

    BS radius alpha        =              1
    Pruning alpha          =              1
    Radial Points          =             75
    Spherical Points       =            302
    Total Points           =          44978
    Total Blocks           =            416
    Max Points             =            256
    Max Functions          =             92

   => Loading Basis Set <=

    Name: (AUG-CC-PV(T+D)Z AUX)
    Role: JKFIT
    Keyword: DF_BASIS_SCF
    atoms 1-2 entry N          line   224 file /work/zw18965/.conda/envs/p4env/share/psi4/basis/aug-cc-pvtz-jkfit.gbs 

  ==> Pre-Iterations <==

   -------------------------------------------------------
    Irrep   Nso     Nmo     Nalpha   Nbeta   Ndocc  Nsocc
   -------------------------------------------------------
     Ag        19      19       0       0       0       0
     B1g        5       5       0       0       0       0
     B2g       11      11       0       0       0       0
     B3g       11      11       0       0       0       0
     Au         5       5       0       0       0       0
     B1u       19      19       0       0       0       0
     B2u       11      11       0       0       0       0
     B3u       11      11       0       0       0       0
   -------------------------------------------------------
    Total      92      92       7       7       7       0
   -------------------------------------------------------

  ==> Integral Setup <==

  ==> DiskDFJK: Density-Fitted J/K Matrices <==

    J tasked:                  Yes
    K tasked:                  Yes
    wK tasked:                 Yes
    Omega:               3.000E-01
    OpenMP threads:             24
    Integrals threads:          24
    Memory [MiB]:           102881
    Algorithm:                Core
    Integral Cache:           NONE
    Schwarz Cutoff:          1E-12
    Fitting Condition:       1E-10

   => Auxiliary Basis Set <=

  Basis Set: (AUG-CC-PV(T+D)Z AUX)
    Blend: AUG-CC-PVTZ-JKFIT
    Number of shells: 60
    Number of basis function: 208
    Number of Cartesian functions: 262
    Spherical Harmonics?: true
    Max angular momentum: 4

  Cached 100.0% of DFT collocation blocks in 0.113 [GiB].

  Minimum eigenvalue in the overlap matrix is 6.9296991944E-05.
  Using Symmetric Orthogonalization.

  SCF Guess: Superposition of Atomic Densities via on-the-fly atomic UHF.

  ==> Iterations <==

                           Total Energy        Delta E     RMS |[F,P]|

   @DF-RKS iter SAD:  -108.76789707489957   -1.08768e+02   0.00000e+00 
   @DF-RKS iter   1:  -109.51764453848506   -7.49747e-01   6.43148e-03 DIIS
   @DF-RKS iter   2:  -109.53380669611713   -1.61622e-02   2.46724e-03 DIIS
   @DF-RKS iter   3:  -109.53639497937657   -2.58828e-03   2.40331e-04 DIIS
   @DF-RKS iter   4:  -109.53643051772060   -3.55383e-05   3.57751e-05 DIIS
   @DF-RKS iter   5:  -109.53643201325755   -1.49554e-06   7.58443e-06 DIIS
   @DF-RKS iter   6:  -109.53643210448561   -9.12281e-08   6.82200e-07 DIIS
   @DF-RKS iter   7:  -109.53643210534267   -8.57057e-10   5.34177e-08 DIIS
   @DF-RKS iter   8:  -109.53643210534703   -4.36273e-12   5.91179e-09 DIIS
  Energy and wave function converged.


  ==> Post-Iterations <==

    Orbital Energies [Eh]
    ---------------------

    Doubly Occupied:                                                      

       1Ag   -14.517527     1B1u  -14.515816     2Ag    -1.256323  
       2B1u   -0.676360     1B2u   -0.578341     1B3u   -0.578341  
       3Ag    -0.547056  

    Virtual:                                                              

       1B3g    0.065128     1B2g    0.065128     3B1u    0.085206  
       4Ag     0.113353     2B2u    0.121586     2B3u    0.121586  
       5Ag     0.157257     2B2g    0.175799     2B3g    0.175799  
       4B1u    0.272951     6Ag     0.383393     1B1g    0.383393  
       7Ag     0.450991     5B1u    0.501232     3B3g    0.539886  
       3B2g    0.539886     3B3u    0.541345     3B2u    0.541345  
       1Au     0.559541     6B1u    0.559542     4B2u    0.657413  
       4B3u    0.657413     7B1u    0.696817     8Ag     0.701808  
       8B1u    0.928643     4B3g    0.977130     4B2g    0.977130  
       9Ag     1.131529    10Ag     1.228931     2B1g    1.228931  
       5B3u    1.288089     5B2u    1.288089     6B3u    1.352720  
       6B2u    1.352720     2Au     1.466261     9B1u    1.466262  
      10B1u    1.504000    11Ag     1.588136    12Ag     1.606102  
       3B1g    1.606103     5B3g    1.624613     5B2g    1.624613  
       6B2g    1.637938     6B3g    1.637938    11B1u    1.871477  
       7B2u    2.037084     7B3u    2.037084     3Au     2.188681  
      12B1u    2.188684     7B3g    2.270612     7B2g    2.270612  
      13B1u    2.561180    13Ag     2.595972     8B2u    3.005781  
       8B3u    3.005781    14Ag     3.730173     8B3g    3.993199  
       8B2g    3.993199     4B1g    4.135977    15Ag     4.135978  
      14B1u    4.225395     9B2u    4.244923     9B3u    4.244923  
      16Ag     4.252423    10B3u    4.407888    10B2u    4.407888  
       5B1g    4.770294    17Ag     4.770296     9B2g    4.778045  
       9B3g    4.778045     4Au     4.860836    15B1u    4.860838  
      16B1u    4.896025    10B3g    5.112886    10B2g    5.112886  
      11B2u    5.276916    11B3u    5.276916     5Au     5.443925  
      17B1u    5.443927    18Ag     6.341924    18B1u    6.402357  
      11B3g    6.528442    11B2g    6.528442    19Ag    10.395993  
      19B1u   18.378557  

    Final Occupation by Irrep:
             Ag   B1g   B2g   B3g    Au   B1u   B2u   B3u 
    DOCC [     3,    0,    0,    0,    0,    2,    1,    1 ]

  @DF-RKS Final Energy:  -109.53643210534703

   => Energetics <=

    Nuclear Repulsion Energy =             23.5660122901299687
    One-Electron Energy =                -194.3572982381352290
    Two-Electron Energy =                  70.8759133738520006
    DFT Exchange-Correlation Energy =      -9.6799910546673278
    Empirical Dispersion Energy =           0.0000000000000000
    VV10 Nonlocal Energy =                  0.0589315234735420
    Total Energy =                       -109.5364321053470320

Computation Completed


Properties will be evaluated at   0.000000,   0.000000,   0.000000 [a0]

Properties computed using the SCF density matrix

  Nuclear Dipole Moment: [e a0]
     X:     0.0000      Y:     0.0000      Z:    -0.0000

  Electronic Dipole Moment: [e a0]
     X:     0.0000      Y:     0.0000      Z:     0.0000

  Dipole Moment: [e a0]
     X:     0.0000      Y:     0.0000      Z:    -0.0000     Total:     0.0000

  Dipole Moment: [D]
     X:     0.0000      Y:     0.0000      Z:    -0.0000     Total:     0.0000


*** tstop() called on bp1-compute00190.data.bp.acrc.priv at Tue Apr 27 17:25:13 2021
Module time:
	user time   =      46.97 seconds =       0.78 minutes
	system time =       1.79 seconds =       0.03 minutes
	total time  =          3 seconds =       0.05 minutes
Total time:
	user time   =      46.97 seconds =       0.78 minutes
	system time =       1.79 seconds =       0.03 minutes
	total time  =          3 seconds =       0.05 minutes

  //>>>>>>>>>>>>>>>>>>>>>>>>>>>>>>>>>>>//
  //    Loading displacement 2 of 3    //
  //<<<<<<<<<<<<<<<<<<<<<<<<<<<<<<<<<<<//

*** tstart() called on bp1-compute00190.data.bp.acrc.priv
*** at Tue Apr 27 17:25:13 2021

   => Loading Basis Set <=

    Name: AUG-CC-PV(T+D)Z
    Role: ORBITAL
    Keyword: BASIS
    atoms 1-2 entry N          line   301 file /work/zw18965/.conda/envs/p4env/share/psi4/basis/aug-cc-pv_tpd_z.gbs 


         ---------------------------------------------------------
                                   SCF
               by Justin Turney, Rob Parrish, Andy Simmonett
                          and Daniel G. A. Smith
                              RKS Reference
                       24 Threads, 137329 MiB Core
         ---------------------------------------------------------

  ==> Geometry <==

    Molecular point group: d2h
    Full point group: D_inf_h

    Geometry (in Angstrom), charge = 0, multiplicity = 1:

       Center              X                  Y                   Z               Mass       
    ------------   -----------------  -----------------  -----------------  -----------------
         N            0.000000000000     0.000000000000    -0.550649970577    14.003074004430
         N            0.000000000000     0.000000000000     0.550649970577    14.003074004430

  Running in d2h symmetry.

  Rotational constants: A = ************  B =      1.98514  C =      1.98514 [cm^-1]
  Rotational constants: A = ************  B =  59513.10082  C =  59513.10082 [MHz]
  Nuclear repulsion =   23.544615189618426

  Charge       = 0
  Multiplicity = 1
  Electrons    = 14
  Nalpha       = 7
  Nbeta        = 7

  ==> Algorithm <==

  SCF Algorithm Type is DF.
  DIIS enabled.
  MOM disabled.
  Fractional occupation disabled.
  Guess Type is SAD.
  Energy threshold   = 1.00e-08
  Density threshold  = 1.00e-08
  Integral threshold = 0.00e+00

  ==> Primary Basis <==

  Basis Set: AUG-CC-PV(T+D)Z
    Blend: AUG-CC-PV(T+D)Z
    Number of shells: 28
    Number of basis function: 92
    Number of Cartesian functions: 110
    Spherical Harmonics?: true
    Max angular momentum: 3

  ==> DFT Potential <==

   => Composite Functional: WB97X-V <= 

    wB97X-V Hyb-GGA Exchange-Correlation Functional

    N. Mardirossian and M. Head-Gordon, Phys. Chem. Chem. Phys. 16, 9904 (2014)

    Deriv               =              1
    GGA                 =           TRUE
    Meta                =          FALSE

    Exchange Hybrid     =           TRUE
    MP2 Hybrid          =          FALSE

   => Exchange-Correlation Functionals <=

    1.0000   wB97X-V range-separated functional

   => Exact (HF) Exchange <=

    0.8330            HF,LR [omega = 0.3000]
    0.1670               HF 

   => VV10 Non-Local Parameters <=

    VV10 B              =     6.0000E+00
    VV10 C              =     1.0000E-02

   => Molecular Quadrature <=

    Radial Scheme          =       TREUTLER
    Pruning Scheme         =           FLAT
    Nuclear Scheme         =       TREUTLER

    BS radius alpha        =              1
    Pruning alpha          =              1
    Radial Points          =             75
    Spherical Points       =            302
    Total Points           =          44978
    Total Blocks           =            416
    Max Points             =            256
    Max Functions          =             92

   => Loading Basis Set <=

    Name: (AUG-CC-PV(T+D)Z AUX)
    Role: JKFIT
    Keyword: DF_BASIS_SCF
    atoms 1-2 entry N          line   224 file /work/zw18965/.conda/envs/p4env/share/psi4/basis/aug-cc-pvtz-jkfit.gbs 

  ==> Pre-Iterations <==

   -------------------------------------------------------
    Irrep   Nso     Nmo     Nalpha   Nbeta   Ndocc  Nsocc
   -------------------------------------------------------
     Ag        19      19       0       0       0       0
     B1g        5       5       0       0       0       0
     B2g       11      11       0       0       0       0
     B3g       11      11       0       0       0       0
     Au         5       5       0       0       0       0
     B1u       19      19       0       0       0       0
     B2u       11      11       0       0       0       0
     B3u       11      11       0       0       0       0
   -------------------------------------------------------
    Total      92      92       7       7       7       0
   -------------------------------------------------------

  ==> Integral Setup <==

  ==> DiskDFJK: Density-Fitted J/K Matrices <==

    J tasked:                  Yes
    K tasked:                  Yes
    wK tasked:                 Yes
    Omega:               3.000E-01
    OpenMP threads:             24
    Integrals threads:          24
    Memory [MiB]:           102881
    Algorithm:                Core
    Integral Cache:           NONE
    Schwarz Cutoff:          1E-12
    Fitting Condition:       1E-10

   => Auxiliary Basis Set <=

  Basis Set: (AUG-CC-PV(T+D)Z AUX)
    Blend: AUG-CC-PVTZ-JKFIT
    Number of shells: 60
    Number of basis function: 208
    Number of Cartesian functions: 262
    Spherical Harmonics?: true
    Max angular momentum: 4

  Cached 100.0% of DFT collocation blocks in 0.113 [GiB].

  Minimum eigenvalue in the overlap matrix is 6.9557065136E-05.
  Using Symmetric Orthogonalization.

  SCF Guess: Superposition of Atomic Densities via on-the-fly atomic UHF.

  ==> Iterations <==

                           Total Energy        Delta E     RMS |[F,P]|

   @DF-RKS iter SAD:  -108.76588993371173   -1.08766e+02   0.00000e+00 
   @DF-RKS iter   1:  -109.51769190151346   -7.51802e-01   6.41006e-03 DIIS
   @DF-RKS iter   2:  -109.53377471205374   -1.60828e-02   2.45678e-03 DIIS
   @DF-RKS iter   3:  -109.53634113741228   -2.56643e-03   2.40092e-04 DIIS
   @DF-RKS iter   4:  -109.53637662003997   -3.54826e-05   3.58267e-05 DIIS
   @DF-RKS iter   5:  -109.53637811797782   -1.49794e-06   7.58233e-06 DIIS
   @DF-RKS iter   6:  -109.53637820923629   -9.12585e-08   6.82770e-07 DIIS
   @DF-RKS iter   7:  -109.53637821009498   -8.58691e-10   5.34786e-08 DIIS
   @DF-RKS iter   8:  -109.53637821009931   -4.33431e-12   5.90760e-09 DIIS
  Energy and wave function converged.


  ==> Post-Iterations <==

    Orbital Energies [Eh]
    ---------------------

    Doubly Occupied:                                                      

       1Ag   -14.517824     1B1u  -14.516127     2Ag    -1.255751  
       2B1u   -0.676638     1B2u   -0.578003     1B3u   -0.578003  
       3Ag    -0.546998  

    Virtual:                                                              

       1B2g    0.064732     1B3g    0.064732     3B1u    0.085200  
       4Ag     0.113341     2B2u    0.121603     2B3u    0.121603  
       5Ag     0.157251     2B2g    0.175719     2B3g    0.175719  
       4B1u    0.272916     6Ag     0.383368     1B1g    0.383369  
       7Ag     0.451028     5B1u    0.500975     3B3g    0.539879  
       3B2g    0.539879     3B3u    0.541325     3B2u    0.541325  
       1Au     0.559508     6B1u    0.559509     4B2u    0.657466  
       4B3u    0.657466     7B1u    0.696464     8Ag     0.701900  
       8B1u    0.927299     4B3g    0.976871     4B2g    0.976871  
       9Ag     1.131337    10Ag     1.228972     2B1g    1.228972  
       5B2u    1.288059     5B3u    1.288059     6B2u    1.352492  
       6B3u    1.352492     2Au     1.466315     9B1u    1.466317  
      10B1u    1.503829    11Ag     1.587821    12Ag     1.605789  
       3B1g    1.605790     5B3g    1.624289     5B2g    1.624289  
       6B2g    1.637706     6B3g    1.637706    11B1u    1.871560  
       7B3u    2.036405     7B2u    2.036405     3Au     2.187851  
      12B1u    2.187854     7B3g    2.270727     7B2g    2.270727  
      13B1u    2.558977    13Ag     2.596326     8B2u    3.005965  
       8B3u    3.005965    14Ag     3.728464     8B3g    3.991368  
       8B2g    3.991368     4B1g    4.136443    15Ag     4.136443  
      14B1u    4.226688     9B3u    4.244236     9B2u    4.244236  
      16Ag     4.251901    10B3u    4.408392    10B2u    4.408392  
       5B1g    4.769772    17Ag     4.769774     9B2g    4.777407  
       9B3g    4.777407     4Au     4.860636    15B1u    4.860639  
      16B1u    4.893804    10B3g    5.113723    10B2g    5.113723  
      11B2u    5.275580    11B3u    5.275580     5Au     5.441899  
      17B1u    5.441900    18Ag     6.337185    18B1u    6.399720  
      11B3g    6.524077    11B2g    6.524077    19Ag    10.393123  
      19B1u   18.333032  

    Final Occupation by Irrep:
             Ag   B1g   B2g   B3g    Au   B1u   B2u   B3u 
    DOCC [     3,    0,    0,    0,    0,    2,    1,    1 ]

  @DF-RKS Final Energy:  -109.53637821009931

   => Energetics <=

    Nuclear Repulsion Energy =             23.5446151896184261
    One-Electron Energy =                -194.3158718495910762
    Two-Electron Energy =                  70.8549347499071871
    DFT Exchange-Correlation Energy =      -9.6789874237468787
    Empirical Dispersion Energy =           0.0000000000000000
    VV10 Nonlocal Energy =                  0.0589311237130503
    Total Energy =                       -109.5363782100993006

Computation Completed


Properties will be evaluated at   0.000000,   0.000000,   0.000000 [a0]

Properties computed using the SCF density matrix

  Nuclear Dipole Moment: [e a0]
     X:     0.0000      Y:     0.0000      Z:     0.0000

  Electronic Dipole Moment: [e a0]
     X:     0.0000      Y:     0.0000      Z:     0.0000

  Dipole Moment: [e a0]
     X:     0.0000      Y:     0.0000      Z:     0.0000     Total:     0.0000

  Dipole Moment: [D]
     X:     0.0000      Y:     0.0000      Z:     0.0000     Total:     0.0000


*** tstop() called on bp1-compute00190.data.bp.acrc.priv at Tue Apr 27 17:25:15 2021
Module time:
	user time   =      49.09 seconds =       0.82 minutes
	system time =       2.29 seconds =       0.04 minutes
	total time  =          2 seconds =       0.03 minutes
Total time:
	user time   =      96.23 seconds =       1.60 minutes
	system time =       4.09 seconds =       0.07 minutes
	total time  =          5 seconds =       0.08 minutes

  //>>>>>>>>>>>>>>>>>>>>>>>>>>>>>>>>>>>//
  //    Loading displacement 3 of 3    //
  //<<<<<<<<<<<<<<<<<<<<<<<<<<<<<<<<<<<//

*** tstart() called on bp1-compute00190.data.bp.acrc.priv
*** at Tue Apr 27 17:25:15 2021

   => Loading Basis Set <=

    Name: AUG-CC-PV(T+D)Z
    Role: ORBITAL
    Keyword: BASIS
    atoms 1-2 entry N          line   301 file /work/zw18965/.conda/envs/p4env/share/psi4/basis/aug-cc-pv_tpd_z.gbs 


         ---------------------------------------------------------
                                   SCF
               by Justin Turney, Rob Parrish, Andy Simmonett
                          and Daniel G. A. Smith
                              RKS Reference
                       24 Threads, 137329 MiB Core
         ---------------------------------------------------------

  ==> Geometry <==

    Molecular point group: d2h
    Full point group: D_inf_h

    Geometry (in Angstrom), charge = 0, multiplicity = 1:

       Center              X                  Y                   Z               Mass       
    ------------   -----------------  -----------------  -----------------  -----------------
         N            0.000000000000     0.000000000000    -0.549650029423    14.003074004430
         N            0.000000000000     0.000000000000     0.549650029423    14.003074004430

  Running in d2h symmetry.

  Rotational constants: A = ************  B =      1.99237  C =      1.99237 [cm^-1]
  Rotational constants: A = ************  B =  59729.83411  C =  59729.83411 [MHz]
  Nuclear repulsion =   23.587448316940506

  Charge       = 0
  Multiplicity = 1
  Electrons    = 14
  Nalpha       = 7
  Nbeta        = 7

  ==> Algorithm <==

  SCF Algorithm Type is DF.
  DIIS enabled.
  MOM disabled.
  Fractional occupation disabled.
  Guess Type is SAD.
  Energy threshold   = 1.00e-08
  Density threshold  = 1.00e-08
  Integral threshold = 0.00e+00

  ==> Primary Basis <==

  Basis Set: AUG-CC-PV(T+D)Z
    Blend: AUG-CC-PV(T+D)Z
    Number of shells: 28
    Number of basis function: 92
    Number of Cartesian functions: 110
    Spherical Harmonics?: true
    Max angular momentum: 3

  ==> DFT Potential <==

   => Composite Functional: WB97X-V <= 

    wB97X-V Hyb-GGA Exchange-Correlation Functional

    N. Mardirossian and M. Head-Gordon, Phys. Chem. Chem. Phys. 16, 9904 (2014)

    Deriv               =              1
    GGA                 =           TRUE
    Meta                =          FALSE

    Exchange Hybrid     =           TRUE
    MP2 Hybrid          =          FALSE

   => Exchange-Correlation Functionals <=

    1.0000   wB97X-V range-separated functional

   => Exact (HF) Exchange <=

    0.8330            HF,LR [omega = 0.3000]
    0.1670               HF 

   => VV10 Non-Local Parameters <=

    VV10 B              =     6.0000E+00
    VV10 C              =     1.0000E-02

   => Molecular Quadrature <=

    Radial Scheme          =       TREUTLER
    Pruning Scheme         =           FLAT
    Nuclear Scheme         =       TREUTLER

    BS radius alpha        =              1
    Pruning alpha          =              1
    Radial Points          =             75
    Spherical Points       =            302
    Total Points           =          44978
    Total Blocks           =            416
    Max Points             =            256
    Max Functions          =             92

   => Loading Basis Set <=

    Name: (AUG-CC-PV(T+D)Z AUX)
    Role: JKFIT
    Keyword: DF_BASIS_SCF
    atoms 1-2 entry N          line   224 file /work/zw18965/.conda/envs/p4env/share/psi4/basis/aug-cc-pvtz-jkfit.gbs 

  ==> Pre-Iterations <==

   -------------------------------------------------------
    Irrep   Nso     Nmo     Nalpha   Nbeta   Ndocc  Nsocc
   -------------------------------------------------------
     Ag        19      19       0       0       0       0
     B1g        5       5       0       0       0       0
     B2g       11      11       0       0       0       0
     B3g       11      11       0       0       0       0
     Au         5       5       0       0       0       0
     B1u       19      19       0       0       0       0
     B2u       11      11       0       0       0       0
     B3u       11      11       0       0       0       0
   -------------------------------------------------------
    Total      92      92       7       7       7       0
   -------------------------------------------------------

  ==> Integral Setup <==

  ==> DiskDFJK: Density-Fitted J/K Matrices <==

    J tasked:                  Yes
    K tasked:                  Yes
    wK tasked:                 Yes
    Omega:               3.000E-01
    OpenMP threads:             24
    Integrals threads:          24
    Memory [MiB]:           102881
    Algorithm:                Core
    Integral Cache:           NONE
    Schwarz Cutoff:          1E-12
    Fitting Condition:       1E-10

   => Auxiliary Basis Set <=

  Basis Set: (AUG-CC-PV(T+D)Z AUX)
    Blend: AUG-CC-PVTZ-JKFIT
    Number of shells: 60
    Number of basis function: 208
    Number of Cartesian functions: 262
    Spherical Harmonics?: true
    Max angular momentum: 4

  Cached 100.0% of DFT collocation blocks in 0.113 [GiB].

  Minimum eigenvalue in the overlap matrix is 6.9037925066E-05.
  Using Symmetric Orthogonalization.

  SCF Guess: Superposition of Atomic Densities via on-the-fly atomic UHF.

  ==> Iterations <==

                           Total Energy        Delta E     RMS |[F,P]|

   @DF-RKS iter SAD:  -108.76990476794050   -1.08770e+02   0.00000e+00 
   @DF-RKS iter   1:  -109.51759084459036   -7.47686e-01   6.45301e-03 DIIS
   @DF-RKS iter   2:  -109.53383297927650   -1.62421e-02   2.47776e-03 DIIS
   @DF-RKS iter   3:  -109.53644332006337   -2.61034e-03   2.40570e-04 DIIS
   @DF-RKS iter   4:  -109.53647891428700   -3.55942e-05   3.57237e-05 DIIS
   @DF-RKS iter   5:  -109.53648040742517   -1.49314e-06   7.58653e-06 DIIS
   @DF-RKS iter   6:  -109.53648049862194   -9.11968e-08   6.81629e-07 DIIS
   @DF-RKS iter   7:  -109.53648049947756   -8.55621e-10   5.33570e-08 DIIS
   @DF-RKS iter   8:  -109.53648049948195   -4.39115e-12   5.91597e-09 DIIS
  Energy and wave function converged.


  ==> Post-Iterations <==

    Orbital Energies [Eh]
    ---------------------

    Doubly Occupied:                                                      

       1Ag   -14.517229     1B1u  -14.515504     2Ag    -1.256895  
       2B1u   -0.676082     1B2u   -0.578680     1B3u   -0.578680  
       3Ag    -0.547114  

    Virtual:                                                              

       1B2g    0.065523     1B3g    0.065523     3B1u    0.085211  
       4Ag     0.113364     2B2u    0.121568     2B3u    0.121568  
       5Ag     0.157264     2B2g    0.175880     2B3g    0.175880  
       4B1u    0.272986     6Ag     0.383417     1B1g    0.383417  
       7Ag     0.450955     5B1u    0.501487     3B3g    0.539893  
       3B2g    0.539893     3B2u    0.541364     3B3u    0.541364  
       1Au     0.559573     6B1u    0.559574     4B2u    0.657359  
       4B3u    0.657359     7B1u    0.697167     8Ag     0.701716  
       8B1u    0.929993     4B2g    0.977390     4B3g    0.977390  
       9Ag     1.131720    10Ag     1.228890     2B1g    1.228890  
       5B2u    1.288119     5B3u    1.288119     6B2u    1.352947  
       6B3u    1.352947     2Au     1.466207     9B1u    1.466208  
      10B1u    1.504174    11Ag     1.588451    12Ag     1.606416  
       3B1g    1.606417     5B2g    1.624937     5B3g    1.624937  
       6B3g    1.638170     6B2g    1.638170    11B1u    1.871399  
       7B3u    2.037763     7B2u    2.037763     3Au     2.189512  
      12B1u    2.189515     7B2g    2.270497     7B3g    2.270497  
      13B1u    2.563387    13Ag     2.595616     8B3u    3.005596  
       8B2u    3.005596    14Ag     3.731875     8B3g    3.995031  
       8B2g    3.995031     4B1g    4.135514    15Ag     4.135514  
      14B1u    4.224113     9B3u    4.245616     9B2u    4.245616  
      16Ag     4.252948    10B3u    4.407384    10B2u    4.407384  
       5B1g    4.770818    17Ag     4.770820     9B2g    4.778685  
       9B3g    4.778685     4Au     4.861035    15B1u    4.861037  
      16B1u    4.898249    10B2g    5.112046    10B3g    5.112046  
      11B3u    5.278253    11B2u    5.278253     5Au     5.445955  
      17B1u    5.445956    18Ag     6.346683    18B1u    6.405000  
      11B2g    6.532816    11B3g    6.532816    19Ag    10.398850  
      19B1u   18.424155  

    Final Occupation by Irrep:
             Ag   B1g   B2g   B3g    Au   B1u   B2u   B3u 
    DOCC [     3,    0,    0,    0,    0,    2,    1,    1 ]

  @DF-RKS Final Energy:  -109.53648049948195

   => Energetics <=

    Nuclear Repulsion Energy =             23.5874483169405060
    One-Electron Energy =                -194.3987900057701950
    Two-Electron Energy =                  70.8969262829103570
    DFT Exchange-Correlation Energy =      -9.6809970193052823
    Empirical Dispersion Energy =           0.0000000000000000
    VV10 Nonlocal Energy =                  0.0589319257426575
    Total Energy =                       -109.5364804994819536

Computation Completed


Properties will be evaluated at   0.000000,   0.000000,   0.000000 [a0]

Properties computed using the SCF density matrix

  Nuclear Dipole Moment: [e a0]
     X:     0.0000      Y:     0.0000      Z:     0.0000

  Electronic Dipole Moment: [e a0]
     X:     0.0000      Y:     0.0000      Z:     0.0000

  Dipole Moment: [e a0]
     X:     0.0000      Y:     0.0000      Z:     0.0000     Total:     0.0000

  Dipole Moment: [D]
     X:     0.0000      Y:     0.0000      Z:     0.0000     Total:     0.0000


*** tstop() called on bp1-compute00190.data.bp.acrc.priv at Tue Apr 27 17:25:17 2021
Module time:
	user time   =      49.42 seconds =       0.82 minutes
	system time =       1.57 seconds =       0.03 minutes
	total time  =          2 seconds =       0.03 minutes
Total time:
	user time   =     145.82 seconds =       2.43 minutes
	system time =       5.67 seconds =       0.09 minutes
	total time  =          7 seconds =       0.12 minutes

         ----------------------------------------------------------
                                   FINDIF
                     R. A. King and Jonathon Misiewicz
         ---------------------------------------------------------

  Computing gradient from energies.
    Using 3-point formula.
    Energy without displacement: -109.5364321053
    Check energies below for precision!
    Forces are for mass-weighted, symmetry-adapted cartesians (in au).

     Coord      Energy(-1)        Energy(+1)            Force
        0   -109.5363782101   -109.5364804995     -0.0102289383


-------------------------------------------------------------
  ## New Matrix (Symmetry 0) ##
  Irrep: 1 Size: 2 x 3

                 1                   2                   3

    1     0.00000000000000     0.00000000000000    -0.02706619781935
    2     0.00000000000000     0.00000000000000     0.02706619781935




			-----------------------------------------
			 OPTKING 2.0: for geometry optimizations 
			  - R.A. King,  Bethel University        
			-----------------------------------------
	At level 1: Red. Int., RFO, no backsteps, dynamic trust

	Internal coordinates to be generated automatically.
	Detected frag 1 with atoms:  1 2
	---Fragment 1 Bond Connectivity---
	 1 : 2
	 2 : 1

	---Fragment 1 Geometry and Gradient---
	 N           0.0000000000        0.0000000000       -1.0396328279
	 N           0.0000000000        0.0000000000        1.0396328279
	             0.0000000000        0.0000000000       -0.0270661978
	             0.0000000000        0.0000000000        0.0270661978

	Previous optimization step data not found.  Starting new optimization.

	---Fragment 1 Intrafragment Coordinates---
	 - Coordinate -           - BOHR/RAD -       - ANG/DEG -
	 R(1,2)           =         2.079266	       1.100300

	Current energy   :      -109.5364321053

	Generating empirical Hessian (Schlegel '84) for each fragment.
	Taking RFO optimization step.
	Going to follow RFO solution 1.
	Using RFO vector 1.
	Norm of target step-size    0.01534
	Projected energy change by RFO approximation:        -0.0002974503

	Back-transformation to cartesian coordinates...
	Successfully converged to displaced geometry.

	--- Internal Coordinate Step in ANG or DEG, aJ/ANG or AJ/DEG ---
	 ---------------------------------------------------------------------------
	   Coordinate                Previous        Force       Change         New 
	   ----------                --------       ------       ------       ------
	    1 R(1,2)          =      1.100300    -0.222991    -0.008117     1.092183
	 ---------------------------------------------------------------------------
	Successfully symmetrized geometry.

  ==> Convergence Check <==

  Measures of convergence in internal coordinates in au.
  Criteria marked as inactive (o), active & met (*), and active & unmet ( ).
  --------------------------------------------------------------------------------------------- ~
   Step     Total Energy     Delta E     MAX Force     RMS Force      MAX Disp      RMS Disp    ~
  --------------------------------------------------------------------------------------------- ~
    Convergence Criteria    1.00e-06 *    3.00e-04 *             o    1.20e-03 *             o  ~
  --------------------------------------------------------------------------------------------- ~
      1    -109.53643211   -1.10e+02      2.71e-02      2.71e-02 o    1.53e-02      1.53e-02 o  ~
  ---------------------------------------------------------------------------------------------

	Writing optimization data to binary file.
	Structure for next step:
	Cartesian Geometry (in Angstrom)
	    N     0.0000000000   0.0000000000  -0.5460916019
	    N     0.0000000000   0.0000000000   0.5460916019
			--------------------------
			 OPTKING Finished Execution 
			--------------------------

    Structure for next step:
    Molecular point group: d2h
    Full point group: D_inf_h

    Geometry (in Angstrom), charge = 0, multiplicity = 1:

    N            0.000000000000     0.000000000000    -0.546091603997
    N            0.000000000000     0.000000000000     0.546091603997

gradient() will perform gradient computation by finite difference of analytic energies.

         ----------------------------------------------------------
                                   FINDIF
                     R. A. King and Jonathon Misiewicz
         ---------------------------------------------------------

  Using finite-differences of energies to determine gradients.
    Generating geometries for use with 3-point formula.
    Displacement size will be 5.00e-03.
    Number of atoms is 2.
    Number of symmetric SALCs is 1.
    Translations projected? 1. Rotations projected? 1.
    Number of geometries (including reference) is 3.

  //>>>>>>>>>>>>>>>>>>>>>>>>>>>>>>>>>>>//
  //    Loading displacement 1 of 3    //
  //<<<<<<<<<<<<<<<<<<<<<<<<<<<<<<<<<<<//

*** tstart() called on bp1-compute00190.data.bp.acrc.priv
*** at Tue Apr 27 17:25:17 2021

   => Loading Basis Set <=

    Name: AUG-CC-PV(T+D)Z
    Role: ORBITAL
    Keyword: BASIS
    atoms 1-2 entry N          line   301 file /work/zw18965/.conda/envs/p4env/share/psi4/basis/aug-cc-pv_tpd_z.gbs 


         ---------------------------------------------------------
                                   SCF
               by Justin Turney, Rob Parrish, Andy Simmonett
                          and Daniel G. A. Smith
                              RKS Reference
                       24 Threads, 137329 MiB Core
         ---------------------------------------------------------

  ==> Geometry <==

    Molecular point group: d2h
    Full point group: D_inf_h

    Geometry (in Angstrom), charge = 0, multiplicity = 1:

       Center              X                  Y                   Z               Mass       
    ------------   -----------------  -----------------  -----------------  -----------------
         N            0.000000000000     0.000000000000    -0.546091603997    14.003074004430
         N            0.000000000000     0.000000000000     0.546091603997    14.003074004430

  Running in d2h symmetry.

  Rotational constants: A = ************  B =      2.01842  C =      2.01842 [cm^-1]
  Rotational constants: A = ************  B =  60510.78971  C =  60510.78971 [MHz]
  Nuclear repulsion =   23.741148127035547

  Charge       = 0
  Multiplicity = 1
  Electrons    = 14
  Nalpha       = 7
  Nbeta        = 7

  ==> Algorithm <==

  SCF Algorithm Type is DF.
  DIIS enabled.
  MOM disabled.
  Fractional occupation disabled.
  Guess Type is READ.
  Energy threshold   = 1.00e-08
  Density threshold  = 1.00e-08
  Integral threshold = 0.00e+00

  ==> Primary Basis <==

  Basis Set: AUG-CC-PV(T+D)Z
    Blend: AUG-CC-PV(T+D)Z
    Number of shells: 28
    Number of basis function: 92
    Number of Cartesian functions: 110
    Spherical Harmonics?: true
    Max angular momentum: 3

  ==> DFT Potential <==

   => Composite Functional: WB97X-V <= 

    wB97X-V Hyb-GGA Exchange-Correlation Functional

    N. Mardirossian and M. Head-Gordon, Phys. Chem. Chem. Phys. 16, 9904 (2014)

    Deriv               =              1
    GGA                 =           TRUE
    Meta                =          FALSE

    Exchange Hybrid     =           TRUE
    MP2 Hybrid          =          FALSE

   => Exchange-Correlation Functionals <=

    1.0000   wB97X-V range-separated functional

   => Exact (HF) Exchange <=

    0.8330            HF,LR [omega = 0.3000]
    0.1670               HF 

   => VV10 Non-Local Parameters <=

    VV10 B              =     6.0000E+00
    VV10 C              =     1.0000E-02

   => Molecular Quadrature <=

    Radial Scheme          =       TREUTLER
    Pruning Scheme         =           FLAT
    Nuclear Scheme         =       TREUTLER

    BS radius alpha        =              1
    Pruning alpha          =              1
    Radial Points          =             75
    Spherical Points       =            302
    Total Points           =          44978
    Total Blocks           =            416
    Max Points             =            256
    Max Functions          =             92

   => Loading Basis Set <=

    Name: (AUG-CC-PV(T+D)Z AUX)
    Role: JKFIT
    Keyword: DF_BASIS_SCF
    atoms 1-2 entry N          line   224 file /work/zw18965/.conda/envs/p4env/share/psi4/basis/aug-cc-pvtz-jkfit.gbs 

   => Loading Basis Set <=

    Name: AUG-CC-PV(T+D)Z
    Role: ORBITAL
    Keyword: BASIS
    atoms 1-2 entry N          line   301 file /work/zw18965/.conda/envs/p4env/share/psi4/basis/aug-cc-pv_tpd_z.gbs 

  Reading orbitals from file 180, no projection.

  ==> Pre-Iterations <==

   -------------------------------------------------------
    Irrep   Nso     Nmo     Nalpha   Nbeta   Ndocc  Nsocc
   -------------------------------------------------------
     Ag        19      19       0       0       0       0
     B1g        5       5       0       0       0       0
     B2g       11      11       0       0       0       0
     B3g       11      11       0       0       0       0
     Au         5       5       0       0       0       0
     B1u       19      19       0       0       0       0
     B2u       11      11       0       0       0       0
     B3u       11      11       0       0       0       0
   -------------------------------------------------------
    Total      92      92       7       7       7       0
   -------------------------------------------------------

  ==> Integral Setup <==

  ==> DiskDFJK: Density-Fitted J/K Matrices <==

    J tasked:                  Yes
    K tasked:                  Yes
    wK tasked:                 Yes
    Omega:               3.000E-01
    OpenMP threads:             24
    Integrals threads:          24
    Memory [MiB]:           102881
    Algorithm:                Core
    Integral Cache:           NONE
    Schwarz Cutoff:          1E-12
    Fitting Condition:       1E-10

   => Auxiliary Basis Set <=

  Basis Set: (AUG-CC-PV(T+D)Z AUX)
    Blend: AUG-CC-PVTZ-JKFIT
    Number of shells: 60
    Number of basis function: 208
    Number of Cartesian functions: 262
    Spherical Harmonics?: true
    Max angular momentum: 4

  Cached 100.0% of DFT collocation blocks in 0.113 [GiB].

  Minimum eigenvalue in the overlap matrix is 6.7222810124E-05.
  Using Symmetric Orthogonalization.

  SCF Guess: Orbitals guess was supplied from a previous computation.

  ==> Iterations <==

                           Total Energy        Delta E     RMS |[F,P]|

   @DF-RKS iter   0:  -109.53424371951550   -1.09534e+02   1.39667e-03 
   @DF-RKS iter   1:  -109.53665193655226   -2.40822e-03   1.43485e-04 DIIS
   @DF-RKS iter   2:  -109.53666138900051   -9.45245e-06   5.78520e-05 DIIS
   @DF-RKS iter   3:  -109.53666262051325   -1.23151e-06   5.10443e-06 DIIS
   @DF-RKS iter   4:  -109.53666263733120   -1.68179e-08   1.49753e-06 DIIS
   @DF-RKS iter   5:  -109.53666263904535   -1.71414e-09   1.53661e-07 DIIS
   @DF-RKS iter   6:  -109.53666263907402   -2.86775e-11   1.48745e-08 DIIS
   @DF-RKS iter   7:  -109.53666263907459   -5.68434e-13   1.98166e-09 DIIS
  Energy and wave function converged.


  ==> Post-Iterations <==

    Orbital Energies [Eh]
    ---------------------

    Doubly Occupied:                                                      

       1Ag   -14.515095     1B1u  -14.513264     2Ag    -1.260968  
       2B1u   -0.674098     1B3u   -0.581106     1B2u   -0.581106  
       3Ag    -0.547527  

    Virtual:                                                              

       1B2g    0.068341     1B3g    0.068341     3B1u    0.085251  
       4Ag     0.113447     2B3u    0.121441     2B2u    0.121441  
       5Ag     0.157313     2B3g    0.176480     2B2g    0.176480  
       4B1u    0.273234     6Ag     0.383592     1B1g    0.383592  
       7Ag     0.450702     5B1u    0.503261     3B3g    0.539956  
       3B2g    0.539956     3B2u    0.541496     3B3u    0.541496  
       1Au     0.559802     6B1u    0.559803     4B3u    0.656969  
       4B2u    0.656969     7B1u    0.699564     8Ag     0.701059  
       8B1u    0.939781     4B2g    0.979255     4B3g    0.979255  
       9Ag     1.133084    10Ag     1.228605     2B1g    1.228605  
       5B3u    1.288342     5B2u    1.288342     6B2u    1.354559  
       6B3u    1.354559     2Au     1.465812     9B1u    1.465813  
      10B1u    1.505522    11Ag     1.590686    12Ag     1.608650  
       3B1g    1.608651     5B3g    1.627242     5B2g    1.627242  
       6B2g    1.639824     6B3g    1.639824    11B1u    1.870979  
       7B2u    2.042621     7B3u    2.042621     3Au     2.195461  
      12B1u    2.195464     7B3g    2.269692     7B2g    2.269692  
      13B1u    2.579194    13Ag     2.593040     8B3u    3.004233  
       8B2u    3.004233    14Ag     3.743801     8B3g    4.008060  
       8B2g    4.008060     4B1g    4.132275    15Ag     4.132275  
      14B1u    4.215302     9B2u    4.250674     9B3u    4.250674  
      16Ag     4.256739    10B3u    4.403779    10B2u    4.403779  
       5B1g    4.774604    17Ag     4.774606     9B2g    4.783283  
       9B3g    4.783283     4Au     4.862440    15B1u    4.862442  
      16B1u    4.914152    10B3g    5.105988    10B2g    5.105988  
      11B2u    5.287780    11B3u    5.287780     5Au     5.460485  
      17B1u    5.460486    18Ag     6.381147    18B1u    6.423981  
      11B3g    6.564200    11B2g    6.564200    19Ag    10.418811  
      19B1u   18.750709  

    Final Occupation by Irrep:
             Ag   B1g   B2g   B3g    Au   B1u   B2u   B3u 
    DOCC [     3,    0,    0,    0,    0,    2,    1,    1 ]

  @DF-RKS Final Energy:  -109.53666263907459

   => Energetics <=

    Nuclear Repulsion Energy =             23.7411481270355473
    One-Electron Energy =                -194.6959985589789710
    Two-Electron Energy =                  71.0474775983949485
    DFT Exchange-Correlation Energy =      -9.6882246672396306
    Empirical Dispersion Energy =           0.0000000000000000
    VV10 Nonlocal Energy =                  0.0589348617135102
    Total Energy =                       -109.5366626390745921

Computation Completed


Properties will be evaluated at   0.000000,   0.000000,   0.000000 [a0]

Properties computed using the SCF density matrix

  Nuclear Dipole Moment: [e a0]
     X:     0.0000      Y:     0.0000      Z:    -0.0000

  Electronic Dipole Moment: [e a0]
     X:     0.0000      Y:     0.0000      Z:     0.0000

  Dipole Moment: [e a0]
     X:     0.0000      Y:     0.0000      Z:    -0.0000     Total:     0.0000

  Dipole Moment: [D]
     X:     0.0000      Y:     0.0000      Z:    -0.0000     Total:     0.0000


*** tstop() called on bp1-compute00190.data.bp.acrc.priv at Tue Apr 27 17:25:19 2021
Module time:
	user time   =      39.88 seconds =       0.66 minutes
	system time =       1.43 seconds =       0.02 minutes
	total time  =          2 seconds =       0.03 minutes
Total time:
	user time   =     186.07 seconds =       3.10 minutes
	system time =       7.11 seconds =       0.12 minutes
	total time  =          9 seconds =       0.15 minutes

  //>>>>>>>>>>>>>>>>>>>>>>>>>>>>>>>>>>>//
  //    Loading displacement 2 of 3    //
  //<<<<<<<<<<<<<<<<<<<<<<<<<<<<<<<<<<<//

*** tstart() called on bp1-compute00190.data.bp.acrc.priv
*** at Tue Apr 27 17:25:19 2021

   => Loading Basis Set <=

    Name: AUG-CC-PV(T+D)Z
    Role: ORBITAL
    Keyword: BASIS
    atoms 1-2 entry N          line   301 file /work/zw18965/.conda/envs/p4env/share/psi4/basis/aug-cc-pv_tpd_z.gbs 


         ---------------------------------------------------------
                                   SCF
               by Justin Turney, Rob Parrish, Andy Simmonett
                          and Daniel G. A. Smith
                              RKS Reference
                       24 Threads, 137329 MiB Core
         ---------------------------------------------------------

  ==> Geometry <==

    Molecular point group: d2h
    Full point group: D_inf_h

    Geometry (in Angstrom), charge = 0, multiplicity = 1:

       Center              X                  Y                   Z               Mass       
    ------------   -----------------  -----------------  -----------------  -----------------
         N            0.000000000000     0.000000000000    -0.546591574574    14.003074004430
         N            0.000000000000     0.000000000000     0.546591574574    14.003074004430

  Running in d2h symmetry.

  Rotational constants: A = ************  B =      2.01473  C =      2.01473 [cm^-1]
  Rotational constants: A = ************  B =  60400.14117  C =  60400.14117 [MHz]
  Nuclear repulsion =   23.719431957074750

  Charge       = 0
  Multiplicity = 1
  Electrons    = 14
  Nalpha       = 7
  Nbeta        = 7

  ==> Algorithm <==

  SCF Algorithm Type is DF.
  DIIS enabled.
  MOM disabled.
  Fractional occupation disabled.
  Guess Type is READ.
  Energy threshold   = 1.00e-08
  Density threshold  = 1.00e-08
  Integral threshold = 0.00e+00

  ==> Primary Basis <==

  Basis Set: AUG-CC-PV(T+D)Z
    Blend: AUG-CC-PV(T+D)Z
    Number of shells: 28
    Number of basis function: 92
    Number of Cartesian functions: 110
    Spherical Harmonics?: true
    Max angular momentum: 3

  ==> DFT Potential <==

   => Composite Functional: WB97X-V <= 

    wB97X-V Hyb-GGA Exchange-Correlation Functional

    N. Mardirossian and M. Head-Gordon, Phys. Chem. Chem. Phys. 16, 9904 (2014)

    Deriv               =              1
    GGA                 =           TRUE
    Meta                =          FALSE

    Exchange Hybrid     =           TRUE
    MP2 Hybrid          =          FALSE

   => Exchange-Correlation Functionals <=

    1.0000   wB97X-V range-separated functional

   => Exact (HF) Exchange <=

    0.8330            HF,LR [omega = 0.3000]
    0.1670               HF 

   => VV10 Non-Local Parameters <=

    VV10 B              =     6.0000E+00
    VV10 C              =     1.0000E-02

   => Molecular Quadrature <=

    Radial Scheme          =       TREUTLER
    Pruning Scheme         =           FLAT
    Nuclear Scheme         =       TREUTLER

    BS radius alpha        =              1
    Pruning alpha          =              1
    Radial Points          =             75
    Spherical Points       =            302
    Total Points           =          44978
    Total Blocks           =            416
    Max Points             =            256
    Max Functions          =             92

   => Loading Basis Set <=

    Name: (AUG-CC-PV(T+D)Z AUX)
    Role: JKFIT
    Keyword: DF_BASIS_SCF
    atoms 1-2 entry N          line   224 file /work/zw18965/.conda/envs/p4env/share/psi4/basis/aug-cc-pvtz-jkfit.gbs 

   => Loading Basis Set <=

    Name: AUG-CC-PV(T+D)Z
    Role: ORBITAL
    Keyword: BASIS
    atoms 1-2 entry N          line   301 file /work/zw18965/.conda/envs/p4env/share/psi4/basis/aug-cc-pv_tpd_z.gbs 

  Reading orbitals from file 180, no projection.

  ==> Pre-Iterations <==

   -------------------------------------------------------
    Irrep   Nso     Nmo     Nalpha   Nbeta   Ndocc  Nsocc
   -------------------------------------------------------
     Ag        19      19       0       0       0       0
     B1g        5       5       0       0       0       0
     B2g       11      11       0       0       0       0
     B3g       11      11       0       0       0       0
     Au         5       5       0       0       0       0
     B1u       19      19       0       0       0       0
     B2u       11      11       0       0       0       0
     B3u       11      11       0       0       0       0
   -------------------------------------------------------
    Total      92      92       7       7       7       0
   -------------------------------------------------------

  ==> Integral Setup <==

  ==> DiskDFJK: Density-Fitted J/K Matrices <==

    J tasked:                  Yes
    K tasked:                  Yes
    wK tasked:                 Yes
    Omega:               3.000E-01
    OpenMP threads:             24
    Integrals threads:          24
    Memory [MiB]:           102881
    Algorithm:                Core
    Integral Cache:           NONE
    Schwarz Cutoff:          1E-12
    Fitting Condition:       1E-10

   => Auxiliary Basis Set <=

  Basis Set: (AUG-CC-PV(T+D)Z AUX)
    Blend: AUG-CC-PVTZ-JKFIT
    Number of shells: 60
    Number of basis function: 208
    Number of Cartesian functions: 262
    Spherical Harmonics?: true
    Max angular momentum: 4

  Cached 100.0% of DFT collocation blocks in 0.113 [GiB].

  Minimum eigenvalue in the overlap matrix is 6.7474825065E-05.
  Using Symmetric Orthogonalization.

  SCF Guess: Orbitals guess was supplied from a previous computation.

  ==> Iterations <==

                           Total Energy        Delta E     RMS |[F,P]|

   @DF-RKS iter   0:  -109.53702175598266   -1.09537e+02   1.74271e-04 
   @DF-RKS iter   1:  -109.53665435145867    3.67405e-04   1.78739e-05 DIIS
   @DF-RKS iter   2:  -109.53665449782902   -1.46370e-07   7.19675e-06 DIIS
   @DF-RKS iter   3:  -109.53665451690244   -1.90734e-08   6.34149e-07 DIIS
   @DF-RKS iter   4:  -109.53665451716137   -2.58922e-10   1.85943e-07 DIIS
   @DF-RKS iter   5:  -109.53665451718781   -2.64464e-11   1.90863e-08 DIIS
   @DF-RKS iter   6:  -109.53665451718828   -4.68958e-13   1.85400e-09 DIIS
  Energy and wave function converged.


  ==> Post-Iterations <==

    Orbital Energies [Eh]
    ---------------------

    Doubly Occupied:                                                      

       1Ag   -14.515396     1B1u  -14.513580     2Ag    -1.260396  
       2B1u   -0.674377     1B3u   -0.580763     1B2u   -0.580763  
       3Ag    -0.547469  

    Virtual:                                                              

       1B3g    0.067945     1B2g    0.067945     3B1u    0.085246  
       4Ag     0.113436     2B2u    0.121459     2B3u    0.121459  
       5Ag     0.157306     2B2g    0.176393     2B3g    0.176393  
       4B1u    0.273199     6Ag     0.383568     1B1g    0.383568  
       7Ag     0.450737     5B1u    0.503016     3B2g    0.539946  
       3B3g    0.539946     3B3u    0.541479     3B2u    0.541479  
       1Au     0.559770     6B1u    0.559771     4B3u    0.657025  
       4B2u    0.657025     7B1u    0.699237     8Ag     0.701151  
       8B1u    0.938388     4B2g    0.978992     4B3g    0.978992  
       9Ag     1.132892    10Ag     1.228644     2B1g    1.228644  
       5B2u    1.288310     5B3u    1.288310     6B3u    1.354333  
       6B2u    1.354333     2Au     1.465868     9B1u    1.465869  
      10B1u    1.505321    11Ag     1.590373    12Ag     1.608336  
       3B1g    1.608337     5B2g    1.626918     5B3g    1.626918  
       6B2g    1.639591     6B3g    1.639591    11B1u    1.871023  
       7B3u    2.041935     7B2u    2.041935     3Au     2.194622  
      12B1u    2.194625     7B2g    2.269804     7B3g    2.269804  
      13B1u    2.576963    13Ag     2.593406     8B3u    3.004429  
       8B2u    3.004429    14Ag     3.742146     8B2g    4.006230  
       8B3g    4.006230     4B1g    4.132724    15Ag     4.132724  
      14B1u    4.216507     9B3u    4.249949     9B2u    4.249949  
      16Ag     4.256201    10B2u    4.404288    10B3u    4.404288  
       5B1g    4.774067    17Ag     4.774068     9B2g    4.782632  
       9B3g    4.782632     4Au     4.862244    15B1u    4.862246  
      16B1u    4.911910    10B2g    5.106848    10B3g    5.106848  
      11B3u    5.286440    11B2u    5.286440     5Au     5.458434  
      17B1u    5.458435    18Ag     6.376242    18B1u    6.421296  
      11B3g    6.559763    11B2g    6.559763    19Ag    10.416046  
      19B1u   18.704622  

    Final Occupation by Irrep:
             Ag   B1g   B2g   B3g    Au   B1u   B2u   B3u 
    DOCC [     3,    0,    0,    0,    0,    2,    1,    1 ]

  @DF-RKS Final Energy:  -109.53665451718828

   => Energetics <=

    Nuclear Repulsion Energy =             23.7194319570747503
    One-Electron Energy =                -194.6540375545008317
    Two-Electron Energy =                  71.0262185665715435
    DFT Exchange-Correlation Energy =      -9.6872019277940975
    Empirical Dispersion Energy =           0.0000000000000000
    VV10 Nonlocal Energy =                  0.0589344414603464
    Total Energy =                       -109.5366545171882677

Computation Completed


Properties will be evaluated at   0.000000,   0.000000,   0.000000 [a0]

Properties computed using the SCF density matrix

  Nuclear Dipole Moment: [e a0]
     X:     0.0000      Y:     0.0000      Z:     0.0000

  Electronic Dipole Moment: [e a0]
     X:     0.0000      Y:     0.0000      Z:     0.0000

  Dipole Moment: [e a0]
     X:     0.0000      Y:     0.0000      Z:     0.0000     Total:     0.0000

  Dipole Moment: [D]
     X:     0.0000      Y:     0.0000      Z:     0.0000     Total:     0.0000


*** tstop() called on bp1-compute00190.data.bp.acrc.priv at Tue Apr 27 17:25:20 2021
Module time:
	user time   =      39.05 seconds =       0.65 minutes
	system time =       1.24 seconds =       0.02 minutes
	total time  =          1 seconds =       0.02 minutes
Total time:
	user time   =     225.25 seconds =       3.75 minutes
	system time =       8.35 seconds =       0.14 minutes
	total time  =         10 seconds =       0.17 minutes

  //>>>>>>>>>>>>>>>>>>>>>>>>>>>>>>>>>>>//
  //    Loading displacement 3 of 3    //
  //<<<<<<<<<<<<<<<<<<<<<<<<<<<<<<<<<<<//

*** tstart() called on bp1-compute00190.data.bp.acrc.priv
*** at Tue Apr 27 17:25:20 2021

   => Loading Basis Set <=

    Name: AUG-CC-PV(T+D)Z
    Role: ORBITAL
    Keyword: BASIS
    atoms 1-2 entry N          line   301 file /work/zw18965/.conda/envs/p4env/share/psi4/basis/aug-cc-pv_tpd_z.gbs 


         ---------------------------------------------------------
                                   SCF
               by Justin Turney, Rob Parrish, Andy Simmonett
                          and Daniel G. A. Smith
                              RKS Reference
                       24 Threads, 137329 MiB Core
         ---------------------------------------------------------

  ==> Geometry <==

    Molecular point group: d2h
    Full point group: D_inf_h

    Geometry (in Angstrom), charge = 0, multiplicity = 1:

       Center              X                  Y                   Z               Mass       
    ------------   -----------------  -----------------  -----------------  -----------------
         N            0.000000000000     0.000000000000    -0.545591633419    14.003074004430
         N            0.000000000000     0.000000000000     0.545591633419    14.003074004430

  Running in d2h symmetry.

  Rotational constants: A = ************  B =      2.02212  C =      2.02212 [cm^-1]
  Rotational constants: A = ************  B =  60621.74257  C =  60621.74257 [MHz]
  Nuclear repulsion =   23.762904097628777

  Charge       = 0
  Multiplicity = 1
  Electrons    = 14
  Nalpha       = 7
  Nbeta        = 7

  ==> Algorithm <==

  SCF Algorithm Type is DF.
  DIIS enabled.
  MOM disabled.
  Fractional occupation disabled.
  Guess Type is READ.
  Energy threshold   = 1.00e-08
  Density threshold  = 1.00e-08
  Integral threshold = 0.00e+00

  ==> Primary Basis <==

  Basis Set: AUG-CC-PV(T+D)Z
    Blend: AUG-CC-PV(T+D)Z
    Number of shells: 28
    Number of basis function: 92
    Number of Cartesian functions: 110
    Spherical Harmonics?: true
    Max angular momentum: 3

  ==> DFT Potential <==

   => Composite Functional: WB97X-V <= 

    wB97X-V Hyb-GGA Exchange-Correlation Functional

    N. Mardirossian and M. Head-Gordon, Phys. Chem. Chem. Phys. 16, 9904 (2014)

    Deriv               =              1
    GGA                 =           TRUE
    Meta                =          FALSE

    Exchange Hybrid     =           TRUE
    MP2 Hybrid          =          FALSE

   => Exchange-Correlation Functionals <=

    1.0000   wB97X-V range-separated functional

   => Exact (HF) Exchange <=

    0.8330            HF,LR [omega = 0.3000]
    0.1670               HF 

   => VV10 Non-Local Parameters <=

    VV10 B              =     6.0000E+00
    VV10 C              =     1.0000E-02

   => Molecular Quadrature <=

    Radial Scheme          =       TREUTLER
    Pruning Scheme         =           FLAT
    Nuclear Scheme         =       TREUTLER

    BS radius alpha        =              1
    Pruning alpha          =              1
    Radial Points          =             75
    Spherical Points       =            302
    Total Points           =          44978
    Total Blocks           =            416
    Max Points             =            256
    Max Functions          =             92

   => Loading Basis Set <=

    Name: (AUG-CC-PV(T+D)Z AUX)
    Role: JKFIT
    Keyword: DF_BASIS_SCF
    atoms 1-2 entry N          line   224 file /work/zw18965/.conda/envs/p4env/share/psi4/basis/aug-cc-pvtz-jkfit.gbs 

   => Loading Basis Set <=

    Name: AUG-CC-PV(T+D)Z
    Role: ORBITAL
    Keyword: BASIS
    atoms 1-2 entry N          line   301 file /work/zw18965/.conda/envs/p4env/share/psi4/basis/aug-cc-pv_tpd_z.gbs 

  Reading orbitals from file 180, no projection.

  ==> Pre-Iterations <==

   -------------------------------------------------------
    Irrep   Nso     Nmo     Nalpha   Nbeta   Ndocc  Nsocc
   -------------------------------------------------------
     Ag        19      19       0       0       0       0
     B1g        5       5       0       0       0       0
     B2g       11      11       0       0       0       0
     B3g       11      11       0       0       0       0
     Au         5       5       0       0       0       0
     B1u       19      19       0       0       0       0
     B2u       11      11       0       0       0       0
     B3u       11      11       0       0       0       0
   -------------------------------------------------------
    Total      92      92       7       7       7       0
   -------------------------------------------------------

  ==> Integral Setup <==

  ==> DiskDFJK: Density-Fitted J/K Matrices <==

    J tasked:                  Yes
    K tasked:                  Yes
    wK tasked:                 Yes
    Omega:               3.000E-01
    OpenMP threads:             24
    Integrals threads:          24
    Memory [MiB]:           102881
    Algorithm:                Core
    Integral Cache:           NONE
    Schwarz Cutoff:          1E-12
    Fitting Condition:       1E-10

   => Auxiliary Basis Set <=

  Basis Set: (AUG-CC-PV(T+D)Z AUX)
    Blend: AUG-CC-PVTZ-JKFIT
    Number of shells: 60
    Number of basis function: 208
    Number of Cartesian functions: 262
    Spherical Harmonics?: true
    Max angular momentum: 4

  Cached 100.0% of DFT collocation blocks in 0.113 [GiB].

  Minimum eigenvalue in the overlap matrix is 6.6971770447E-05.
  Using Symmetric Orthogonalization.

  SCF Guess: Orbitals guess was supplied from a previous computation.

  ==> Iterations <==

                           Total Energy        Delta E     RMS |[F,P]|

   @DF-RKS iter   0:  -109.53630205390724   -1.09536e+02   1.74601e-04 
   @DF-RKS iter   1:  -109.53666477284091   -3.62719e-04   1.78476e-05 DIIS
   @DF-RKS iter   2:  -109.53666491869859   -1.45858e-07   7.18981e-06 DIIS
   @DF-RKS iter   3:  -109.53666493771047   -1.90119e-08   6.34144e-07 DIIS
   @DF-RKS iter   4:  -109.53666493796915   -2.58680e-10   1.86003e-07 DIIS
   @DF-RKS iter   5:  -109.53666493799543   -2.62759e-11   1.90611e-08 DIIS
   @DF-RKS iter   6:  -109.53666493799585   -4.26326e-13   1.85012e-09 DIIS
  Energy and wave function converged.


  ==> Post-Iterations <==

    Orbital Energies [Eh]
    ---------------------

    Doubly Occupied:                                                      

       1Ag   -14.514793     1B1u  -14.512947     2Ag    -1.261541  
       2B1u   -0.673818     1B2u   -0.581449     1B3u   -0.581449  
       3Ag    -0.547585  

    Virtual:                                                              

       1B3g    0.068737     1B2g    0.068737     3B1u    0.085257  
       4Ag     0.113459     2B3u    0.121423     2B2u    0.121423  
       5Ag     0.157320     2B2g    0.176567     2B3g    0.176567  
       4B1u    0.273268     6Ag     0.383617     1B1g    0.383617  
       7Ag     0.450668     5B1u    0.503504     3B3g    0.539966  
       3B2g    0.539966     3B3u    0.541513     3B2u    0.541513  
       1Au     0.559834     6B1u    0.559834     4B3u    0.656914  
       4B2u    0.656914     7B1u    0.699887     8Ag     0.700966  
       8B1u    0.941180     4B3g    0.979519     4B2g    0.979519  
       9Ag     1.133276    10Ag     1.228565     2B1g    1.228565  
       5B3u    1.288375     5B2u    1.288375     6B2u    1.354784  
       6B3u    1.354784     2Au     1.465756     9B1u    1.465757  
      10B1u    1.505726    11Ag     1.590999    12Ag     1.608965  
       3B1g    1.608966     5B3g    1.627566     5B2g    1.627566  
       6B2g    1.640056     6B3g    1.640056    11B1u    1.870938  
       7B2u    2.043307     7B3u    2.043307     3Au     2.196302  
      12B1u    2.196305     7B3g    2.269581     7B2g    2.269581  
      13B1u    2.581430    13Ag     2.592672     8B3u    3.004035  
       8B2u    3.004035    14Ag     3.745450     8B3g    4.009890  
       8B2g    4.009890     4B1g    4.131828    15Ag     4.131828  
      14B1u    4.214109     9B2u    4.251403     9B3u    4.251403  
      16Ag     4.257279    10B3u    4.403270    10B2u    4.403270  
       5B1g    4.775144    17Ag     4.775146     9B2g    4.783935  
       9B3g    4.783935     4Au     4.862636    15B1u    4.862638  
      16B1u    4.916395    10B3g    5.105126    10B2g    5.105126  
      11B2u    5.289120    11B3u    5.289120     5Au     5.462539  
      17B1u    5.462540    18Ag     6.386073    18B1u    6.426673  
      11B3g    6.568645    11B2g    6.568645    19Ag    10.421563  
      19B1u   18.796859  

    Final Occupation by Irrep:
             Ag   B1g   B2g   B3g    Au   B1u   B2u   B3u 
    DOCC [     3,    0,    0,    0,    0,    2,    1,    1 ]

  @DF-RKS Final Energy:  -109.53666493799585

   => Energetics <=

    Nuclear Repulsion Energy =             23.7629040976287769
    One-Electron Energy =                -194.7380259477008053
    Two-Electron Energy =                  71.0687714128577710
    DFT Exchange-Correlation Energy =      -9.6892497853250212
    Empirical Dispersion Energy =           0.0000000000000000
    VV10 Nonlocal Energy =                  0.0589352845434194
    Total Energy =                       -109.5366649379958375

Computation Completed


Properties will be evaluated at   0.000000,   0.000000,   0.000000 [a0]

Properties computed using the SCF density matrix

  Nuclear Dipole Moment: [e a0]
     X:     0.0000      Y:     0.0000      Z:     0.0000

  Electronic Dipole Moment: [e a0]
     X:     0.0000      Y:     0.0000      Z:     0.0000

  Dipole Moment: [e a0]
     X:     0.0000      Y:     0.0000      Z:     0.0000     Total:     0.0000

  Dipole Moment: [D]
     X:     0.0000      Y:     0.0000      Z:     0.0000     Total:     0.0000


*** tstop() called on bp1-compute00190.data.bp.acrc.priv at Tue Apr 27 17:25:22 2021
Module time:
	user time   =      37.24 seconds =       0.62 minutes
	system time =       1.12 seconds =       0.02 minutes
	total time  =          2 seconds =       0.03 minutes
Total time:
	user time   =     262.63 seconds =       4.38 minutes
	system time =       9.47 seconds =       0.16 minutes
	total time  =         12 seconds =       0.20 minutes

         ----------------------------------------------------------
                                   FINDIF
                     R. A. King and Jonathon Misiewicz
         ---------------------------------------------------------

  Computing gradient from energies.
    Using 3-point formula.
    Energy without displacement: -109.5366626391
    Check energies below for precision!
    Forces are for mass-weighted, symmetry-adapted cartesians (in au).

     Coord      Energy(-1)        Energy(+1)            Force
        0   -109.5366545172   -109.5366649380     -0.0010420808


-------------------------------------------------------------
  ## New Matrix (Symmetry 0) ##
  Irrep: 1 Size: 2 x 3

                 1                   2                   3

    1     0.00000000000000     0.00000000000000    -0.00275738920154
    2     0.00000000000000     0.00000000000000     0.00275738920154




			-----------------------------------------
			 OPTKING 2.0: for geometry optimizations 
			  - R.A. King,  Bethel University        
			-----------------------------------------
	At level 1: Red. Int., RFO, no backsteps, dynamic trust

	Previous internal coordinate definitions found.
	---Fragment 1 Geometry and Gradient---
	 N           0.0000000000        0.0000000000       -1.0319635710
	 N           0.0000000000        0.0000000000        1.0319635710
	             0.0000000000        0.0000000000       -0.0027573892
	             0.0000000000        0.0000000000        0.0027573892

	---Fragment 1 Intrafragment Coordinates---
	 - Coordinate -           - BOHR/RAD -       - ANG/DEG -
	 R(1,2)           =         2.063927	       1.092183

	Current energy   :      -109.5366626391

	Energy change for the previous step:
		Projected    :        -0.0002974503
		Actual       :        -0.0002305337
	Energy ratio indicates good step: Trust radius increased to 1.000e+00.


	Performing BFGS update.
	Previous computed or guess Hessian on step 1.
	Steps to be used in Hessian update: 1
	Taking RFO optimization step.
	Going to follow RFO solution 1.
	Using RFO vector 1.
	Norm of target step-size    0.00174
	Projected energy change by RFO approximation:        -0.0000032839

	Back-transformation to cartesian coordinates...
	Successfully converged to displaced geometry.

	--- Internal Coordinate Step in ANG or DEG, aJ/ANG or AJ/DEG ---
	 ---------------------------------------------------------------------------
	   Coordinate                Previous        Force       Change         New 
	   ----------                --------       ------       ------       ------
	    1 R(1,2)          =      1.092183    -0.022717    -0.000921     1.091263
	 ---------------------------------------------------------------------------
	Successfully symmetrized geometry.

  ==> Convergence Check <==

  Measures of convergence in internal coordinates in au.
  Criteria marked as inactive (o), active & met (*), and active & unmet ( ).
  ---------------------------------------------------------------------------------------------
   Step     Total Energy     Delta E     MAX Force     RMS Force      MAX Disp      RMS Disp   
  ---------------------------------------------------------------------------------------------
    Convergence Criteria    1.00e-06 *    3.00e-04 *             o    1.20e-03 *             o
  ---------------------------------------------------------------------------------------------
      2    -109.53666264   -2.31e-04      2.76e-03      2.76e-03 o    1.74e-03      1.74e-03 o  ~
  ---------------------------------------------------------------------------------------------

	Writing optimization data to binary file.
	Structure for next step:
	Cartesian Geometry (in Angstrom)
	    N     0.0000000000   0.0000000000  -0.5456312525
	    N     0.0000000000   0.0000000000   0.5456312525
			--------------------------
			 OPTKING Finished Execution 
			--------------------------

    Structure for next step:
    Molecular point group: d2h
    Full point group: D_inf_h

    Geometry (in Angstrom), charge = 0, multiplicity = 1:

    N            0.000000000000     0.000000000000    -0.545631254680
    N            0.000000000000     0.000000000000     0.545631254680

gradient() will perform gradient computation by finite difference of analytic energies.

         ----------------------------------------------------------
                                   FINDIF
                     R. A. King and Jonathon Misiewicz
         ---------------------------------------------------------

  Using finite-differences of energies to determine gradients.
    Generating geometries for use with 3-point formula.
    Displacement size will be 5.00e-03.
    Number of atoms is 2.
    Number of symmetric SALCs is 1.
    Translations projected? 1. Rotations projected? 1.
    Number of geometries (including reference) is 3.

  //>>>>>>>>>>>>>>>>>>>>>>>>>>>>>>>>>>>//
  //    Loading displacement 1 of 3    //
  //<<<<<<<<<<<<<<<<<<<<<<<<<<<<<<<<<<<//

*** tstart() called on bp1-compute00190.data.bp.acrc.priv
*** at Tue Apr 27 17:25:22 2021

   => Loading Basis Set <=

    Name: AUG-CC-PV(T+D)Z
    Role: ORBITAL
    Keyword: BASIS
    atoms 1-2 entry N          line   301 file /work/zw18965/.conda/envs/p4env/share/psi4/basis/aug-cc-pv_tpd_z.gbs 


         ---------------------------------------------------------
                                   SCF
               by Justin Turney, Rob Parrish, Andy Simmonett
                          and Daniel G. A. Smith
                              RKS Reference
                       24 Threads, 137329 MiB Core
         ---------------------------------------------------------

  ==> Geometry <==

    Molecular point group: d2h
    Full point group: D_inf_h

    Geometry (in Angstrom), charge = 0, multiplicity = 1:

       Center              X                  Y                   Z               Mass       
    ------------   -----------------  -----------------  -----------------  -----------------
         N            0.000000000000     0.000000000000    -0.545631254680    14.003074004430
         N            0.000000000000     0.000000000000     0.545631254680    14.003074004430

  Running in d2h symmetry.

  Rotational constants: A = ************  B =      2.02183  C =      2.02183 [cm^-1]
  Rotational constants: A = ************  B =  60612.93874  C =  60612.93874 [MHz]
  Nuclear repulsion =   23.761178543597786

  Charge       = 0
  Multiplicity = 1
  Electrons    = 14
  Nalpha       = 7
  Nbeta        = 7

  ==> Algorithm <==

  SCF Algorithm Type is DF.
  DIIS enabled.
  MOM disabled.
  Fractional occupation disabled.
  Guess Type is READ.
  Energy threshold   = 1.00e-08
  Density threshold  = 1.00e-08
  Integral threshold = 0.00e+00

  ==> Primary Basis <==

  Basis Set: AUG-CC-PV(T+D)Z
    Blend: AUG-CC-PV(T+D)Z
    Number of shells: 28
    Number of basis function: 92
    Number of Cartesian functions: 110
    Spherical Harmonics?: true
    Max angular momentum: 3

  ==> DFT Potential <==

   => Composite Functional: WB97X-V <= 

    wB97X-V Hyb-GGA Exchange-Correlation Functional

    N. Mardirossian and M. Head-Gordon, Phys. Chem. Chem. Phys. 16, 9904 (2014)

    Deriv               =              1
    GGA                 =           TRUE
    Meta                =          FALSE

    Exchange Hybrid     =           TRUE
    MP2 Hybrid          =          FALSE

   => Exchange-Correlation Functionals <=

    1.0000   wB97X-V range-separated functional

   => Exact (HF) Exchange <=

    0.8330            HF,LR [omega = 0.3000]
    0.1670               HF 

   => VV10 Non-Local Parameters <=

    VV10 B              =     6.0000E+00
    VV10 C              =     1.0000E-02

   => Molecular Quadrature <=

    Radial Scheme          =       TREUTLER
    Pruning Scheme         =           FLAT
    Nuclear Scheme         =       TREUTLER

    BS radius alpha        =              1
    Pruning alpha          =              1
    Radial Points          =             75
    Spherical Points       =            302
    Total Points           =          44978
    Total Blocks           =            416
    Max Points             =            256
    Max Functions          =             92

   => Loading Basis Set <=

    Name: (AUG-CC-PV(T+D)Z AUX)
    Role: JKFIT
    Keyword: DF_BASIS_SCF
    atoms 1-2 entry N          line   224 file /work/zw18965/.conda/envs/p4env/share/psi4/basis/aug-cc-pvtz-jkfit.gbs 

   => Loading Basis Set <=

    Name: AUG-CC-PV(T+D)Z
    Role: ORBITAL
    Keyword: BASIS
    atoms 1-2 entry N          line   301 file /work/zw18965/.conda/envs/p4env/share/psi4/basis/aug-cc-pv_tpd_z.gbs 

  Reading orbitals from file 180, no projection.

  ==> Pre-Iterations <==

   -------------------------------------------------------
    Irrep   Nso     Nmo     Nalpha   Nbeta   Ndocc  Nsocc
   -------------------------------------------------------
     Ag        19      19       0       0       0       0
     B1g        5       5       0       0       0       0
     B2g       11      11       0       0       0       0
     B3g       11      11       0       0       0       0
     Au         5       5       0       0       0       0
     B1u       19      19       0       0       0       0
     B2u       11      11       0       0       0       0
     B3u       11      11       0       0       0       0
   -------------------------------------------------------
    Total      92      92       7       7       7       0
   -------------------------------------------------------

  ==> Integral Setup <==

  ==> DiskDFJK: Density-Fitted J/K Matrices <==

    J tasked:                  Yes
    K tasked:                  Yes
    wK tasked:                 Yes
    Omega:               3.000E-01
    OpenMP threads:             24
    Integrals threads:          24
    Memory [MiB]:           102881
    Algorithm:                Core
    Integral Cache:           NONE
    Schwarz Cutoff:          1E-12
    Fitting Condition:       1E-10

   => Auxiliary Basis Set <=

  Basis Set: (AUG-CC-PV(T+D)Z AUX)
    Blend: AUG-CC-PVTZ-JKFIT
    Number of shells: 60
    Number of basis function: 208
    Number of Cartesian functions: 262
    Spherical Harmonics?: true
    Max angular momentum: 4

  Cached 100.0% of DFT collocation blocks in 0.113 [GiB].

  Minimum eigenvalue in the overlap matrix is 6.6991629143E-05.
  Using Symmetric Orthogonalization.

  SCF Guess: Orbitals guess was supplied from a previous computation.

  ==> Iterations <==

                           Total Energy        Delta E     RMS |[F,P]|

   @DF-RKS iter   0:  -109.53633068415967   -1.09536e+02   1.60752e-04 
   @DF-RKS iter   1:  -109.53666483016708   -3.34146e-04   1.64342e-05 DIIS
   @DF-RKS iter   2:  -109.53666495384024   -1.23673e-07   6.62029e-06 DIIS
   @DF-RKS iter   3:  -109.53666496996048   -1.61202e-08   5.83890e-07 DIIS
   @DF-RKS iter   4:  -109.53666497017984   -2.19359e-10   1.71261e-07 DIIS
   @DF-RKS iter   5:  -109.53666497020214   -2.22968e-11   1.75515e-08 DIIS
   @DF-RKS iter   6:  -109.53666497020255   -4.12115e-13   1.70365e-09 DIIS
  Energy and wave function converged.


  ==> Post-Iterations <==

    Orbital Energies [Eh]
    ---------------------

    Doubly Occupied:                                                      

       1Ag   -14.514817     1B1u  -14.512972     2Ag    -1.261495  
       2B1u   -0.673840     1B2u   -0.581422     1B3u   -0.581422  
[...]
       6B2g    1.639805     6B3g    1.639805    11B1u    1.870982  
       7B2u    2.042566     7B3u    2.042566     3Au     2.195395  
      12B1u    2.195398     7B3g    2.269701     7B2g    2.269701  
      13B1u    2.579017    13Ag     2.593069     8B3u    3.004248  
       8B2u    3.004248    14Ag     3.743670     8B3g    4.007915  
       8B2g    4.007915     4B1g    4.132310    15Ag     4.132311  
      14B1u    4.215397     9B3u    4.250616     9B2u    4.250616  
      16Ag     4.256696    10B3u    4.403819    10B2u    4.403819  
       5B1g    4.774562    17Ag     4.774563     9B2g    4.783231  
       9B3g    4.783231     4Au     4.862425    15B1u    4.862427  
      16B1u    4.913974    10B3g    5.106056    10B2g    5.106056  
      11B3u    5.287674    11B2u    5.287674     5Au     5.460322  
      17B1u    5.460324    18Ag     6.380758    18B1u    6.423768  
      11B3g    6.563848    11B2g    6.563848    19Ag    10.418592  
      19B1u   18.747054  

    Final Occupation by Irrep:
             Ag   B1g   B2g   B3g    Au   B1u   B2u   B3u 
    DOCC [     3,    0,    0,    0,    0,    2,    1,    1 ]

  @DF-RKS Final Energy:  -109.53666220520412

   => Energetics <=

    Nuclear Repulsion Energy =             23.7394257310829531
    One-Electron Energy =                -194.6926708226794176
    Two-Electron Energy =                  71.0457915909698983
    DFT Exchange-Correlation Energy =      -9.6881435329101073
    Empirical Dispersion Energy =           0.0000000000000000
    VV10 Nonlocal Energy =                  0.0589348283325495
    Total Energy =                       -109.5366622052041237

Computation Completed


Properties will be evaluated at   0.000000,   0.000000,   0.000000 [a0]

Properties computed using the SCF density matrix

  Nuclear Dipole Moment: [e a0]
     X:     0.0000      Y:     0.0000      Z:    -0.0000

  Electronic Dipole Moment: [e a0]
     X:     0.0000      Y:     0.0000      Z:     0.0000

  Dipole Moment: [e a0]
     X:     0.0000      Y:     0.0000      Z:    -0.0000     Total:     0.0000

  Dipole Moment: [D]
     X:     0.0000      Y:     0.0000      Z:    -0.0000     Total:     0.0000


*** tstop() called on bp1-compute00190.data.bp.acrc.priv at Tue Apr 27 17:25:37 2021
Module time:
	user time   =      50.47 seconds =       0.84 minutes
	system time =       1.59 seconds =       0.03 minutes
	total time  =          2 seconds =       0.03 minutes
Total time:
	user time   =     614.60 seconds =      10.24 minutes
	system time =      19.47 seconds =       0.32 minutes
	total time  =         27 seconds =       0.45 minutes

  //>>>>>>>>>>>>>>>>>>>>>>>>>>>>>>>>>>>//
  //    Loading displacement 3 of 3    //
  //<<<<<<<<<<<<<<<<<<<<<<<<<<<<<<<<<<<//

*** tstart() called on bp1-compute00190.data.bp.acrc.priv
*** at Tue Apr 27 17:25:37 2021

   => Loading Basis Set <=

    Name: AUG-CC-PV(T+D)Z
    Role: ORBITAL
    Keyword: BASIS
    atoms 1-2 entry N          line   301 file /work/zw18965/.conda/envs/p4env/share/psi4/basis/aug-cc-pv_tpd_z.gbs 


         ---------------------------------------------------------
                                   SCF
               by Justin Turney, Rob Parrish, Andy Simmonett
                          and Daniel G. A. Smith
                              RKS Reference
                       24 Threads, 137329 MiB Core
         ---------------------------------------------------------

  ==> Geometry <==

    Molecular point group: d2h
    Full point group: D_inf_h

    Geometry (in Angstrom), charge = 0, multiplicity = 1:

       Center              X                  Y                   Z               Mass       
    ------------   -----------------  -----------------  -----------------  -----------------
         N            0.000000000000     0.000000000000    -0.545131284103    14.003074004430
         N            0.000000000000     0.000000000000     0.545131284103    14.003074004430

  Running in d2h symmetry.

  Rotational constants: A = ************  B =      2.02554  C =      2.02554 [cm^-1]
  Rotational constants: A = ************  B =  60724.17280  C =  60724.17280 [MHz]
  Nuclear repulsion =   23.782971257569553

  Charge       = 0
  Multiplicity = 1
  Electrons    = 14
  Nalpha       = 7
  Nbeta        = 7

  ==> Algorithm <==

  SCF Algorithm Type is DF.
  DIIS enabled.
  MOM disabled.
  Fractional occupation disabled.
  Guess Type is SAD.
  Energy threshold   = 1.00e-10
  Density threshold  = 1.00e-10
  Integral threshold = 0.00e+00

  ==> Primary Basis <==

  Basis Set: AUG-CC-PV(T+D)Z
    Blend: AUG-CC-PV(T+D)Z
    Number of shells: 28
    Number of basis function: 92
    Number of Cartesian functions: 110
    Spherical Harmonics?: true
    Max angular momentum: 3

  ==> DFT Potential <==

   => Composite Functional: WB97X-V <= 

    wB97X-V Hyb-GGA Exchange-Correlation Functional

    N. Mardirossian and M. Head-Gordon, Phys. Chem. Chem. Phys. 16, 9904 (2014)

    Deriv               =              1
    GGA                 =           TRUE
    Meta                =          FALSE

    Exchange Hybrid     =           TRUE
    MP2 Hybrid          =          FALSE

   => Exchange-Correlation Functionals <=

    1.0000   wB97X-V range-separated functional

   => Exact (HF) Exchange <=

    0.8330            HF,LR [omega = 0.3000]
    0.1670               HF 

   => VV10 Non-Local Parameters <=

    VV10 B              =     6.0000E+00
    VV10 C              =     1.0000E-02

   => Molecular Quadrature <=

    Radial Scheme          =       TREUTLER
    Pruning Scheme         =           FLAT
    Nuclear Scheme         =       TREUTLER

    BS radius alpha        =              1
    Pruning alpha          =              1
    Radial Points          =             75
    Spherical Points       =            302
    Total Points           =          44978
    Total Blocks           =            416
    Max Points             =            256
    Max Functions          =             92

   => Loading Basis Set <=

    Name: (AUG-CC-PV(T+D)Z AUX)
    Role: JKFIT
    Keyword: DF_BASIS_SCF
    atoms 1-2 entry N          line   224 file /work/zw18965/.conda/envs/p4env/share/psi4/basis/aug-cc-pvtz-jkfit.gbs 

  ==> Pre-Iterations <==

   -------------------------------------------------------
    Irrep   Nso     Nmo     Nalpha   Nbeta   Ndocc  Nsocc
   -------------------------------------------------------
     Ag        19      19       0       0       0       0
     B1g        5       5       0       0       0       0
     B2g       11      11       0       0       0       0
     B3g       11      11       0       0       0       0
     Au         5       5       0       0       0       0
     B1u       19      19       0       0       0       0
     B2u       11      11       0       0       0       0
     B3u       11      11       0       0       0       0
   -------------------------------------------------------
    Total      92      92       7       7       7       0
   -------------------------------------------------------

  ==> Integral Setup <==

  ==> DiskDFJK: Density-Fitted J/K Matrices <==

    J tasked:                  Yes
    K tasked:                  Yes
    wK tasked:                 Yes
    Omega:               3.000E-01
    OpenMP threads:             24
    Integrals threads:          24
    Memory [MiB]:           102881
    Algorithm:                Core
    Integral Cache:           NONE
    Schwarz Cutoff:          1E-12
    Fitting Condition:       1E-10

   => Auxiliary Basis Set <=

  Basis Set: (AUG-CC-PV(T+D)Z AUX)
    Blend: AUG-CC-PVTZ-JKFIT
    Number of shells: 60
    Number of basis function: 208
    Number of Cartesian functions: 262
    Spherical Harmonics?: true
    Max angular momentum: 4

  Cached 100.0% of DFT collocation blocks in 0.113 [GiB].

  Minimum eigenvalue in the overlap matrix is 6.6741484043E-05.
  Using Symmetric Orthogonalization.

  SCF Guess: Superposition of Atomic Densities via on-the-fly atomic UHF.

  ==> Iterations <==

                           Total Energy        Delta E     RMS |[F,P]|

   @DF-RKS iter SAD:  -108.78807147935660   -1.08788e+02   0.00000e+00 
   @DF-RKS iter   1:  -109.51681092502039   -7.28739e-01   6.65284e-03 DIIS
   @DF-RKS iter   2:  -109.53380517113983   -1.69942e-02   2.57551e-03 DIIS
   @DF-RKS iter   3:  -109.53662420575843   -2.81903e-03   2.42728e-04 DIIS
   @DF-RKS iter   4:  -109.53666031344534   -3.61077e-05   3.52713e-05 DIIS
   @DF-RKS iter   5:  -109.53666178501632   -1.47157e-06   7.60488e-06 DIIS
   @DF-RKS iter   6:  -109.53666187589052   -9.08742e-08   6.76420e-07 DIIS
   @DF-RKS iter   7:  -109.53666187673254   -8.42022e-10   5.28215e-08 DIIS
   @DF-RKS iter   8:  -109.53666187673682   -4.27747e-12   5.95310e-09 DIIS
   @DF-RKS iter   9:  -109.53666187673684   -2.84217e-14   4.63242e-10 DIIS
   @DF-RKS iter  10:  -109.53666187673687   -2.84217e-14   3.93642e-11 DIIS
  Energy and wave function converged.


  ==> Post-Iterations <==

    Orbital Energies [Eh]
    ---------------------

    Doubly Occupied:                                                      

       1Ag   -14.514515     1B1u  -14.512654     2Ag    -1.262068  
       2B1u   -0.673561     1B2u   -0.581766     1B3u   -0.581766  
       3Ag    -0.547638  

    Virtual:                                                              

       1B2g    0.069101     1B3g    0.069101     3B1u    0.085262  
       4Ag     0.113470     2B3u    0.121407     2B2u    0.121407  
       5Ag     0.157326     2B3g    0.176648     2B2g    0.176648  
       4B1u    0.273300     6Ag     0.383640     1B1g    0.383640  
       7Ag     0.450637     5B1u    0.503727     3B3g    0.539976  
       3B2g    0.539976     3B3u    0.541529     3B2u    0.541529  
       1Au     0.559863     6B1u    0.559864     4B2u    0.656862  
       4B3u    0.656862     7B1u    0.700182     8Ag     0.700881  
       8B1u    0.942473     4B3g    0.979762     4B2g    0.979762  
       9Ag     1.133453    10Ag     1.228529     2B1g    1.228529  
       5B3u    1.288405     5B2u    1.288405     6B2u    1.354992  
       6B3u    1.354992     2Au     1.465704     9B1u    1.465705  
      10B1u    1.505917    11Ag     1.591287    12Ag     1.609254  
       3B1g    1.609255     5B3g    1.627864     5B2g    1.627864  
       6B3g    1.640271     6B2g    1.640271    11B1u    1.870905  
       7B2u    2.043939     7B3u    2.043939     3Au     2.197077  
      12B1u    2.197079     7B3g    2.269480     7B2g    2.269480  
      13B1u    2.583491    13Ag     2.592332     8B2u    3.003851  
       8B3u    3.003851    14Ag     3.746963     8B2g    4.011575  
       8B3g    4.011575     4B1g    4.131418    15Ag     4.131419  
      14B1u    4.213019     9B2u    4.252078     9B3u    4.252078  
      16Ag     4.257778    10B3u    4.402801    10B2u    4.402801  
       5B1g    4.775643    17Ag     4.775644     9B2g    4.784537  
       9B3g    4.784537     4Au     4.862816    15B1u    4.862818  
      16B1u    4.918463    10B3g    5.104330    10B2g    5.104330  
      11B2u    5.290355    11B3u    5.290355     5Au     5.464433  
      17B1u    5.464434    18Ag     6.390627    18B1u    6.429157  
      11B2g    6.572746    11B3g    6.572746    19Ag    10.424086  
      19B1u   18.839408  

    Final Occupation by Irrep:
             Ag   B1g   B2g   B3g    Au   B1u   B2u   B3u 
    DOCC [     3,    0,    0,    0,    0,    2,    1,    1 ]

  @DF-RKS Final Energy:  -109.53666187673687

   => Energetics <=

    Nuclear Repulsion Energy =             23.7829712575695531
    One-Electron Energy =                -194.7767815060915666
    Two-Electron Energy =                  71.0884084449765083
    DFT Exchange-Correlation Energy =      -9.6901957492583755
    Empirical Dispersion Energy =           0.0000000000000000
    VV10 Nonlocal Energy =                  0.0589356760670041
    Total Energy =                       -109.5366618767368720

Computation Completed


Properties will be evaluated at   0.000000,   0.000000,   0.000000 [a0]

Properties computed using the SCF density matrix

  Nuclear Dipole Moment: [e a0]
     X:     0.0000      Y:     0.0000      Z:     0.0000

  Electronic Dipole Moment: [e a0]
     X:     0.0000      Y:     0.0000      Z:     0.0000

  Dipole Moment: [e a0]
     X:     0.0000      Y:     0.0000      Z:     0.0000     Total:     0.0000

  Dipole Moment: [D]
     X:     0.0000      Y:     0.0000      Z:     0.0000     Total:     0.0000


*** tstop() called on bp1-compute00190.data.bp.acrc.priv at Tue Apr 27 17:25:39 2021
Module time:
	user time   =      50.63 seconds =       0.84 minutes
	system time =       1.46 seconds =       0.02 minutes
	total time  =          2 seconds =       0.03 minutes
Total time:
	user time   =     665.37 seconds =      11.09 minutes
	system time =      20.93 seconds =       0.35 minutes
	total time  =         29 seconds =       0.48 minutes

         ----------------------------------------------------------
                                   FINDIF
                     R. A. King and Jonathon Misiewicz
         ---------------------------------------------------------

  Computing second-derivative from energies using projected, 
  symmetry-adapted, cartesian coordinates.

  3 energies passed in, including the reference geometry.
    Using 3-point formula.
    Energy without displacement: -109.5366649702
    Check energies below for precision!
    0: -1 :      -109.5366622052
    0: 1  :      -109.5366618767

-------------------------------------------------------------


  ==> Harmonic Vibrational Analysis <==

  non-mass-weighted Hessian:       Symmetric? True   Hermitian? True   Lin Dep Dim?  5 (0)
  projection of translations (True) and rotations (True) removed 5 degrees of freedom (5)
  total projector:                 Symmetric? True   Hermitian? True   Lin Dep Dim?  5 (5)
  mass-weighted Hessian:           Symmetric? True   Hermitian? True   Lin Dep Dim?  5 (0)
  pre-proj  low-frequency mode:    0.0000  [cm^-1]
  pre-proj  low-frequency mode:    0.0000  [cm^-1]
  pre-proj  low-frequency mode:    0.0000  [cm^-1]
  pre-proj  low-frequency mode:    0.0000  [cm^-1]
  pre-proj  low-frequency mode:    0.0000  [cm^-1]
  pre-proj  all modes:['0.0000' '0.0000' '0.0000' '0.0000' '0.0000' '2488.4342']
  projected mass-weighted Hessian: Symmetric? True   Hermitian? True   Lin Dep Dim?  5 (5)
  post-proj low-frequency mode:    0.0000  [cm^-1] (TR)
  post-proj low-frequency mode:    0.0000  [cm^-1] (TR)
  post-proj low-frequency mode:    0.0000  [cm^-1] (TR)
  post-proj low-frequency mode:    0.0000  [cm^-1] (TR)
  post-proj low-frequency mode:    0.0000  [cm^-1] (TR)
  post-proj  all modes:['0.0000' '0.0000' '0.0000' '0.0000' '0.0000' '2488.4342']

  Vibration                       6           
  Freq [cm^-1]                2488.4342       
  Irrep                           Ag          
  Reduced mass [u]             14.0031        
  Force const [mDyne/A]        51.0888        
  Turning point v=0 [a0]        0.0588        
  RMS dev v=0 [a0 u^1/2]        0.1555        
  Char temp [K]               3580.3027       
  ----------------------------------------------------------------------------------
      1   N                0.00  0.00  0.71   
      2   N                0.00  0.00 -0.71   

  ==> Thermochemistry Components <==

  Entropy, S
    Electronic S            0.000 [cal/(mol K)]        0.000 [J/(mol K)]       0.00000000 [mEh/K] (multiplicity = 1)
    Translational S        35.924 [cal/(mol K)]      150.307 [J/(mol K)]       0.05724883 [mEh/K] (mol. weight = 28.0061 [u], P = 101325.00 [Pa])
    Rotational S            9.810 [cal/(mol K)]       41.046 [J/(mol K)]       0.01563344 [mEh/K] (symmetry no. = 2)
    Vibrational S           0.000 [cal/(mol K)]        0.001 [J/(mol K)]       0.00000025 [mEh/K]
  Total S                  45.734 [cal/(mol K)]      191.353 [J/(mol K)]       0.07288252 [mEh/K]
  Correction S              0.000 [cal/(mol K)]        0.000 [J/(mol K)]       0.00000000 [mEh/K]

  Constant volume heat capacity, Cv
    Electronic Cv           0.000 [cal/(mol K)]        0.000 [J/(mol K)]       0.00000000 [mEh/K]
    Translational Cv        2.981 [cal/(mol K)]       12.472 [J/(mol K)]       0.00475022 [mEh/K]
    Rotational Cv           1.987 [cal/(mol K)]        8.314 [J/(mol K)]       0.00316681 [mEh/K]
    Vibrational Cv          0.002 [cal/(mol K)]        0.007 [J/(mol K)]       0.00000278 [mEh/K]
  Total Cv                  4.970 [cal/(mol K)]       20.793 [J/(mol K)]       0.00791981 [mEh/K]
  Correction Cv             0.000 [cal/(mol K)]        0.000 [J/(mol K)]       0.00000000 [mEh/K]

  Constant pressure heat capacity, Cp
    Electronic Cp           0.000 [cal/(mol K)]        0.000 [J/(mol K)]       0.00000000 [mEh/K]
    Translational Cp        4.968 [cal/(mol K)]       20.786 [J/(mol K)]       0.00791703 [mEh/K]
    Rotational Cp           1.987 [cal/(mol K)]        8.314 [J/(mol K)]       0.00316681 [mEh/K]
    Vibrational Cp          0.002 [cal/(mol K)]        0.007 [J/(mol K)]       0.00000278 [mEh/K]
  Total Cp                  6.957 [cal/(mol K)]       29.108 [J/(mol K)]       0.01108662 [mEh/K]
  Correction Cp             0.000 [cal/(mol K)]        0.000 [J/(mol K)]       0.00000000 [mEh/K]

  ==> Thermochemistry Energy Analysis <==

  Raw electronic energy, E0
  Total E0, Electronic energy at well bottom at 0 [K]                 -109.53666497 [Eh]

  Zero-point energy, ZPE_vib = Sum_i nu_i / 2
    Electronic ZPE          0.000 [kcal/mol]        0.000 [kJ/mol]       0.00000000 [Eh]
    Translational ZPE       0.000 [kcal/mol]        0.000 [kJ/mol]       0.00000000 [Eh]
    Rotational ZPE          0.000 [kcal/mol]        0.000 [kJ/mol]       0.00000000 [Eh]
    Vibrational ZPE         3.557 [kcal/mol]       14.884 [kJ/mol]       0.00566907 [Eh]        1244.217 [cm^-1]
  Correction ZPE            3.557 [kcal/mol]       14.884 [kJ/mol]       0.00566907 [Eh]        1244.217 [cm^-1]
  Total ZPE, Electronic energy at 0 [K]                               -109.53099590 [Eh]

  Thermal Energy, E (includes ZPE)
    Electronic E            0.000 [kcal/mol]        0.000 [kJ/mol]       0.00000000 [Eh]
    Translational E         0.889 [kcal/mol]        3.718 [kJ/mol]       0.00141628 [Eh]
    Rotational E            0.592 [kcal/mol]        2.479 [kJ/mol]       0.00094418 [Eh]
    Vibrational E           3.557 [kcal/mol]       14.884 [kJ/mol]       0.00566914 [Eh]
  Correction E              5.039 [kcal/mol]       21.082 [kJ/mol]       0.00802960 [Eh]
  Total E, Electronic energy at  298.15 [K]                           -109.52863537 [Eh]

  Enthalpy, H_trans = E_trans + k_B * T
    Electronic H            0.000 [kcal/mol]        0.000 [kJ/mol]       0.00000000 [Eh]
    Translational H         1.481 [kcal/mol]        6.197 [kJ/mol]       0.00236046 [Eh]
    Rotational H            0.592 [kcal/mol]        2.479 [kJ/mol]       0.00094418 [Eh]
    Vibrational H           3.557 [kcal/mol]       14.884 [kJ/mol]       0.00566914 [Eh]
  Correction H              5.631 [kcal/mol]       23.561 [kJ/mol]       0.00897379 [Eh]
  Total H, Enthalpy at  298.15 [K]                                    -109.52769119 [Eh]

  Gibbs free energy, G = H - T * S
    Electronic G            0.000 [kcal/mol]        0.000 [kJ/mol]       0.00000000 [Eh]
    Translational G        -9.230 [kcal/mol]      -38.617 [kJ/mol]      -0.01470828 [Eh]
    Rotational G           -2.332 [kcal/mol]       -9.759 [kJ/mol]      -0.00371693 [Eh]
    Vibrational G           3.557 [kcal/mol]       14.884 [kJ/mol]       0.00566906 [Eh]
  Correction G             -8.005 [kcal/mol]      -33.491 [kJ/mol]      -0.01275614 [Eh]
  Total G, Free enthalpy at  298.15 [K]                               -109.54942111 [Eh]

    Psi4 stopped on: Tuesday, 27 April 2021 05:25PM
    Psi4 wall time for execution: 0:00:29.21

*** Psi4 exiting successfully. Buy a developer a beer!
