
                                 *****************
                                 * O   R   C   A *
                                 *****************

           --- An Ab Initio, DFT and Semiempirical electronic structure package ---

                  #######################################################
                  #                        -***-                        #
                  #          Department of theory and spectroscopy      #
                  #               Directorship: Frank Neese             #
                  #        Max Planck Institute fuer Kohlenforschung    #
                  #                Kaiser Wilhelm Platz 1               #
                  #                 D-45470 Muelheim/Ruhr               #
                  #                      Germany                        #
                  #                                                     #
                  #                  All rights reserved                #
                  #                        -***-                        #
                  #######################################################


                         Program Version 4.2.0 -  RELEASE  -


 With contributions from (in alphabetic order):
   Daniel Aravena         : Magnetic Suceptibility
   Michael Atanasov       : Ab Initio Ligand Field Theory (pilot matlab implementation)
   Alexander A. Auer      : GIAO ZORA, VPT2
   Ute Becker             : Parallelization
   Giovanni Bistoni       : ED, misc. LED, open-shell LED, HFLED
   Martin Brehm           : Molecular dynamics
   Dmytro Bykov           : SCF Hessian
   Vijay G. Chilkuri      : MRCI spin determinant printing, contributions to CSF-ICE
   Dipayan Datta          : RHF DLPNO-CCSD density
   Achintya Kumar Dutta   : EOM-CC, STEOM-CC
   Dmitry Ganyushin       : Spin-Orbit,Spin-Spin,Magnetic field MRCI
   Miquel Garcia          : C-PCM Hessian, Gaussian charge scheme
   Yang Guo               : DLPNO-NEVPT2, CIM, IAO-localization
   Andreas Hansen         : Spin unrestricted coupled pair/coupled cluster methods
   Benjamin Helmich-Paris : CASSCF linear response (MC-RPA)
   Lee Huntington         : MR-EOM, pCC
   Robert Izsak           : Overlap fitted RIJCOSX, COSX-SCS-MP3, EOM
   Christian Kollmar      : KDIIS, OOCD, Brueckner-CCSD(T), CCSD density
   Simone Kossmann        : Meta GGA functionals, TD-DFT gradient, OOMP2, MP2 Hessian
   Martin Krupicka        : AUTO-CI
   Lucas Lang             : DCDCAS
   Dagmar Lenk            : GEPOL surface, SMD
   Dimitrios Liakos       : Extrapolation schemes; Compound Job, initial MDCI parallelization
   Dimitrios Manganas     : Further ROCIS development; embedding schemes
   Dimitrios Pantazis     : SARC Basis sets
   Taras Petrenko         : DFT Hessian,TD-DFT gradient, ASA, ECA, R-Raman, ABS, FL, XAS/XES, NRVS
   Peter Pinski           : DLPNO-MP2, DLPNO-MP2 Gradient
   Christoph Reimann      : Effective Core Potentials
   Marius Retegan         : Local ZFS, SOC
   Christoph Riplinger    : Optimizer, TS searches, QM/MM, DLPNO-CCSD(T), (RO)-DLPNO pert. Triples
   Tobias Risthaus        : Range-separated hybrids, TD-DFT gradient, RPA, STAB
   Michael Roemelt        : Original ROCIS implementation
   Masaaki Saitow         : Open-shell DLPNO-CCSD energy and density
   Barbara Sandhoefer     : DKH picture change effects
   Avijit Sen             : IP-ROCIS
   Kantharuban Sivalingam : CASSCF convergence, NEVPT2, FIC-MRCI
   Bernardo de Souza      : ESD, SOC TD-DFT
   Georgi Stoychev        : AutoAux, RI-MP2 NMR
   Willem Van den Heuvel  : Paramagnetic NMR
   Boris Wezisla          : Elementary symmetry handling
   Frank Wennmohs         : Technical directorship


 We gratefully acknowledge several colleagues who have allowed us to
 interface, adapt or use parts of their codes:
   Stefan Grimme, W. Hujo, H. Kruse,             : VdW corrections, initial TS optimization,
                  C. Bannwarth                     DFT functionals, gCP, sTDA/sTD-DF
   Ed Valeev, F. Pavosevic, A. Kumar             : LibInt (2-el integral package), F12 methods
   Garnet Chan, S. Sharma, J. Yang, R. Olivares  : DMRG
   Ulf Ekstrom                                   : XCFun DFT Library
   Mihaly Kallay                                 : mrcc  (arbitrary order and MRCC methods)
   Andreas Klamt, Michael Diedenhofen            : otool_cosmo (COSMO solvation model)
   Jiri Pittner, Ondrej Demel                    : Mk-CCSD
   Frank Weinhold                                : gennbo (NPA and NBO analysis)
   Christopher J. Cramer and Donald G. Truhlar   : smd solvation model
   Lars Goerigk                                  : TD-DFT with DH, B97 family of functionals
   V. Asgeirsson, H. Jonsson                     : NEB implementation
   FAccTs GmbH                                   : IRC, NEB, NEB-TS, Multilevel, MM, QM/MM, CI optimization
   S Lehtola, MJT Oliveira, MAL Marques          : LibXC Library


 Your calculation uses the libint2 library for the computation of 2-el integrals
 For citations please refer to: http://libint.valeyev.net

 Your ORCA version has been built with support for libXC version: 4.2.3
 For citations please refer to: https://tddft.org/programs/libxc/

 This ORCA versions uses:
   CBLAS   interface :  Fast vector & matrix operations
   LAPACKE interface :  Fast linear algebra routines
   SCALAPACK package :  Parallel linear algebra routines


Your calculation utilizes the atom-pairwise dispersion correction
with the Becke-Johnson damping scheme (D3BJ)
Cite in your paper:
S.Grimme, S.Ehrlich, L.Goerigk, J Comput Chem, (2011), 32, 1456–1465 
S.Grimme, J.Antony, S.Ehrlich and H.Krieg, J.Chem.Phys., 132, (2010), 154104 
   

----- Orbital basis set information -----
Your calculation utilizes the basis: aug-cc-pV(T+d)Z 
             Al - Ar: T.H. Dunning, Jr., K. A. Peterson and A. K. Wilson, J. Chem. Phys.
                      114, 9244 (2001)

----- AuxJ basis set information -----
Your calculation utilizes the auxiliary basis: def2/J
   F. Weigend, Phys. Chem. Chem. Phys. 8, 1057 (2006).

================================================================================
                                        WARNINGS
                       Please study these warnings very carefully!
================================================================================


WARNING: Geometry Optimization
  ===> : Switching off AutoStart
         For restart on a previous wavefunction, please use MOREAD

INFO   : the flag for use of LIBINT has been found!

================================================================================
                                       INPUT FILE
================================================================================
NAME = 15_H2CO.in
|  1> #
|  2> # 15_H2CO tpss/aug-cc-pvt(+d)z
|  3> #
|  4> ! tpss d3bj aug-cc-pvt(+d)z def2/j opt xyzfile numfreq
|  5> 
|  6> *xyz 0 1
|  7> C           -0.008748659          0.001155597          0.000561564
|  8> O            1.179984630         -0.157249909         -0.074738871
|  9> H           -0.478730294          0.986582604         -0.186527529
| 10> H           -0.692514064         -0.830555519          0.260712785
| 11> *
| 12> 
| 13> %pal
| 14> nprocs 24
| 15> end
| 16> 
| 17> 
| 18>                          ****END OF INPUT****
================================================================================

                       *****************************
                       * Geometry Optimization Run *
                       *****************************

Geometry optimization settings:
Update method            Update   .... BFGS
Choice of coordinates    CoordSys .... Z-matrix Internals
Initial Hessian          InHess   .... Almoef's Model

Convergence Tolerances:
Energy Change            TolE     ....  5.0000e-06 Eh
Max. Gradient            TolMAXG  ....  3.0000e-04 Eh/bohr
RMS Gradient             TolRMSG  ....  1.0000e-04 Eh/bohr
Max. Displacement        TolMAXD  ....  4.0000e-03 bohr
RMS Displacement         TolRMSD  ....  2.0000e-03 bohr
Strict Convergence                ....  False
------------------------------------------------------------------------------
                        ORCA OPTIMIZATION COORDINATE SETUP
------------------------------------------------------------------------------

The optimization will be done in new redundant internal coordinates
Making redundant internal coordinates   ...  (new redundants) done
Evaluating the initial hessian          ...  (Almloef) done
Evaluating the coordinates              ...  done
Calculating the B-matrix                .... done
Calculating the G-matrix                .... done
Diagonalizing the G-matrix              .... done
The first mode is                       ....    1
The number of degrees of freedom        ....    6

    -----------------------------------------------------------------
                    Redundant Internal Coordinates


    -----------------------------------------------------------------
         Definition                    Initial Value    Approx d2E/dq
    -----------------------------------------------------------------
      1. B(O   1,C   0)                  1.2016         1.118024   
      2. B(H   2,C   0)                  1.1077         0.337457   
      3. B(H   3,C   0)                  1.1077         0.337454   
      4. A(O   1,C   0,H   3)          121.7637         0.383738   
      5. A(H   2,C   0,H   3)          116.4708         0.284992   
      6. A(O   1,C   0,H   2)          121.7655         0.383739   
      7. I(O   1,H   3,H   2,C   0)      0.0014         0.113866   
    -----------------------------------------------------------------

Number of atoms                         .... 4
Number of degrees of freedom            .... 7

         *************************************************************
         *                GEOMETRY OPTIMIZATION CYCLE   1            *
         *************************************************************
---------------------------------
CARTESIAN COORDINATES (ANGSTROEM)
---------------------------------
  C     -0.008749    0.001156    0.000562
  O      1.179985   -0.157250   -0.074739
  H     -0.478730    0.986583   -0.186528
  H     -0.692514   -0.830556    0.260713

----------------------------
CARTESIAN COORDINATES (A.U.)
----------------------------
  NO LB      ZA    FRAG     MASS         X           Y           Z
   0 C     6.0000    0    12.011   -0.016533    0.002184    0.001061
   1 O     8.0000    0    15.999    2.229848   -0.297159   -0.141236
   2 H     1.0000    0     1.008   -0.904669    1.864371   -0.352486
   3 H     1.0000    0     1.008   -1.308662   -1.569522    0.492676

--------------------------------
INTERNAL COORDINATES (ANGSTROEM)
--------------------------------
 C      0   0   0     0.000000000000     0.00000000     0.00000000
 O      1   0   0     1.201602801353     0.00000000     0.00000000
 H      1   2   0     1.107678406435   121.76553217     0.00000000
 H      1   2   3     1.107680986268   121.76365672   179.99831561

---------------------------
INTERNAL COORDINATES (A.U.)
---------------------------
 C      0   0   0     0.000000000000     0.00000000     0.00000000
 O      1   0   0     2.270700216310     0.00000000     0.00000000
 H      1   2   0     2.093208832620   121.76553217     0.00000000
 H      1   2   3     2.093213707799   121.76365672   179.99831561

---------------------
BASIS SET INFORMATION
---------------------
There are 3 groups of distinct atoms

 Group   1 Type C   : 19s6p3d2f contracted to 5s4p3d2f pattern {88111/3111/111/11}
 Group   2 Type O   : 19s6p3d2f contracted to 5s4p3d2f pattern {88111/3111/111/11}
 Group   3 Type H   : 6s3p2d contracted to 4s3p2d pattern {3111/111/11}

Atom   0C    basis set group =>   1
Atom   1O    basis set group =>   2
Atom   2H    basis set group =>   3
Atom   3H    basis set group =>   3
---------------------------------
AUXILIARY/J BASIS SET INFORMATION
---------------------------------
There are 3 groups of distinct atoms

 Group   1 Type C   : 12s5p4d2f1g contracted to 6s4p3d1f1g pattern {711111/2111/211/2/1}
 Group   2 Type O   : 12s5p4d2f1g contracted to 6s4p3d1f1g pattern {711111/2111/211/2/1}
 Group   3 Type H   : 5s2p1d contracted to 3s1p1d pattern {311/2/1}

Atom   0C    basis set group =>   1
Atom   1O    basis set group =>   2
Atom   2H    basis set group =>   3
Atom   3H    basis set group =>   3


           ************************************************************
           *        Program running with 24 parallel MPI-processes    *
           *              working on a common directory               *
           ************************************************************
------------------------------------------------------------------------------
                           ORCA GTO INTEGRAL CALCULATION
                           -- RI-GTO INTEGRALS CHOSEN --
------------------------------------------------------------------------------

                         BASIS SET STATISTICS AND STARTUP INFO

Gaussian basis set:
 # of primitive gaussian shells          ...   82
 # of primitive gaussian functions       ...  182
 # of contracted shells                  ...   46
 # of contracted basis functions         ...  138
 Highest angular momentum                ...    3
 Maximum contraction depth               ...    8
Auxiliary gaussian basis set:
 # of primitive gaussian shells          ...   64
 # of primitive gaussian functions       ...  172
 # of contracted shells                  ...   40
 # of contracted aux-basis functions     ...  120
 Highest angular momentum                ...    4
 Maximum contraction depth               ...    7
Ratio of auxiliary to basis functions    ...  0.87
Integral package used                  ... LIBINT
 One Electron integrals                  ... done
 Ordering auxiliary basis shells         ... done
 Integral threshhold             Thresh  ...  2.500e-11
 Primitive cut-off               TCut    ...  2.500e-12
 Pre-screening matrix                    ... done
 Shell pair data                         ... 
 Ordering of the shell pairs             ... done (   0.000 sec) 1081 of 1081 pairs
 Determination of significant pairs      ... done (   0.000 sec)
 Creation of shell pair data             ... done (   0.000 sec)
 Storage of shell pair data              ... done (   0.006 sec)
 Shell pair data done in (   0.006 sec)
 Computing two index integrals           ... done
 Cholesky decomposition of the V-matrix  ... done


Timings:
 Total evaluation time                   ...   0.164 sec (  0.003 min)
 One electron matrix time                ...   0.017 sec (  0.000 min) = 10.3%
 Schwartz matrix evaluation time         ...   0.122 sec (  0.002 min) = 74.4%
 Two index repulsion integral time       ...   0.000 sec (  0.000 min) =  0.3%
 Cholesky decomposition of V             ...   0.001 sec (  0.000 min) =  0.4%
 Three index repulsion integral time     ...   0.000 sec (  0.000 min) =  0.0%



           ************************************************************
           *        Program running with 24 parallel MPI-processes    *
           *              working on a common directory               *
           ************************************************************
-------------------------------------------------------------------------------
                                 ORCA SCF
-------------------------------------------------------------------------------

------------
SCF SETTINGS
------------
Hamiltonian:
 Density Functional     Method          .... DFT(GTOs)
 Exchange Functional    Exchange        .... TPSS
 Correlation Functional Correlation     .... TPSS
 LDA part of GGA corr.  LDAOpt          .... PW91-LDA
 Gradients option       PostSCFGGA      .... off
   Density functional embedding theory  .... OFF
   NL short-range parameter             ....  5.000000
 RI-approximation to the Coulomb term is turned on
   Number of auxiliary basis functions  .... 120


General Settings:
 Integral files         IntName         .... 15_H2CO
 Hartree-Fock type      HFTyp           .... RHF
 Total Charge           Charge          ....    0
 Multiplicity           Mult            ....    1
 Number of Electrons    NEL             ....   16
 Basis Dimension        Dim             ....  138
 Nuclear Repulsion      ENuc            ....     31.3483658812 Eh

Convergence Acceleration:
 DIIS                   CNVDIIS         .... on
   Start iteration      DIISMaxIt       ....    12
   Startup error        DIISStart       ....  0.200000
   # of expansion vecs  DIISMaxEq       ....     5
   Bias factor          DIISBfac        ....   1.050
   Max. coefficient     DIISMaxC        ....  10.000
 Newton-Raphson         CNVNR           .... off
 SOSCF                  CNVSOSCF        .... on
   Start iteration      SOSCFMaxIt      ....   150
   Startup grad/error   SOSCFStart      ....  0.003300
 Level Shifting         CNVShift        .... on
   Level shift para.    LevelShift      ....    0.2500
   Turn off err/grad.   ShiftErr        ....    0.0010
 Zerner damping         CNVZerner       .... off
 Static damping         CNVDamp         .... on
   Fraction old density DampFac         ....    0.7000
   Max. Damping (<1)    DampMax         ....    0.9800
   Min. Damping (>=0)   DampMin         ....    0.0000
   Turn off err/grad.   DampErr         ....    0.1000
 Fernandez-Rico         CNVRico         .... off

SCF Procedure:
 Maximum # iterations   MaxIter         ....   125
 SCF integral mode      SCFMode         .... Direct
   Integral package                     .... LIBINT
 Reset frequency        DirectResetFreq ....    20
 Integral Threshold     Thresh          ....  2.500e-11 Eh
 Primitive CutOff       TCut            ....  2.500e-12 Eh

Convergence Tolerance:
 Convergence Check Mode ConvCheckMode   .... Total+1el-Energy
 Convergence forced     ConvForced      .... 0
 Energy Change          TolE            ....  1.000e-08 Eh
 1-El. energy change                    ....  1.000e-05 Eh
 Orbital Gradient       TolG            ....  1.000e-05
 Orbital Rotation angle TolX            ....  1.000e-05
 DIIS Error             TolErr          ....  5.000e-07


Diagonalization of the overlap matrix:
Smallest eigenvalue                        ... 8.638e-05
Time for diagonalization                   ...    0.005 sec
Threshold for overlap eigenvalues          ... 1.000e-08
Number of eigenvalues below threshold      ... 0
Time for construction of square roots      ...    0.003 sec
Total time needed                          ...    0.008 sec

-------------------
DFT GRID GENERATION
-------------------

General Integration Accuracy     IntAcc      ...  4.340
Radial Grid Type                 RadialGrid  ... Gauss-Chebyshev
Angular Grid (max. acc.)         AngularGrid ... Lebedev-110
Angular grid pruning method      GridPruning ... 3 (G Style)
Weight generation scheme         WeightScheme... Becke
Basis function cutoff            BFCut       ...    1.0000e-11
Integration weight cutoff        WCut        ...    1.0000e-14
Grids for H and He will be reduced by one unit

# of grid points (after initial pruning)     ...   4960 (   0.0 sec)
# of grid points (after weights+screening)   ...   4896 (   0.0 sec)
nearest neighbour list constructed           ...    0.0 sec
Grid point re-assignment to atoms done       ...    0.0 sec
Grid point division into batches done        ...    0.0 sec
Reduced shell lists constructed in    0.0 sec

Total number of grid points                  ...     4896
Total number of batches                      ...       79
Average number of points per batch           ...       61
Average number of grid points per atom       ...     1224
Average number of shells per batch           ...    36.80 (80.00%)
Average number of basis functions per batch  ...   110.40 (80.00%)
Average number of large shells per batch     ...    36.80 (100.00%)
Average number of large basis fcns per batch ...   110.40 (100.00%)
Maximum spatial batch extension              ...   2.86,  4.73,  8.97 au
Average spatial batch extension              ...   0.11,  0.15,  0.25 au

Time for grid setup =    0.017 sec

------------------------------
INITIAL GUESS: MODEL POTENTIAL
------------------------------
Loading Hartree-Fock densities                     ... done
Calculating cut-offs                               ... done
Setting up the integral package                    ... done
Initializing the effective Hamiltonian             ... done
Starting the Coulomb interaction                   ... done (   0.0 sec)
Reading the grid                                   ... done
Mapping shells                                     ... done
Starting the XC term evaluation                    ... done (   0.0 sec)
  promolecular density results
     # of electrons  =     15.999034895
     EX              =    -13.803506194
     EC              =     -0.510685001
     EX+EC           =    -14.314191196
Transforming the Hamiltonian                       ... done (   0.0 sec)
Diagonalizing the Hamiltonian                      ... done (   0.0 sec)
Back transforming the eigenvectors                 ... done (   0.0 sec)
Now organizing SCF variables                       ... done
                      ------------------
                      INITIAL GUESS DONE (   0.1 sec)
                      ------------------
--------------
SCF ITERATIONS
--------------
ITER       Energy         Delta-E        Max-DP      RMS-DP      [F,P]     Damp
               ***  Starting incremental Fock matrix formation  ***
  0   -114.4936842014   0.000000000000 0.04109705  0.00109481  0.2610018 0.7000
  1   -114.5324322028  -0.038748001400 0.02279129  0.00060426  0.0730832 0.7000
                               ***Turning on DIIS***
  2   -114.5400020032  -0.007569800485 0.02462962  0.00087633  0.0314745 0.0000
  3   -114.5636141129  -0.023612109671 0.01488112  0.00040761  0.0263005 0.0000
  4   -114.5644831370  -0.000869024126 0.00781193  0.00016746  0.0330008 0.0000
  5   -114.5655378738  -0.001054736725 0.00145133  0.00004558  0.0063243 0.0000
                      *** Initiating the SOSCF procedure ***
                           *** Shutting down DIIS ***
                      *** Re-Reading the Fockian *** 
                      *** Removing any level shift *** 
ITER      Energy       Delta-E        Grad      Rot      Max-DP    RMS-DP
  6   -114.56558535  -0.0000474781  0.000401  0.000401  0.000502  0.000016
               *** Restarting incremental Fock matrix formation ***
  7   -114.56559003  -0.0000046823  0.000318  0.001128  0.000561  0.000013
  8   -114.56558822   0.0000018102  0.000777  0.000708  0.000365  0.000008
  9   -114.56559040  -0.0000021770  0.000035  0.000061  0.000094  0.000002
 10   -114.56559040   0.0000000044  0.000037  0.000037  0.000049  0.000001
                  ***Gradient check signals convergence***
              ***Rediagonalizing the Fockian in SOSCF/NRSCF***

               *****************************************************
               *                     SUCCESS                       *
               *           SCF CONVERGED AFTER  11 CYCLES          *
               *****************************************************

Setting up the final grid:

General Integration Accuracy     IntAcc      ...  4.670
Radial Grid Type                 RadialGrid  ... Gauss-Chebyshev
Angular Grid (max. acc.)         AngularGrid ... Lebedev-302
Angular grid pruning method      GridPruning ... 3 (G Style)
Weight generation scheme         WeightScheme... Becke
Basis function cutoff            BFCut       ...    1.0000e-11
Integration weight cutoff        WCut        ...    1.0000e-14
Grids for H and He will be reduced by one unit

# of grid points (after initial pruning)     ...  19212 (   0.0 sec)
# of grid points (after weights+screening)   ...  18893 (   0.0 sec)
nearest neighbour list constructed           ...    0.0 sec
Grid point re-assignment to atoms done       ...    0.0 sec
Grid point division into batches done        ...    0.1 sec
Reduced shell lists constructed in    0.1 sec

Total number of grid points                  ...    18893
Total number of batches                      ...      298
Average number of points per batch           ...       63
Average number of grid points per atom       ...     4723
Average number of shells per batch           ...    42.21 (91.77%)
Average number of basis functions per batch  ...   126.64 (91.77%)
Average number of large shells per batch     ...    40.29 (95.43%)
Average number of large basis fcns per batch ...   120.57 (95.21%)
Maximum spatial batch extension              ...   3.59,  5.76, 13.91 au
Average spatial batch extension              ...   0.08,  0.10,  0.14 au

Final grid set up in    0.1 sec
Final integration                            ... done (   0.0 sec)
Change in XC energy                          ...     0.000244733
Integrated number of electrons               ...    15.999982327
Previous integrated no of electrons          ...    16.000113284

----------------
TOTAL SCF ENERGY
----------------

Total Energy       :         -114.56534569 Eh           -3117.48155 eV

Components:
Nuclear Repulsion  :           31.34836588 Eh             853.03240 eV
Electronic Energy  :         -145.91371157 Eh           -3970.51395 eV
One Electron Energy:         -217.61969463 Eh           -5921.73295 eV
Two Electron Energy:           71.70598306 Eh            1951.21900 eV

Virial components:
Potential Energy   :         -228.56766774 Eh           -6219.64244 eV
Kinetic Energy     :          114.00232205 Eh            3102.16089 eV
Virial Ratio       :            2.00493870


DFT components:
N(Alpha)           :        7.999991163469 electrons
N(Beta)            :        7.999991163469 electrons
N(Total)           :       15.999982326938 electrons
E(X)               :      -14.211669308454 Eh       
E(C)               :       -0.517914244485 Eh       
E(XC)              :      -14.729583552939 Eh       
DFET-embed. en.    :        0.000000000000 Eh       

---------------
SCF CONVERGENCE
---------------

  Last Energy change         ...   -3.0256e-08  Tolerance :   1.0000e-08
  Last MAX-Density change    ...    4.1982e-06  Tolerance :   1.0000e-07
  Last RMS-Density change    ...    1.0891e-07  Tolerance :   5.0000e-09
  Last Orbital Gradient      ...    2.3587e-06  Tolerance :   1.0000e-05
  Last Orbital Rotation      ...    4.9459e-06  Tolerance :   1.0000e-05

             **** THE GBW FILE WAS UPDATED (15_H2CO.gbw) ****
             **** DENSITY FILE WAS UPDATED (15_H2CO.scfp) ****
             **** ENERGY FILE WAS UPDATED (15_H2CO.en.tmp) ****
             **** THE GBW FILE WAS UPDATED (15_H2CO.gbw) ****
             **** DENSITY FILE WAS UPDATED (15_H2CO.scfp) ****
----------------
ORBITAL ENERGIES
----------------

  NO   OCC          E(Eh)            E(eV) 
   0   2.0000     -18.906120      -514.4617 
   1   2.0000     -10.088783      -274.5298 
   2   2.0000      -1.000011       -27.2117 
   3   2.0000      -0.592903       -16.1337 
   4   2.0000      -0.456722       -12.4280 
   5   2.0000      -0.407919       -11.1000 
   6   2.0000      -0.371024       -10.0961 
   7   2.0000      -0.234264        -6.3746 
   8   0.0000      -0.089220        -2.4278 
   9   0.0000      -0.011531        -0.3138 
  10   0.0000       0.016338         0.4446 
  11   0.0000       0.028214         0.7677 
  12   0.0000       0.045166         1.2290 
  13   0.0000       0.078148         2.1265 
  14   0.0000       0.088903         2.4192 
  15   0.0000       0.106130         2.8879 
  16   0.0000       0.124764         3.3950 
  17   0.0000       0.128003         3.4831 
  18   0.0000       0.142917         3.8890 
  19   0.0000       0.163520         4.4496 
  20   0.0000       0.172908         4.7051 
  21   0.0000       0.203055         5.5254 
  22   0.0000       0.226823         6.1722 
  23   0.0000       0.261948         7.1280 
  24   0.0000       0.264398         7.1946 
  25   0.0000       0.277716         7.5570 
  26   0.0000       0.292683         7.9643 
  27   0.0000       0.304895         8.2966 
  28   0.0000       0.314201         8.5498 
  29   0.0000       0.325144         8.8476 
  30   0.0000       0.368254        10.0207 
  31   0.0000       0.371990        10.1224 
  32   0.0000       0.417987        11.3740 
  33   0.0000       0.430592        11.7170 
  34   0.0000       0.508595        13.8396 
  35   0.0000       0.528434        14.3794 
  36   0.0000       0.549604        14.9555 
  37   0.0000       0.641619        17.4593 
  38   0.0000       0.659717        17.9518 
  39   0.0000       0.662845        18.0369 
  40   0.0000       0.692810        18.8523 
  41   0.0000       0.699883        19.0448 
  42   0.0000       0.713296        19.4098 
  43   0.0000       0.716918        19.5083 
  44   0.0000       0.773128        21.0379 
  45   0.0000       0.788551        21.4576 
  46   0.0000       0.799375        21.7521 
  47   0.0000       0.827715        22.5233 
  48   0.0000       0.838125        22.8065 
  49   0.0000       0.856910        23.3177 
  50   0.0000       0.868306        23.6278 
  51   0.0000       0.872604        23.7448 
  52   0.0000       0.881894        23.9975 
  53   0.0000       0.921527        25.0760 
  54   0.0000       0.931420        25.3452 
  55   0.0000       0.945412        25.7260 
  56   0.0000       1.071097        29.1460 
  57   0.0000       1.075983        29.2790 
  58   0.0000       1.132432        30.8150 
  59   0.0000       1.186847        32.2958 
  60   0.0000       1.194772        32.5114 
  61   0.0000       1.248046        33.9611 
  62   0.0000       1.288516        35.0623 
  63   0.0000       1.329378        36.1742 
  64   0.0000       1.371408        37.3179 
  65   0.0000       1.377353        37.4797 
  66   0.0000       1.426601        38.8198 
  67   0.0000       1.484073        40.3837 
  68   0.0000       1.495227        40.6872 
  69   0.0000       1.578847        42.9626 
  70   0.0000       1.715292        46.6755 
  71   0.0000       1.775963        48.3264 
  72   0.0000       1.789483        48.6943 
  73   0.0000       1.837538        50.0020 
  74   0.0000       1.959287        53.3149 
  75   0.0000       2.005557        54.5740 
  76   0.0000       2.026674        55.1486 
  77   0.0000       2.033565        55.3361 
  78   0.0000       2.068455        56.2855 
  79   0.0000       2.181659        59.3659 
  80   0.0000       2.192019        59.6479 
  81   0.0000       2.272226        61.8304 
  82   0.0000       2.308313        62.8124 
  83   0.0000       2.400272        65.3147 
  84   0.0000       2.501894        68.0800 
  85   0.0000       2.513005        68.3823 
  86   0.0000       2.631432        71.6049 
  87   0.0000       2.639019        71.8114 
  88   0.0000       2.734766        74.4168 
  89   0.0000       2.780332        75.6567 
  90   0.0000       2.850362        77.5623 
  91   0.0000       2.886978        78.5587 
  92   0.0000       3.112155        84.6860 
  93   0.0000       3.121873        84.9505 
  94   0.0000       3.239793        88.1592 
  95   0.0000       3.267611        88.9162 
  96   0.0000       3.332132        90.6719 
  97   0.0000       3.351777        91.2065 
  98   0.0000       3.365804        91.5882 
  99   0.0000       3.596855        97.8754 
 100   0.0000       3.620963        98.5314 
 101   0.0000       3.637576        98.9835 
 102   0.0000       3.800496       103.4168 
 103   0.0000       3.813069       103.7589 
 104   0.0000       3.876785       105.4927 
 105   0.0000       3.881106       105.6103 
 106   0.0000       3.885029       105.7170 
 107   0.0000       4.043866       110.0392 
 108   0.0000       4.232542       115.1733 
 109   0.0000       4.385263       119.3291 
 110   0.0000       4.426278       120.4452 
 111   0.0000       4.502948       122.5314 
 112   0.0000       4.640771       126.2818 
 113   0.0000       4.663912       126.9115 
 114   0.0000       4.817245       131.0839 
 115   0.0000       4.837168       131.6260 
 116   0.0000       4.962703       135.0420 
 117   0.0000       4.981267       135.5472 
 118   0.0000       5.021967       136.6547 
 119   0.0000       5.030182       136.8782 
 120   0.0000       5.589535       152.0990 
 121   0.0000       5.804266       157.9421 
 122   0.0000       5.816569       158.2769 
 123   0.0000       6.141379       167.1154 
 124   0.0000       6.151617       167.3940 
 125   0.0000       6.285772       171.0445 
 126   0.0000       6.469786       176.0518 
 127   0.0000       6.507257       177.0715 
 128   0.0000       6.621416       180.1779 
 129   0.0000       6.630435       180.4233 
 130   0.0000       6.657093       181.1487 
 131   0.0000       6.908695       187.9951 
 132   0.0000       6.960775       189.4123 
 133   0.0000       7.152361       194.6256 
 134   0.0000       7.190036       195.6508 
 135   0.0000       7.282439       198.1652 
 136   0.0000      14.230357       387.2277 
 137   0.0000      15.504854       421.9085 

                    ********************************
                    * MULLIKEN POPULATION ANALYSIS *
                    ********************************

-----------------------
MULLIKEN ATOMIC CHARGES
-----------------------
   0 C :   -0.058387
   1 O :   -0.398781
   2 H :    0.224832
   3 H :    0.232337
Sum of atomic charges:    0.0000000

--------------------------------
MULLIKEN REDUCED ORBITAL CHARGES
--------------------------------
  0 C s       :     3.443513  s :     3.443513
      pz      :     0.695651  p :     2.397592
      px      :     0.729131
      py      :     0.972810
      dz2     :     0.006550  d :     0.179588
      dxz     :     0.032022
      dyz     :     0.001125
      dx2y2   :    -0.002940
      dxy     :     0.142830
      f0      :     0.001674  f :     0.037694
      f+1     :     0.001161
      f-1     :    -0.000095
      f+2     :     0.006432
      f-2     :     0.000602
      f+3     :     0.008441
      f-3     :     0.019480
  1 O s       :     3.991686  s :     3.991686
      pz      :     1.281300  p :     4.359197
      px      :     1.320914
      py      :     1.756983
      dz2     :     0.002639  d :     0.045095
      dxz     :     0.014397
      dyz     :     0.000334
      dx2y2   :     0.006587
      dxy     :     0.021137
      f0      :     0.000233  f :     0.002804
      f+1     :    -0.000138
      f-1     :     0.000023
      f+2     :     0.000841
      f-2     :     0.000075
      f+3     :     0.000402
      f-3     :     0.001368
  2 H s       :     0.760340  s :     0.760340
      pz      :     0.007452  p :     0.013825
      px      :     0.000979
      py      :     0.005394
      dz2     :    -0.001155  d :     0.001003
      dxz     :     0.001619
      dyz     :     0.000868
      dx2y2   :     0.001656
      dxy     :    -0.001984
  3 H s       :     0.750853  s :     0.750853
      pz      :     0.007294  p :     0.013719
      px      :    -0.001643
      py      :     0.008068
      dz2     :    -0.000248  d :     0.003092
      dxz     :     0.001825
      dyz     :     0.000070
      dx2y2   :     0.001469
      dxy     :    -0.000024


                     *******************************
                     * LOEWDIN POPULATION ANALYSIS *
                     *******************************

----------------------
LOEWDIN ATOMIC CHARGES
----------------------
   0 C :    0.046205
   1 O :    0.430400
   2 H :   -0.237729
   3 H :   -0.238876

-------------------------------
LOEWDIN REDUCED ORBITAL CHARGES
-------------------------------
  0 C s       :     2.607546  s :     2.607546
      pz      :     0.532935  p :     2.254237
      px      :     0.871211
      py      :     0.850091
      dz2     :     0.061542  d :     0.782484
      dxz     :     0.113401
      dyz     :     0.007295
      dx2y2   :     0.201884
      dxy     :     0.398363
      f0      :     0.022974  f :     0.309528
      f+1     :     0.037603
      f-1     :     0.007997
      f+2     :     0.046178
      f-2     :     0.005926
      f+3     :     0.083270
      f-3     :     0.105580
  1 O s       :     3.258471  s :     3.258471
      pz      :     1.104127  p :     4.009776
      px      :     1.445544
      py      :     1.460104
      dz2     :     0.026318  d :     0.225194
      dxz     :     0.033349
      dyz     :     0.000816
      dx2y2   :     0.062835
      dxy     :     0.101876
      f0      :     0.005581  f :     0.076160
      f+1     :     0.010074
      f-1     :     0.001945
      f+2     :     0.010223
      f-2     :     0.000900
      f+3     :     0.017705
      f-3     :     0.029732
  2 H s       :     0.738491  s :     0.738491
      pz      :     0.057927  p :     0.300552
      px      :     0.082927
      py      :     0.159697
      dz2     :     0.024423  d :     0.198686
      dxz     :     0.019762
      dyz     :     0.035976
      dx2y2   :     0.064563
      dxy     :     0.053963
  3 H s       :     0.739067  s :     0.739067
      pz      :     0.060505  p :     0.300850
      px      :     0.102536
      py      :     0.137809
      dz2     :     0.026293  d :     0.198959
      dxz     :     0.032189
      dyz     :     0.024363
      dx2y2   :     0.073150
      dxy     :     0.042964


                      *****************************
                      * MAYER POPULATION ANALYSIS *
                      *****************************

  NA   - Mulliken gross atomic population
  ZA   - Total nuclear charge
  QA   - Mulliken gross atomic charge
  VA   - Mayer's total valence
  BVA  - Mayer's bonded valence
  FA   - Mayer's free valence

  ATOM       NA         ZA         QA         VA         BVA        FA
  0 C      6.0584     6.0000    -0.0584     3.6341     3.6341     0.0000
  1 O      8.3988     8.0000    -0.3988     1.9270     1.9270     0.0000
  2 H      0.7752     1.0000     0.2248     0.9015     0.9015     0.0000
  3 H      0.7677     1.0000     0.2323     0.8841     0.8841    -0.0000

  Mayer bond orders larger than 0.100000
B(  0-C ,  1-O ) :   1.9070 B(  0-C ,  2-H ) :   0.8724 B(  0-C ,  3-H ) :   0.8547 


-------
TIMINGS
-------

Total SCF time: 0 days 0 hours 0 min 1 sec 

Total time                  ....       1.620 sec
Sum of individual times     ....       1.508 sec  ( 93.0%)

Fock matrix formation       ....       1.255 sec  ( 77.4%)
  Split-RI-J                ....       0.951 sec  ( 75.8% of F)
  XC integration            ....       0.239 sec  ( 19.1% of F)
    Basis function eval.    ....       0.018 sec  (  7.3% of XC)
    Density eval.           ....       0.031 sec  ( 12.9% of XC)
    XC-Functional eval.     ....       0.010 sec  (  4.0% of XC)
    XC-Potential eval.      ....       0.074 sec  ( 30.9% of XC)
Diagonalization             ....       0.020 sec  (  1.2%)
Density matrix formation    ....       0.004 sec  (  0.3%)
Population analysis         ....       0.004 sec  (  0.2%)
Initial guess               ....       0.114 sec  (  7.0%)
Orbital Transformation      ....       0.000 sec  (  0.0%)
Orbital Orthonormalization  ....       0.000 sec  (  0.0%)
DIIS solution               ....       0.009 sec  (  0.5%)
SOSCF solution              ....       0.006 sec  (  0.4%)
Grid generation             ....       0.096 sec  (  5.9%)


-------------------------------------------------------------------------------
                          DFT DISPERSION CORRECTION                            
                                                                               
                              DFTD3 V3.1  Rev 1                                
                          USING Becke-Johnson damping                          
-------------------------------------------------------------------------------
The TPSS functional is recognized
Active option DFTDOPT                   ...         4   

molecular C6(AA) [au] = 146.467025 


            DFT-D V3
 parameters
 s6 scaling factor         :     1.0000 
 a1 scaling factor         :     0.4535 
 s8 scaling factor         :     1.9435 
 a2 scaling factor         :     4.4752 
 ad hoc parameters k1-k3   :    16.0000     1.3333    -4.0000 

 Edisp/kcal,au: -0.825017812173  -0.001314749431 
 E6   /kcal   :  -0.437966293 
 E8   /kcal   :  -0.387051519 
 % E8         :  46.914322724 

-------------------------   ----------------
Dispersion correction           -0.001314749
-------------------------   ----------------


-------------------------   --------------------
FINAL SINGLE POINT ENERGY      -114.566660443053
-------------------------   --------------------



           ************************************************************
           *        Program running with 24 parallel MPI-processes    *
           *              working on a common directory               *
           ************************************************************
------------------------------------------------------------------------------
                         ORCA SCF GRADIENT CALCULATION
------------------------------------------------------------------------------

Gradient of the Kohn-Sham DFT energy:
Kohn-Sham wavefunction type      ... RKS
Hartree-Fock exchange scaling    ...    0.000
Number of operators              ...    1
Number of atoms                  ...    4
Basis set dimensions             ...  138
Integral neglect threshold       ... 2.5e-11
Integral primitive cutoff        ... 2.5e-12

Nuclear repulsion gradient       ... done
One Electron Gradient            ... done
Pre-screening matrix             ... done
RI-J gradient                    ... done
Exchange-correlation gradient    ... done
Dispersion correction            ... done

------------------
CARTESIAN GRADIENT
------------------

   1   C   :    0.008320813   -0.001025075   -0.000498102
   2   O   :   -0.013229785    0.001671305    0.000845025
   3   H   :    0.001471018   -0.001422250    0.000104823
   4   H   :    0.001858945    0.000948668   -0.000350452

Difference to translation invariance:
           :   -0.0015790092    0.0001726472    0.0001012942

Norm of the cartesian gradient     ...    0.0160544540
RMS gradient                       ...    0.0046345217
MAX gradient                       ...    0.0132297852

-------
TIMINGS
-------

Total SCF gradient time            ...        0.438 sec

One electron gradient       ....       0.021 sec  (  4.7%)
Prescreening matrices       ....       0.023 sec  (  5.1%)
RI-J Coulomb gradient       ....       0.091 sec  ( 20.8%)
XC gradient                 ....       0.127 sec  ( 29.1%)
------------------------------------------------------------------------------
                         ORCA GEOMETRY RELAXATION STEP
------------------------------------------------------------------------------

Reading the OPT-File                    .... done
Getting information on internals        .... done
Copying old internal coords+grads       .... done
Making the new internal coordinates     .... (new redundants).... done
Validating the new internal coordinates .... (new redundants).... done
Calculating the B-matrix                .... done
Calculating the G,G- and P matrices     .... done
Transforming gradient to internals      .... done
Projecting the internal gradient        .... done
Number of atoms                         ....   4
Number of internal coordinates          ....   7
Current Energy                          ....  -114.566660443 Eh
Current gradient norm                   ....     0.016054454 Eh/bohr
Maximum allowed component of the step   ....  0.300
Current trust radius                    ....  0.300
Evaluating the initial hessian          ....  (Almloef) done
Projecting the Hessian                  .... done
Forming the augmented Hessian           .... done
Diagonalizing the augmented Hessian     .... done
Last element of RFO vector              ....  0.999874344
Lowest eigenvalues of augmented Hessian:
 -0.000189041  0.113866102  0.317919033  0.337455275  0.337482379
Length of the computed step             ....  0.015854302
The final length of the internal step   ....  0.015854302
Converting the step to cartesian space:
 Initial RMS(Int)=    0.0059923630
Transforming coordinates:
 Iter   0:  RMS(Cart)=    0.0046950950 RMS(Int)=    0.0059916423
 Iter   1:  RMS(Cart)=    0.0000062999 RMS(Int)=    0.0000077626
 Iter   2:  RMS(Cart)=    0.0000000205 RMS(Int)=    0.0000000257
done
Storing new coordinates                 .... done

                                .--------------------.
          ----------------------|Geometry convergence|-------------------------
          Item                value                   Tolerance       Converged
          ---------------------------------------------------------------------
          RMS gradient        0.0050837152            0.0001000000      NO
          MAX gradient        0.0129635695            0.0003000000      NO
          RMS step            0.0059923630            0.0020000000      NO
          MAX step            0.0115931111            0.0040000000      NO
          ........................................................
          Max(Bonds)      0.0061      Max(Angles)    0.28
          Max(Dihed)        0.00      Max(Improp)    0.02
          ---------------------------------------------------------------------

The optimization has not yet converged - more geometry cycles are needed


    ---------------------------------------------------------------------------
                         Redundant Internal Coordinates
                            (Angstroem and degrees)

        Definition                    Value    dE/dq     Step     New-Value
    ----------------------------------------------------------------------------
     1. B(O   1,C   0)                1.2016 -0.012964  0.0061    1.2077   
     2. B(H   2,C   0)                1.1077 -0.002109  0.0033    1.1110   
     3. B(H   3,C   0)                1.1077 -0.002159  0.0034    1.1111   
     4. A(O   1,C   0,H   3)          121.76 -0.000879    0.16    121.92   
     5. A(H   2,C   0,H   3)          116.47  0.001576   -0.28    116.19   
     6. A(O   1,C   0,H   2)          121.77 -0.000697    0.13    121.89   
     7. I(O   1,H   3,H   2,C   0)      0.00  0.000036   -0.02     -0.02   
    ----------------------------------------------------------------------------

         *************************************************************
         *                GEOMETRY OPTIMIZATION CYCLE   2            *
         *************************************************************
---------------------------------
CARTESIAN COORDINATES (ANGSTROEM)
---------------------------------
  C     -0.008253    0.001014    0.000450
  O      1.186581   -0.157997   -0.075156
  H     -0.482016    0.988356   -0.186600
  H     -0.696321   -0.831440    0.261314

----------------------------
CARTESIAN COORDINATES (A.U.)
----------------------------
  NO LB      ZA    FRAG     MASS         X           Y           Z
   0 C     6.0000    0    12.011   -0.015596    0.001916    0.000851
   1 O     8.0000    0    15.999    2.242314   -0.298571   -0.142024
   2 H     1.0000    0     1.008   -0.910879    1.867722   -0.352624
   3 H     1.0000    0     1.008   -1.315855   -1.571194    0.493811

--------------------------------
INTERNAL COORDINATES (ANGSTROEM)
--------------------------------
 C      0   0   0     0.000000000000     0.00000000     0.00000000
 O      1   0   0     1.207737611548     0.00000000     0.00000000
 H      1   2   0     1.110983348055   121.89389346     0.00000000
 H      1   2   3     1.111065273683   121.91923081   180.02109093

---------------------------
INTERNAL COORDINATES (A.U.)
---------------------------
 C      0   0   0     0.000000000000     0.00000000     0.00000000
 O      1   0   0     2.282293327461     0.00000000     0.00000000
 H      1   2   0     2.099454267172   121.89389346     0.00000000
 H      1   2   3     2.099609084170   121.91923081   180.02109093



           ************************************************************
           *        Program running with 24 parallel MPI-processes    *
           *              working on a common directory               *
           ************************************************************
 One Electron integrals                  ... done
 Pre-screening matrix                    ... done


           ************************************************************
           *        Program running with 24 parallel MPI-processes    *
           *              working on a common directory               *
           ************************************************************

Diagonalization of the overlap matrix:
Smallest eigenvalue                        ... 8.786e-05
Time for diagonalization                   ...    0.006 sec
Threshold for overlap eigenvalues          ... 1.000e-08
Number of eigenvalues below threshold      ... 0
Time for construction of square roots      ...    0.002 sec
Total time needed                          ...    0.008 sec

-------------------
DFT GRID GENERATION
-------------------

General Integration Accuracy     IntAcc      ...  4.340
Radial Grid Type                 RadialGrid  ... Gauss-Chebyshev
Angular Grid (max. acc.)         AngularGrid ... Lebedev-110
Angular grid pruning method      GridPruning ... 3 (G Style)
Weight generation scheme         WeightScheme... Becke
Basis function cutoff            BFCut       ...    1.0000e-11
Integration weight cutoff        WCut        ...    1.0000e-14
Grids for H and He will be reduced by one unit

# of grid points (after initial pruning)     ...   4960 (   0.0 sec)
# of grid points (after weights+screening)   ...   4895 (   0.0 sec)
nearest neighbour list constructed           ...    0.0 sec
Grid point re-assignment to atoms done       ...    0.0 sec
Grid point division into batches done        ...    0.0 sec
Reduced shell lists constructed in    0.0 sec

Total number of grid points                  ...     4895
Total number of batches                      ...       79
Average number of points per batch           ...       61
Average number of grid points per atom       ...     1224
Average number of shells per batch           ...    36.80 (80.00%)
Average number of basis functions per batch  ...   110.40 (80.00%)
Average number of large shells per batch     ...    36.80 (100.00%)
Average number of large basis fcns per batch ...   110.40 (100.00%)
Maximum spatial batch extension              ...   2.87,  4.73,  8.97 au
Average spatial batch extension              ...   0.11,  0.15,  0.25 au

Time for grid setup =    0.013 sec

--------------
SCF ITERATIONS
--------------
ITER       Energy         Delta-E        Max-DP      RMS-DP      [F,P]     Damp
               ***  Starting incremental Fock matrix formation  ***
                      *** Initiating the SOSCF procedure ***
                      *** Re-Reading the Fockian *** 
                      *** Removing any level shift *** 
ITER      Energy       Delta-E        Grad      Rot      Max-DP    RMS-DP
  0   -114.56566885 -114.5656688455  0.001177  0.001177  0.002155  0.000063
               *** Restarting incremental Fock matrix formation ***
  1   -114.56569144  -0.0000225945  0.000307  0.000850  0.000864  0.000023
  2   -114.56569113   0.0000003062  0.000435  0.000619  0.000383  0.000013
  3   -114.56569354  -0.0000024097  0.000369  0.000837  0.000435  0.000012
  4   -114.56569246   0.0000010809  0.000483  0.000474  0.000316  0.000008
  5   -114.56569404  -0.0000015749  0.000006  0.000009  0.000009  0.000000
                  ***Gradient check signals convergence***
              ***Rediagonalizing the Fockian in SOSCF/NRSCF***

               *****************************************************
               *                     SUCCESS                       *
               *           SCF CONVERGED AFTER   6 CYCLES          *
               *****************************************************

Setting up the final grid:

General Integration Accuracy     IntAcc      ...  4.670
Radial Grid Type                 RadialGrid  ... Gauss-Chebyshev
Angular Grid (max. acc.)         AngularGrid ... Lebedev-302
Angular grid pruning method      GridPruning ... 3 (G Style)
Weight generation scheme         WeightScheme... Becke
Basis function cutoff            BFCut       ...    1.0000e-11
Integration weight cutoff        WCut        ...    1.0000e-14
Grids for H and He will be reduced by one unit

# of grid points (after initial pruning)     ...  19212 (   0.0 sec)
# of grid points (after weights+screening)   ...  18894 (   0.0 sec)
nearest neighbour list constructed           ...    0.0 sec
Grid point re-assignment to atoms done       ...    0.0 sec
Grid point division into batches done        ...    0.1 sec
Reduced shell lists constructed in    0.1 sec

Total number of grid points                  ...    18894
Total number of batches                      ...      298
Average number of points per batch           ...       63
Average number of grid points per atom       ...     4724
Average number of shells per batch           ...    42.29 (91.93%)
Average number of basis functions per batch  ...   126.86 (91.93%)
Average number of large shells per batch     ...    40.29 (95.27%)
Average number of large basis fcns per batch ...   120.57 (95.05%)
Maximum spatial batch extension              ...   3.60,  5.77, 13.91 au
Average spatial batch extension              ...   0.09,  0.10,  0.14 au

Final grid set up in    0.1 sec
Final integration                            ... done (   0.0 sec)
Change in XC energy                          ...     0.000248162
Integrated number of electrons               ...    15.999983581
Previous integrated no of electrons          ...    16.000127720
Total Energy       :         -114.56544588 Eh           -3117.48427 eV
  Last Energy change         ...   -1.6148e-09  Tolerance :   1.0000e-08
  Last MAX-Density change    ...    2.2612e-06  Tolerance :   1.0000e-07
             **** THE GBW FILE WAS UPDATED (15_H2CO.gbw) ****
             **** DENSITY FILE WAS UPDATED (15_H2CO.scfp) ****
             **** ENERGY FILE WAS UPDATED (15_H2CO.en.tmp) ****
             **** THE GBW FILE WAS UPDATED (15_H2CO.gbw) ****
             **** DENSITY FILE WAS UPDATED (15_H2CO.scfp) ****
Total SCF time: 0 days 0 hours 0 min 1 sec 


-------------------------------------------------------------------------------
                          DFT DISPERSION CORRECTION                            
                                                                               
                              DFTD3 V3.1  Rev 1                                
                          USING Becke-Johnson damping                          
-------------------------------------------------------------------------------
-------------------------   ----------------
Dispersion correction           -0.001314423
-------------------------   ----------------


-------------------------   --------------------
FINAL SINGLE POINT ENERGY      -114.566760300295
-------------------------   --------------------



           ************************************************************
           *        Program running with 24 parallel MPI-processes    *
           *              working on a common directory               *
           ************************************************************
------------------------------------------------------------------------------
                         ORCA SCF GRADIENT CALCULATION
------------------------------------------------------------------------------

Gradient of the Kohn-Sham DFT energy:
Kohn-Sham wavefunction type      ... RKS
Hartree-Fock exchange scaling    ...    0.000
Number of operators              ...    1
Number of atoms                  ...    4
Basis set dimensions             ...  138
Integral neglect threshold       ... 2.5e-11
Integral primitive cutoff        ... 2.5e-12

Nuclear repulsion gradient       ... done
One Electron Gradient            ... done
Pre-screening matrix             ... done
RI-J gradient                    ... done
Exchange-correlation gradient    ... done
Dispersion correction            ... done

------------------
CARTESIAN GRADIENT
------------------

   1   C   :    0.001343260   -0.000132406   -0.000087139
   2   O   :   -0.002716659    0.000308515    0.000186518
   3   H   :   -0.000071460    0.000315937   -0.000142263
   4   H   :   -0.000097827   -0.000330217    0.000148255

Difference to translation invariance:
           :   -0.0015426859    0.0001618294    0.0001053720

Norm of the cartesian gradient     ...    0.0030992636
RMS gradient                       ...    0.0008946803
MAX gradient                       ...    0.0027166592

-------
TIMINGS
-------

Total SCF gradient time            ...        0.429 sec

One electron gradient       ....       0.003 sec  (  0.7%)
Prescreening matrices       ....       0.022 sec  (  5.2%)
RI-J Coulomb gradient       ....       0.091 sec  ( 21.2%)
XC gradient                 ....       0.129 sec  ( 30.2%)
------------------------------------------------------------------------------
                         ORCA GEOMETRY RELAXATION STEP
------------------------------------------------------------------------------

Reading the OPT-File                    .... done
Getting information on internals        .... done
Copying old internal coords+grads       .... done
Making the new internal coordinates     .... (new redundants).... done
Validating the new internal coordinates .... (new redundants).... done
Calculating the B-matrix                .... done
Calculating the G,G- and P matrices     .... done
Transforming gradient to internals      .... done
Projecting the internal gradient        .... done
Number of atoms                         ....   4
Number of internal coordinates          ....   7
Current Energy                          ....  -114.566760300 Eh
Current gradient norm                   ....     0.003099264 Eh/bohr
Maximum allowed component of the step   ....  0.300
Current trust radius                    ....  0.300
Updating the Hessian (BFGS)             .... done
Forming the augmented Hessian           .... done
Diagonalizing the augmented Hessian     .... done
Last element of RFO vector              ....  0.999991928
Lowest eigenvalues of augmented Hessian:
 -0.000008650  0.113864120  0.301416970  0.337454086  0.354751923
Length of the computed step             ....  0.004018004
The final length of the internal step   ....  0.004018004
Converting the step to cartesian space:
 Initial RMS(Int)=    0.0015186628
Transforming coordinates:
 Iter   0:  RMS(Cart)=    0.0012856983 RMS(Int)=    0.0015186996
 Iter   1:  RMS(Cart)=    0.0000005498 RMS(Int)=    0.0000008393
 Iter   2:  RMS(Cart)=    0.0000000007 RMS(Int)=    0.0000000008
done
Storing new coordinates                 .... done

                                .--------------------.
          ----------------------|Geometry convergence|-------------------------
          Item                value                   Tolerance       Converged
          ---------------------------------------------------------------------
          Energy change      -0.0000998572            0.0000050000      NO
          RMS gradient        0.0009370557            0.0001000000      NO
          MAX gradient        0.0023514041            0.0003000000      NO
          RMS step            0.0015186628            0.0020000000      YES
          MAX step            0.0026810337            0.0040000000      YES
          ........................................................
          Max(Bonds)      0.0014      Max(Angles)    0.14
          Max(Dihed)        0.00      Max(Improp)    0.00
          ---------------------------------------------------------------------

The optimization has not yet converged - more geometry cycles are needed


    ---------------------------------------------------------------------------
                         Redundant Internal Coordinates
                            (Angstroem and degrees)

        Definition                    Value    dE/dq     Step     New-Value
    ----------------------------------------------------------------------------
     1. B(O   1,C   0)                1.2077 -0.002351  0.0014    1.2092   
     2. B(H   2,C   0)                1.1110  0.000139 -0.0002    1.1108   
     3. B(H   3,C   0)                1.1111  0.000128 -0.0002    1.1109   
     4. A(O   1,C   0,H   3)          121.92 -0.000358    0.08    122.00   
     5. A(H   2,C   0,H   3)          116.19  0.000620   -0.14    116.05   
     6. A(O   1,C   0,H   2)          121.89 -0.000263    0.06    121.95   
     7. I(O   1,H   3,H   2,C   0)     -0.02  0.000007   -0.00     -0.02   
    ----------------------------------------------------------------------------

         *************************************************************
         *                GEOMETRY OPTIMIZATION CYCLE   3            *
         *************************************************************
---------------------------------
CARTESIAN COORDINATES (ANGSTROEM)
---------------------------------
  C     -0.008103    0.000949    0.000428
  O      1.188150   -0.158131   -0.075265
  H     -0.482917    0.987606   -0.186331
  H     -0.697138   -0.830490    0.261176

----------------------------
CARTESIAN COORDINATES (A.U.)
----------------------------
  NO LB      ZA    FRAG     MASS         X           Y           Z
   0 C     6.0000    0    12.011   -0.015313    0.001793    0.000809
   1 O     8.0000    0    15.999    2.245279   -0.298825   -0.142231
   2 H     1.0000    0     1.008   -0.912581    1.866304   -0.352115
   3 H     1.0000    0     1.008   -1.317401   -1.569399    0.493551

--------------------------------
INTERNAL COORDINATES (ANGSTROEM)
--------------------------------
 C      0   0   0     0.000000000000     0.00000000     0.00000000
 O      1   0   0     1.209156353498     0.00000000     0.00000000
 H      1   2   0     1.110774006609   121.95393919     0.00000000
 H      1   2   3     1.110877885402   121.99656067   180.02656454

---------------------------
INTERNAL COORDINATES (A.U.)
---------------------------
 C      0   0   0     0.000000000000     0.00000000     0.00000000
 O      1   0   0     2.284974361202     0.00000000     0.00000000
 H      1   2   0     2.099058669170   121.95393919     0.00000000
 H      1   2   3     2.099254971640   121.99656067   180.02656454



           ************************************************************
           *        Program running with 24 parallel MPI-processes    *
           *              working on a common directory               *
           ************************************************************
 One Electron integrals                  ... done
 Pre-screening matrix                    ... done


           ************************************************************
           *        Program running with 24 parallel MPI-processes    *
           *              working on a common directory               *
           ************************************************************

Diagonalization of the overlap matrix:
Smallest eigenvalue                        ... 8.774e-05
Time for diagonalization                   ...    0.006 sec
Threshold for overlap eigenvalues          ... 1.000e-08
Number of eigenvalues below threshold      ... 0
Time for construction of square roots      ...    0.002 sec
Total time needed                          ...    0.008 sec

-------------------
DFT GRID GENERATION
-------------------

General Integration Accuracy     IntAcc      ...  4.340
Radial Grid Type                 RadialGrid  ... Gauss-Chebyshev
Angular Grid (max. acc.)         AngularGrid ... Lebedev-110
Angular grid pruning method      GridPruning ... 3 (G Style)
Weight generation scheme         WeightScheme... Becke
Basis function cutoff            BFCut       ...    1.0000e-11
Integration weight cutoff        WCut        ...    1.0000e-14
Grids for H and He will be reduced by one unit

# of grid points (after initial pruning)     ...   4960 (   0.0 sec)
# of grid points (after weights+screening)   ...   4895 (   0.0 sec)
nearest neighbour list constructed           ...    0.0 sec
Grid point re-assignment to atoms done       ...    0.0 sec
Grid point division into batches done        ...    0.0 sec
Reduced shell lists constructed in    0.0 sec

Total number of grid points                  ...     4895
Total number of batches                      ...       79
Average number of points per batch           ...       61
Average number of grid points per atom       ...     1224
Average number of shells per batch           ...    36.80 (80.00%)
Average number of basis functions per batch  ...   110.40 (80.00%)
Average number of large shells per batch     ...    36.80 (100.00%)
Average number of large basis fcns per batch ...   110.40 (100.00%)
Maximum spatial batch extension              ...   2.87,  4.73,  8.97 au
Average spatial batch extension              ...   0.11,  0.15,  0.25 au

Time for grid setup =    0.011 sec

--------------
SCF ITERATIONS
--------------
ITER       Energy         Delta-E        Max-DP      RMS-DP      [F,P]     Damp
               ***  Starting incremental Fock matrix formation  ***
                      *** Initiating the SOSCF procedure ***
                      *** Re-Reading the Fockian *** 
                      *** Removing any level shift *** 
ITER      Energy       Delta-E        Grad      Rot      Max-DP    RMS-DP
  0   -114.56569494 -114.5656949359  0.000293  0.000293  0.000466  0.000016
               *** Restarting incremental Fock matrix formation ***
  1   -114.56569621  -0.0000012712  0.000094  0.000330  0.000236  0.000008
  2   -114.56569591   0.0000002956  0.000327  0.000351  0.000184  0.000004
  3   -114.56569634  -0.0000004277  0.000059  0.000100  0.000101  0.000003
  4   -114.56569633   0.0000000136  0.000049  0.000049  0.000056  0.000002
                  ***Gradient check signals convergence***
              ***Rediagonalizing the Fockian in SOSCF/NRSCF***

               *****************************************************
               *                     SUCCESS                       *
               *           SCF CONVERGED AFTER   5 CYCLES          *
               *****************************************************

Setting up the final grid:

General Integration Accuracy     IntAcc      ...  4.670
Radial Grid Type                 RadialGrid  ... Gauss-Chebyshev
Angular Grid (max. acc.)         AngularGrid ... Lebedev-302
Angular grid pruning method      GridPruning ... 3 (G Style)
Weight generation scheme         WeightScheme... Becke
Basis function cutoff            BFCut       ...    1.0000e-11
Integration weight cutoff        WCut        ...    1.0000e-14
Grids for H and He will be reduced by one unit

# of grid points (after initial pruning)     ...  19212 (   0.0 sec)
# of grid points (after weights+screening)   ...  18896 (   0.0 sec)
nearest neighbour list constructed           ...    0.0 sec
Grid point re-assignment to atoms done       ...    0.0 sec
Grid point division into batches done        ...    0.1 sec
Reduced shell lists constructed in    0.1 sec

Total number of grid points                  ...    18896
Total number of batches                      ...      298
Average number of points per batch           ...       63
Average number of grid points per atom       ...     4724
Average number of shells per batch           ...    42.29 (91.93%)
Average number of basis functions per batch  ...   126.86 (91.93%)
Average number of large shells per batch     ...    40.29 (95.27%)
Average number of large basis fcns per batch ...   120.57 (95.05%)
Maximum spatial batch extension              ...   3.60,  5.76, 13.91 au
Average spatial batch extension              ...   0.08,  0.10,  0.14 au

Final grid set up in    0.1 sec
Final integration                            ... done (   0.1 sec)
Change in XC energy                          ...     0.000247783
Integrated number of electrons               ...    15.999983837
Previous integrated no of electrons          ...    16.000131838
Total Energy       :         -114.56544859 Eh           -3117.48435 eV
  Last Energy change         ...   -4.5691e-08  Tolerance :   1.0000e-08
  Last MAX-Density change    ...    3.0320e-06  Tolerance :   1.0000e-07
             **** THE GBW FILE WAS UPDATED (15_H2CO.gbw) ****
             **** DENSITY FILE WAS UPDATED (15_H2CO.scfp) ****
             **** ENERGY FILE WAS UPDATED (15_H2CO.en.tmp) ****
             **** THE GBW FILE WAS UPDATED (15_H2CO.gbw) ****
             **** DENSITY FILE WAS UPDATED (15_H2CO.scfp) ****
Total SCF time: 0 days 0 hours 0 min 0 sec 


-------------------------------------------------------------------------------
                          DFT DISPERSION CORRECTION                            
                                                                               
                              DFTD3 V3.1  Rev 1                                
                          USING Becke-Johnson damping                          
-------------------------------------------------------------------------------
-------------------------   ----------------
Dispersion correction           -0.001314367
-------------------------   ----------------


-------------------------   --------------------
FINAL SINGLE POINT ENERGY      -114.566762954851
-------------------------   --------------------



           ************************************************************
           *        Program running with 24 parallel MPI-processes    *
           *              working on a common directory               *
           ************************************************************
------------------------------------------------------------------------------
                         ORCA SCF GRADIENT CALCULATION
------------------------------------------------------------------------------

Gradient of the Kohn-Sham DFT energy:
Kohn-Sham wavefunction type      ... RKS
Hartree-Fock exchange scaling    ...    0.000
Number of operators              ...    1
Number of atoms                  ...    4
Basis set dimensions             ...  138
Integral neglect threshold       ... 2.5e-11
Integral primitive cutoff        ... 2.5e-12

Nuclear repulsion gradient       ... done
One Electron Gradient            ... done
Pre-screening matrix             ... done
RI-J gradient                    ... done
Exchange-correlation gradient    ... done
Dispersion correction            ... done

------------------
CARTESIAN GRADIENT
------------------

   1   C   :   -0.000511572    0.000086014    0.000027057
   2   O   :   -0.000409305    0.000025598    0.000038982
   3   H   :   -0.000298987    0.000159183   -0.000080435
   4   H   :   -0.000311630   -0.000111827    0.000120609

Difference to translation invariance:
           :   -0.0015314941    0.0001589687    0.0001062122

Norm of the cartesian gradient     ...    0.0008275923
RMS gradient                       ...    0.0002389053
MAX gradient                       ...    0.0005115715

-------
TIMINGS
-------

Total SCF gradient time            ...        0.434 sec

One electron gradient       ....       0.012 sec  (  2.7%)
Prescreening matrices       ....       0.023 sec  (  5.3%)
RI-J Coulomb gradient       ....       0.091 sec  ( 21.0%)
XC gradient                 ....       0.131 sec  ( 30.2%)
------------------------------------------------------------------------------
                         ORCA GEOMETRY RELAXATION STEP
------------------------------------------------------------------------------

Reading the OPT-File                    .... done
Getting information on internals        .... done
Copying old internal coords+grads       .... done
Making the new internal coordinates     .... (new redundants).... done
Validating the new internal coordinates .... (new redundants).... done
Calculating the B-matrix                .... done
Calculating the G,G- and P matrices     .... done
Transforming gradient to internals      .... done
Projecting the internal gradient        .... done
Number of atoms                         ....   4
Number of internal coordinates          ....   7
Current Energy                          ....  -114.566762955 Eh
Current gradient norm                   ....     0.000827592 Eh/bohr
Maximum allowed component of the step   ....  0.300
Current trust radius                    ....  0.300
Updating the Hessian (BFGS)             .... done
Forming the augmented Hessian           .... done
Diagonalizing the augmented Hessian     .... done
Last element of RFO vector              ....  0.999999396
Lowest eigenvalues of augmented Hessian:
 -0.000000315  0.113865516  0.254946768  0.337459366  0.349506959
Length of the computed step             ....  0.001098974
The final length of the internal step   ....  0.001098974
Converting the step to cartesian space:
 Initial RMS(Int)=    0.0004153731
Transforming coordinates:
 Iter   0:  RMS(Cart)=    0.0003447006 RMS(Int)=    0.0004153855
 Iter   1:  RMS(Cart)=    0.0000000674 RMS(Int)=    0.0000001089
done
Storing new coordinates                 .... done

                                .--------------------.
          ----------------------|Geometry convergence|-------------------------
          Item                value                   Tolerance       Converged
          ---------------------------------------------------------------------
          Energy change      -0.0000026546            0.0000050000      YES
          RMS gradient        0.0001090035            0.0001000000      NO
          MAX gradient        0.0002091877            0.0003000000      YES
          RMS step            0.0004153731            0.0020000000      YES
          MAX step            0.0008245776            0.0040000000      YES
          ........................................................
          Max(Bonds)      0.0002      Max(Angles)    0.05
          Max(Dihed)        0.00      Max(Improp)    0.00
          ---------------------------------------------------------------------

       The step convergence is overachieved with 
       reasonable convergence on the gradient
       Convergence will therefore be signaled now


                    ***********************HURRAY********************
                    ***        THE OPTIMIZATION HAS CONVERGED     ***
                    *************************************************


    ---------------------------------------------------------------------------
                         Redundant Internal Coordinates

                          --- Optimized Parameters ---  
                            (Angstroem and degrees)

        Definition                    OldVal   dE/dq     Step     FinalVal
    ----------------------------------------------------------------------------
     1. B(O   1,C   0)                1.2092 -0.000025  0.0001    1.2092   
     2. B(H   2,C   0)                1.1108  0.000088 -0.0001    1.1106   
     3. B(H   3,C   0)                1.1109  0.000091 -0.0002    1.1107   
     4. A(O   1,C   0,H   3)          122.00 -0.000124    0.03    122.02   
     5. A(H   2,C   0,H   3)          116.05  0.000209   -0.05    116.00   
     6. A(O   1,C   0,H   2)          121.95 -0.000085    0.02    121.97   
     7. I(O   1,H   3,H   2,C   0)     -0.02 -0.000001    0.00     -0.02   
    ----------------------------------------------------------------------------
                 *******************************************************
                 *** FINAL ENERGY EVALUATION AT THE STATIONARY POINT ***
                 ***               (AFTER    3 CYCLES)               ***
                 *******************************************************
---------------------------------
CARTESIAN COORDINATES (ANGSTROEM)
---------------------------------
  C     -0.007972    0.000912    0.000425
  O      1.188367   -0.158133   -0.075286
  H     -0.483112    0.987267   -0.186233
  H     -0.697291   -0.830114    0.261102

----------------------------
CARTESIAN COORDINATES (A.U.)
----------------------------
  NO LB      ZA    FRAG     MASS         X           Y           Z
   0 C     6.0000    0    12.011   -0.015065    0.001723    0.000803
   1 O     8.0000    0    15.999    2.245688   -0.298827   -0.142269
   2 H     1.0000    0     1.008   -0.912950    1.865664   -0.351929
   3 H     1.0000    0     1.008   -1.317689   -1.568687    0.493410

--------------------------------
INTERNAL COORDINATES (ANGSTROEM)
--------------------------------
 C      0   0   0     0.000000000000     0.00000000     0.00000000
 O      1   0   0     1.209237407113     0.00000000     0.00000000
 H      1   2   0     1.110628225019   121.97396606     0.00000000
 H      1   2   3     1.110727631128   122.02377857   180.02646640

---------------------------
INTERNAL COORDINATES (A.U.)
---------------------------
 C      0   0   0     0.000000000000     0.00000000     0.00000000
 O      1   0   0     2.285127530337     0.00000000     0.00000000
 H      1   2   0     2.098783181889   121.97396606     0.00000000
 H      1   2   3     2.098971032211   122.02377857   180.02646640

---------------------
BASIS SET INFORMATION
---------------------
There are 3 groups of distinct atoms

 Group   1 Type C   : 19s6p3d2f contracted to 5s4p3d2f pattern {88111/3111/111/11}
 Group   2 Type O   : 19s6p3d2f contracted to 5s4p3d2f pattern {88111/3111/111/11}
 Group   3 Type H   : 6s3p2d contracted to 4s3p2d pattern {3111/111/11}

Atom   0C    basis set group =>   1
Atom   1O    basis set group =>   2
Atom   2H    basis set group =>   3
Atom   3H    basis set group =>   3
---------------------------------
AUXILIARY/J BASIS SET INFORMATION
---------------------------------
There are 3 groups of distinct atoms

 Group   1 Type C   : 12s5p4d2f1g contracted to 6s4p3d1f1g pattern {711111/2111/211/2/1}
 Group   2 Type O   : 12s5p4d2f1g contracted to 6s4p3d1f1g pattern {711111/2111/211/2/1}
 Group   3 Type H   : 5s2p1d contracted to 3s1p1d pattern {311/2/1}

Atom   0C    basis set group =>   1
Atom   1O    basis set group =>   2
Atom   2H    basis set group =>   3
Atom   3H    basis set group =>   3


           ************************************************************
           *        Program running with 24 parallel MPI-processes    *
           *              working on a common directory               *
           ************************************************************
------------------------------------------------------------------------------
                           ORCA GTO INTEGRAL CALCULATION
                           -- RI-GTO INTEGRALS CHOSEN --
------------------------------------------------------------------------------

                         BASIS SET STATISTICS AND STARTUP INFO

Gaussian basis set:
 # of primitive gaussian shells          ...   82
 # of primitive gaussian functions       ...  182
 # of contracted shells                  ...   46
 # of contracted basis functions         ...  138
 Highest angular momentum                ...    3
 Maximum contraction depth               ...    8
Auxiliary gaussian basis set:
 # of primitive gaussian shells          ...   64
 # of primitive gaussian functions       ...  172
 # of contracted shells                  ...   40
 # of contracted aux-basis functions     ...  120
 Highest angular momentum                ...    4
 Maximum contraction depth               ...    7
Ratio of auxiliary to basis functions    ...  0.87
Integral package used                  ... LIBINT
 One Electron integrals                  ... done
[...]
      f+3     :     0.000419
      f-3     :     0.001346
  2 H s       :     0.760842  s :     0.760842
      pz      :     0.007495  p :     0.014343
      px      :     0.001065
      py      :     0.005784
      dz2     :    -0.001132  d :     0.001120
      dxz     :     0.001656
      dyz     :     0.000883
      dx2y2   :     0.001677
      dxy     :    -0.001964
  3 H s       :     0.751059  s :     0.751059
      pz      :     0.007312  p :     0.014173
      px      :    -0.001492
      py      :     0.008353
      dz2     :    -0.000232  d :     0.003198
      dxz     :     0.001875
      dyz     :     0.000078
      dx2y2   :     0.001468
      dxy     :     0.000010


                     *******************************
                     * LOEWDIN POPULATION ANALYSIS *
                     *******************************

----------------------
LOEWDIN ATOMIC CHARGES
----------------------
   0 C :    0.049946
   1 O :    0.423792
   2 H :   -0.236387
   3 H :   -0.237350

-------------------------------
LOEWDIN REDUCED ORBITAL CHARGES
-------------------------------
  0 C s       :     2.609469  s :     2.609469
      pz      :     0.532915  p :     2.254022
      px      :     0.869433
      py      :     0.851674
      dz2     :     0.061444  d :     0.778287
      dxz     :     0.112651
      dyz     :     0.007237
      dx2y2   :     0.200887
      dxy     :     0.396068
      f0      :     0.022865  f :     0.308276
      f+1     :     0.037610
      f-1     :     0.007967
      f+2     :     0.045920
      f-2     :     0.005904
      f+3     :     0.083142
      f-3     :     0.104868
  1 O s       :     3.264405  s :     3.264405
      pz      :     1.106983  p :     4.014577
      px      :     1.442670
      py      :     1.464923
      dz2     :     0.026092  d :     0.222348
      dxz     :     0.032914
      dyz     :     0.000800
      dx2y2   :     0.062546
      dxy     :     0.099996
      f0      :     0.005494  f :     0.074878
      f+1     :     0.009907
      f-1     :     0.001902
      f+2     :     0.010064
      f-2     :     0.000882
      f+3     :     0.017442
      f-3     :     0.029187
  2 H s       :     0.738394  s :     0.738394
      pz      :     0.057757  p :     0.300121
      px      :     0.082719
      py      :     0.159644
      dz2     :     0.024284  d :     0.197872
      dxz     :     0.019712
      dyz     :     0.035692
      dx2y2   :     0.064594
      dxy     :     0.053590
  3 H s       :     0.738989  s :     0.738989
      pz      :     0.060311  p :     0.300316
      px      :     0.102306
      py      :     0.137699
      dz2     :     0.026112  d :     0.198046
      dxz     :     0.032067
      dyz     :     0.024161
      dx2y2   :     0.072907
      dxy     :     0.042799


                      *****************************
                      * MAYER POPULATION ANALYSIS *
                      *****************************

  NA   - Mulliken gross atomic population
  ZA   - Total nuclear charge
  QA   - Mulliken gross atomic charge
  VA   - Mayer's total valence
  BVA  - Mayer's bonded valence
  FA   - Mayer's free valence

  ATOM       NA         ZA         QA         VA         BVA        FA
  0 C      6.0552     6.0000    -0.0552     3.6299     3.6299    -0.0000
  1 O      8.4001     8.0000    -0.4001     1.9252     1.9252    -0.0000
  2 H      0.7763     1.0000     0.2237     0.9038     0.9038    -0.0000
  3 H      0.7684     1.0000     0.2316     0.8864     0.8864    -0.0000

  Mayer bond orders larger than 0.100000
B(  0-C ,  1-O ) :   1.9017 B(  0-C ,  2-H ) :   0.8730 B(  0-C ,  3-H ) :   0.8552 


-------
TIMINGS
-------

Total SCF time: 0 days 0 hours 0 min 0 sec 

Total time                  ....       0.739 sec
Sum of individual times     ....       0.596 sec  ( 80.7%)

Fock matrix formation       ....       0.480 sec  ( 65.0%)
  Split-RI-J                ....       0.322 sec  ( 67.1% of F)
  XC integration            ....       0.072 sec  ( 15.0% of F)
    Basis function eval.    ....       0.007 sec  (  9.5% of XC)
    Density eval.           ....       0.012 sec  ( 16.2% of XC)
    XC-Functional eval.     ....       0.004 sec  (  5.5% of XC)
    XC-Potential eval.      ....       0.028 sec  ( 39.4% of XC)
Diagonalization             ....       0.003 sec  (  0.4%)
Density matrix formation    ....       0.002 sec  (  0.2%)
Population analysis         ....       0.004 sec  (  0.5%)
Initial guess               ....       0.010 sec  (  1.3%)
Orbital Transformation      ....       0.000 sec  (  0.0%)
Orbital Orthonormalization  ....       0.006 sec  (  0.9%)
DIIS solution               ....       0.000 sec  (  0.0%)
SOSCF solution              ....       0.004 sec  (  0.6%)
Grid generation             ....       0.093 sec  ( 12.6%)


-------------------------------------------------------------------------------
                          DFT DISPERSION CORRECTION                            
                                                                               
                              DFTD3 V3.1  Rev 1                                
                          USING Becke-Johnson damping                          
-------------------------------------------------------------------------------
The TPSS functional is recognized
Active option DFTDOPT                   ...         4   

molecular C6(AA) [au] = 146.477009 


            DFT-D V3
 parameters
 s6 scaling factor         :     1.0000 
 a1 scaling factor         :     0.4535 
 s8 scaling factor         :     1.9435 
 a2 scaling factor         :     4.4752 
 ad hoc parameters k1-k3   :    16.0000     1.3333    -4.0000 

 Edisp/kcal,au: -0.824775880988  -0.001314363889 
 E6   /kcal   :  -0.437782400 
 E8   /kcal   :  -0.386993481 
 % E8         :  46.921047312 

-------------------------   ----------------
Dispersion correction           -0.001314364
-------------------------   ----------------


-------------------------   --------------------
FINAL SINGLE POINT ENERGY      -114.566762712298
-------------------------   --------------------

                                *** OPTIMIZATION RUN DONE ***

                            ***************************************
                            *     ORCA property calculations      *
                            ***************************************

                                    ---------------------
                                    Active property flags
                                    ---------------------
   (+) Dipole Moment


------------------------------------------------------------------------------
                       ORCA ELECTRIC PROPERTIES CALCULATION
------------------------------------------------------------------------------

Dipole Moment Calculation                       ... on
Quadrupole Moment Calculation                   ... off
Polarizability Calculation                      ... off
GBWName                                         ... 15_H2CO.gbw
Electron density file                           ... 15_H2CO.scfp
The origin for moment calculation is the CENTER OF MASS  = ( 1.115677, -0.148567 -0.070736)

-------------
DIPOLE MOMENT
-------------
                                X             Y             Z
Electronic contribution:      1.31625      -0.17472      -0.08348
Nuclear contribution   :     -2.20636       0.29378       0.13992
                        -----------------------------------------
Total Dipole Moment    :     -0.89012       0.11906       0.05644
                        -----------------------------------------
Magnitude (a.u.)       :      0.89982
Magnitude (Debye)      :      2.28715



--------------------
Rotational spectrum 
--------------------
 
Rotational constants in cm-1:     9.424938     1.285908     1.131526 
Rotational constants in MHz : 282552.545773 38550.549222 33922.301257 

 Dipole components along the rotational axes: 
x,y,z [a.u.] :    -0.899817    -0.000701     0.000233 
x,y,z [Debye]:    -2.287153    -0.001781     0.000592 

 

----------------------------------------------------------------------------
                           ORCA NUMERICAL FREQUENCIES
                              (24-process run)
----------------------------------------------------------------------------

Number of atoms                ... 4
Central differences            ... used
Number of displacements        ... 24
Numerical increment            ... 5.000e-03 bohr
IR-spectrum generation         ... on
Raman-spectrum generation      ... off
Surface Crossing Hessian       ... off

 WARNING: There are more processes than displacements to do
  ====> : Reducing number of processes to  12

The output will be reduced. Please look at the following files:
SCF program output             ... >15_H2CO.lastscf
Integral program output        ... >15_H2CO.lastint
Gradient program output        ... >15_H2CO.lastgrad
Dipole moment program output   ... >15_H2CO.lastmom
AutoCI program output          ... >15_H2CO.lastautoci


         <<< Energy and Gradient at the input geometry >>>

        <<< Energy and Gradient at displaced geometries >>>
             <<<Displacing   2/coordinate 2 (+)>>>
             <<<Displacing   2/coordinate 1 (+)>>>
             <<<Displacing   1/coordinate 1 (+)>>>
             <<<Displacing   1/coordinate 3 (+)>>>
             <<<Displacing   1/coordinate 2 (+)>>>
             <<<Displacing   2/coordinate 3 (+)>>>
             <<<Displacing   4/coordinate 2 (+)>>>
             <<<Displacing   4/coordinate 3 (+)>>>
             <<<Displacing   3/coordinate 1 (+)>>>
             <<<Displacing   3/coordinate 2 (+)>>>
             <<<Displacing   3/coordinate 3 (+)>>>
             <<<Displacing   4/coordinate 1 (+)>>>
             <<<Displacing   4/coordinate 2 (-)>>>
             <<<Displacing   4/coordinate 1 (-)>>>
             <<<Displacing   1/coordinate 2 (-)>>>
             <<<Displacing   4/coordinate 3 (-)>>>
             <<<Displacing   2/coordinate 2 (-)>>>
             <<<Displacing   3/coordinate 1 (-)>>>
             <<<Displacing   3/coordinate 3 (-)>>>
             <<<Displacing   3/coordinate 2 (-)>>>
             <<<Displacing   1/coordinate 3 (-)>>>
             <<<Displacing   2/coordinate 3 (-)>>>
             <<<Displacing   2/coordinate 1 (-)>>>
             <<<Displacing   1/coordinate 1 (-)>>>

-----------------------
VIBRATIONAL FREQUENCIES
-----------------------

Scaling factor for frequencies =  1.000000000 (already applied!)

   0:         0.00 cm**-1
   1:         0.00 cm**-1
   2:         0.00 cm**-1
   3:         0.00 cm**-1
   4:         0.00 cm**-1
   5:         0.00 cm**-1
   6:      1174.30 cm**-1
   7:      1243.24 cm**-1
   8:      1516.32 cm**-1
   9:      1762.61 cm**-1
  10:      2840.19 cm**-1
  11:      2885.08 cm**-1


------------
NORMAL MODES
------------

These modes are the cartesian displacements weighted by the diagonal matrix
M(i,i)=1/sqrt(m[i]) where m[i] is the mass of the displaced atom
Thus, these vectors are normalized but *not* orthogonal

                  0          1          2          3          4          5    
      0       0.000000   0.000000   0.000000   0.000000   0.000000   0.000000
      1       0.000000   0.000000   0.000000   0.000000   0.000000   0.000000
      2       0.000000   0.000000   0.000000   0.000000   0.000000   0.000000
      3       0.000000   0.000000   0.000000   0.000000   0.000000   0.000000
      4       0.000000   0.000000   0.000000   0.000000   0.000000   0.000000
      5       0.000000   0.000000   0.000000   0.000000   0.000000   0.000000
      6       0.000000   0.000000   0.000000   0.000000   0.000000   0.000000
      7       0.000000   0.000000   0.000000   0.000000   0.000000   0.000000
      8       0.000000   0.000000   0.000000   0.000000   0.000000   0.000000
      9       0.000000   0.000000   0.000000   0.000000   0.000000   0.000000
     10       0.000000   0.000000   0.000000   0.000000   0.000000   0.000000
     11       0.000000   0.000000   0.000000   0.000000   0.000000   0.000000
                  6          7          8          9         10         11    
      0      -0.016476  -0.016743   0.015138  -0.549952  -0.055087   0.010283
      1      -0.041993  -0.141335  -0.001925   0.073583   0.005378   0.098273
      2      -0.167638   0.037816  -0.000688   0.035154   0.003954  -0.024133
      3       0.004091   0.009117  -0.088043   0.378673  -0.002173  -0.000077
      4       0.011029   0.076190   0.011699  -0.050586   0.000286  -0.000734
      5       0.041031  -0.019509   0.005512  -0.024016   0.000141   0.000196
      6       0.076688   0.671540   0.647546   0.319768   0.268154   0.300952
      7       0.162010   0.151491   0.249216   0.391321  -0.625873  -0.640923
      8       0.672097  -0.111117  -0.121016  -0.124067   0.121650   0.122294
      9       0.054704  -0.616735   0.569499   0.222978   0.422742  -0.422251
     10       0.163322   0.323311  -0.411956  -0.465208   0.557261  -0.518415
     11       0.674190  -0.029843   0.041738   0.086368  -0.171008   0.162152


-----------
IR SPECTRUM  
-----------

 Mode    freq (cm**-1)   T**2         TX         TY         TZ
-------------------------------------------------------------------
   6:      1174.30    6.236652  (  0.196203   0.448516   2.448875)
   7:      1243.24   10.441680  ( -0.440668  -3.119839   0.717003)
   8:      1516.32   11.192862  (  3.291142  -0.554891  -0.230964)
   9:      1762.61  101.986005  ( -9.995509   1.304931   0.610711)
  10:      2840.19   79.448770  ( -8.823232   1.112214   0.601931)
  11:      2885.08  131.949852  (  0.994773  11.120805  -2.699624)

The first frequency considered to be a vibration is 6
The total number of vibrations considered is 6


--------------------------
THERMOCHEMISTRY AT 298.15K
--------------------------

Temperature         ... 298.15 K
Pressure            ... 1.00 atm
Total Mass          ... 30.03 AMU

Throughout the following assumptions are being made:
  (1) The electronic state is orbitally nondegenerate
  (2) There are no thermally accessible electronically excited states
  (3) Hindered rotations indicated by low frequency modes are not
      treated as such but are treated as vibrations and this may
      cause some error
  (4) All equations used are the standard statistical mechanics
      equations for an ideal gas
  (5) All vibrations are strictly harmonic

freq.    1174.30  E(vib)   ...       0.01 
freq.    1243.24  E(vib)   ...       0.01 
freq.    1516.32  E(vib)   ...       0.00 
freq.    1762.61  E(vib)   ...       0.00 
freq.    2840.19  E(vib)   ...       0.00 
freq.    2885.08  E(vib)   ...       0.00 

------------
INNER ENERGY
------------

The inner energy is: U= E(el) + E(ZPE) + E(vib) + E(rot) + E(trans)
    E(el)   - is the total energy from the electronic structure calculation
              = E(kin-el) + E(nuc-el) + E(el-el) + E(nuc-nuc)
    E(ZPE)  - the the zero temperature vibrational energy from the frequency calculation
    E(vib)  - the the finite temperature correction to E(ZPE) due to population
              of excited vibrational states
    E(rot)  - is the rotational thermal energy
    E(trans)- is the translational thermal energy

Summary of contributions to the inner energy U:
Electronic energy                ...   -114.56676271 Eh
Zero point energy                ...      0.02602064 Eh      16.33 kcal/mol
Thermal vibrational correction   ...      0.00003890 Eh       0.02 kcal/mol
Thermal rotational correction    ...      0.00141627 Eh       0.89 kcal/mol
Thermal translational correction ...      0.00141627 Eh       0.89 kcal/mol
-----------------------------------------------------------------------
Total thermal energy                   -114.53787063 Eh


Summary of corrections to the electronic energy:
(perhaps to be used in another calculation)
Total thermal correction                  0.00287145 Eh       1.80 kcal/mol
Non-thermal (ZPE) correction              0.02602064 Eh      16.33 kcal/mol
-----------------------------------------------------------------------
Total correction                          0.02889208 Eh      18.13 kcal/mol


--------
ENTHALPY
--------

The enthalpy is H = U + kB*T
                kB is Boltzmann's constant
Total free energy                 ...   -114.53787063 Eh 
Thermal Enthalpy correction       ...      0.00094421 Eh       0.59 kcal/mol
-----------------------------------------------------------------------
Total Enthalpy                    ...   -114.53692642 Eh


Note: Only C1 symmetry has been detected, increase convergence thresholds 
      if your molecule has a higher symmetry. Symmetry factor of 1.0 is   
      used for the rotational entropy correction. 
 

Note: Rotational entropy computed according to Herzberg 
Infrared and Raman Spectra, Chapter V,1, Van Nostrand Reinhold, 1945 
Point Group:  C1, Symmetry Number:   1  
Rotational constants in cm-1:     9.424938     1.285908     1.131526 

Vibrational entropy computed according to the QRRHO of S. Grimme
Chem.Eur.J. 2012 18 9955


-------
ENTROPY
-------

The entropy contributions are T*S = T*(S(el)+S(vib)+S(rot)+S(trans))
     S(el)   - electronic entropy
     S(vib)  - vibrational entropy
     S(rot)  - rotational entropy
     S(trans)- translational entropy
The entropies will be listed as mutliplied by the temperature to get
units of energy

Electronic entropy                ...      0.00000000 Eh      0.00 kcal/mol
Vibrational entropy               ...      0.00004535 Eh      0.03 kcal/mol
Rotational entropy                ...      0.00827469 Eh      5.19 kcal/mol
Translational entropy             ...      0.01716732 Eh     10.77 kcal/mol
-----------------------------------------------------------------------
Final entropy term                ...      0.02548736 Eh     15.99 kcal/mol

In case the symmetry of your molecule has not been determined correctly
or in case you have a reason to use a different symmetry number we print 
out the resulting rotational entropy values for sn=1,12 :
 --------------------------------------------------------
|  sn= 1 | S(rot)=       0.00827469 Eh      5.19 kcal/mol|
|  sn= 2 | S(rot)=       0.00762024 Eh      4.78 kcal/mol|
|  sn= 3 | S(rot)=       0.00723740 Eh      4.54 kcal/mol|
|  sn= 4 | S(rot)=       0.00696578 Eh      4.37 kcal/mol|
|  sn= 5 | S(rot)=       0.00675509 Eh      4.24 kcal/mol|
|  sn= 6 | S(rot)=       0.00658295 Eh      4.13 kcal/mol|
|  sn= 7 | S(rot)=       0.00643740 Eh      4.04 kcal/mol|
|  sn= 8 | S(rot)=       0.00631132 Eh      3.96 kcal/mol|
|  sn= 9 | S(rot)=       0.00620011 Eh      3.89 kcal/mol|
|  sn=10 | S(rot)=       0.00610064 Eh      3.83 kcal/mol|
|  sn=11 | S(rot)=       0.00601065 Eh      3.77 kcal/mol|
|  sn=12 | S(rot)=       0.00592849 Eh      3.72 kcal/mol|
 --------------------------------------------------------


-------------------
GIBBS FREE ENERGY
-------------------

The Gibbs free energy is G = H - T*S

Total enthalpy                    ...   -114.53692642 Eh 
Total entropy correction          ...     -0.02548736 Eh    -15.99 kcal/mol
-----------------------------------------------------------------------
Final Gibbs free energy         ...   -114.56241378 Eh

For completeness - the Gibbs free energy minus the electronic energy
G-E(el)                           ...      0.00434893 Eh      2.73 kcal/mol


Total Time for Numerical Frequencies  :        17.456 sec

Timings for individual modules:

Sum of individual times         ...       12.862 sec (=   0.214 min)
GTO integral calculation        ...        2.671 sec (=   0.045 min)  20.8 %
SCF iterations                  ...        6.860 sec (=   0.114 min)  53.3 %
SCF Gradient evaluation         ...        3.217 sec (=   0.054 min)  25.0 %
Geometry relaxation             ...        0.115 sec (=   0.002 min)   0.9 %
                             ****ORCA TERMINATED NORMALLY****
TOTAL RUN TIME: 0 days 0 hours 0 minutes 28 seconds 548 msec
