
                                 *****************
                                 * O   R   C   A *
                                 *****************

           --- An Ab Initio, DFT and Semiempirical electronic structure package ---

                  #######################################################
                  #                        -***-                        #
                  #          Department of theory and spectroscopy      #
                  #               Directorship: Frank Neese             #
                  #        Max Planck Institute fuer Kohlenforschung    #
                  #                Kaiser Wilhelm Platz 1               #
                  #                 D-45470 Muelheim/Ruhr               #
                  #                      Germany                        #
                  #                                                     #
                  #                  All rights reserved                #
                  #                        -***-                        #
                  #######################################################


                         Program Version 4.2.0 -  RELEASE  -


 With contributions from (in alphabetic order):
   Daniel Aravena         : Magnetic Suceptibility
   Michael Atanasov       : Ab Initio Ligand Field Theory (pilot matlab implementation)
   Alexander A. Auer      : GIAO ZORA, VPT2
   Ute Becker             : Parallelization
   Giovanni Bistoni       : ED, misc. LED, open-shell LED, HFLED
   Martin Brehm           : Molecular dynamics
   Dmytro Bykov           : SCF Hessian
   Vijay G. Chilkuri      : MRCI spin determinant printing, contributions to CSF-ICE
   Dipayan Datta          : RHF DLPNO-CCSD density
   Achintya Kumar Dutta   : EOM-CC, STEOM-CC
   Dmitry Ganyushin       : Spin-Orbit,Spin-Spin,Magnetic field MRCI
   Miquel Garcia          : C-PCM Hessian, Gaussian charge scheme
   Yang Guo               : DLPNO-NEVPT2, CIM, IAO-localization
   Andreas Hansen         : Spin unrestricted coupled pair/coupled cluster methods
   Benjamin Helmich-Paris : CASSCF linear response (MC-RPA)
   Lee Huntington         : MR-EOM, pCC
   Robert Izsak           : Overlap fitted RIJCOSX, COSX-SCS-MP3, EOM
   Christian Kollmar      : KDIIS, OOCD, Brueckner-CCSD(T), CCSD density
   Simone Kossmann        : Meta GGA functionals, TD-DFT gradient, OOMP2, MP2 Hessian
   Martin Krupicka        : AUTO-CI
   Lucas Lang             : DCDCAS
   Dagmar Lenk            : GEPOL surface, SMD
   Dimitrios Liakos       : Extrapolation schemes; Compound Job, initial MDCI parallelization
   Dimitrios Manganas     : Further ROCIS development; embedding schemes
   Dimitrios Pantazis     : SARC Basis sets
   Taras Petrenko         : DFT Hessian,TD-DFT gradient, ASA, ECA, R-Raman, ABS, FL, XAS/XES, NRVS
   Peter Pinski           : DLPNO-MP2, DLPNO-MP2 Gradient
   Christoph Reimann      : Effective Core Potentials
   Marius Retegan         : Local ZFS, SOC
   Christoph Riplinger    : Optimizer, TS searches, QM/MM, DLPNO-CCSD(T), (RO)-DLPNO pert. Triples
   Tobias Risthaus        : Range-separated hybrids, TD-DFT gradient, RPA, STAB
   Michael Roemelt        : Original ROCIS implementation
   Masaaki Saitow         : Open-shell DLPNO-CCSD energy and density
   Barbara Sandhoefer     : DKH picture change effects
   Avijit Sen             : IP-ROCIS
   Kantharuban Sivalingam : CASSCF convergence, NEVPT2, FIC-MRCI
   Bernardo de Souza      : ESD, SOC TD-DFT
   Georgi Stoychev        : AutoAux, RI-MP2 NMR
   Willem Van den Heuvel  : Paramagnetic NMR
   Boris Wezisla          : Elementary symmetry handling
   Frank Wennmohs         : Technical directorship


 We gratefully acknowledge several colleagues who have allowed us to
 interface, adapt or use parts of their codes:
   Stefan Grimme, W. Hujo, H. Kruse,             : VdW corrections, initial TS optimization,
                  C. Bannwarth                     DFT functionals, gCP, sTDA/sTD-DF
   Ed Valeev, F. Pavosevic, A. Kumar             : LibInt (2-el integral package), F12 methods
   Garnet Chan, S. Sharma, J. Yang, R. Olivares  : DMRG
   Ulf Ekstrom                                   : XCFun DFT Library
   Mihaly Kallay                                 : mrcc  (arbitrary order and MRCC methods)
   Andreas Klamt, Michael Diedenhofen            : otool_cosmo (COSMO solvation model)
   Jiri Pittner, Ondrej Demel                    : Mk-CCSD
   Frank Weinhold                                : gennbo (NPA and NBO analysis)
   Christopher J. Cramer and Donald G. Truhlar   : smd solvation model
   Lars Goerigk                                  : TD-DFT with DH, B97 family of functionals
   V. Asgeirsson, H. Jonsson                     : NEB implementation
   FAccTs GmbH                                   : IRC, NEB, NEB-TS, Multilevel, MM, QM/MM, CI optimization
   S Lehtola, MJT Oliveira, MAL Marques          : LibXC Library


 Your calculation uses the libint2 library for the computation of 2-el integrals
 For citations please refer to: http://libint.valeyev.net

 Your ORCA version has been built with support for libXC version: 4.2.3
 For citations please refer to: https://tddft.org/programs/libxc/

 This ORCA versions uses:
   CBLAS   interface :  Fast vector & matrix operations
   LAPACKE interface :  Fast linear algebra routines
   SCALAPACK package :  Parallel linear algebra routines


Your calculation utilizes the atom-pairwise dispersion correction
with the Becke-Johnson damping scheme (D3BJ)
Cite in your paper:
S.Grimme, S.Ehrlich, L.Goerigk, J Comput Chem, (2011), 32, 1456–1465 
S.Grimme, J.Antony, S.Ehrlich and H.Krieg, J.Chem.Phys., 132, (2010), 154104 
   

----- Orbital basis set information -----
Your calculation utilizes the basis: aug-cc-pV(T+d)Z 
             Al - Ar: T.H. Dunning, Jr., K. A. Peterson and A. K. Wilson, J. Chem. Phys.
                      114, 9244 (2001)

----- AuxJ basis set information -----
Your calculation utilizes the auxiliary basis: def2/J
   F. Weigend, Phys. Chem. Chem. Phys. 8, 1057 (2006).

================================================================================
                                        WARNINGS
                       Please study these warnings very carefully!
================================================================================


WARNING: Geometry Optimization
  ===> : Switching off AutoStart
         For restart on a previous wavefunction, please use MOREAD

INFO   : the flag for use of LIBINT has been found!

================================================================================
                                       INPUT FILE
================================================================================
NAME = 17_H2O.in
|  1> #
|  2> # 17_H2O tpss/aug-cc-pvt(+d)z
|  3> #
|  4> ! tpss d3bj aug-cc-pvt(+d)z def2/j opt xyzfile numfreq
|  5> 
|  6> *xyz 0 1
|  7> O            0.004834854          0.003524701         -0.002982157
|  8> H            0.274272539          0.890632971          0.255471383
|  9> H            0.605092602         -0.239557672         -0.714989224
| 10> *
| 11> 
| 12> %pal
| 13> nprocs 24
| 14> end
| 15> 
| 16> 
| 17>                          ****END OF INPUT****
================================================================================

                       *****************************
                       * Geometry Optimization Run *
                       *****************************

Geometry optimization settings:
Update method            Update   .... BFGS
Choice of coordinates    CoordSys .... Z-matrix Internals
Initial Hessian          InHess   .... Almoef's Model

Convergence Tolerances:
Energy Change            TolE     ....  5.0000e-06 Eh
Max. Gradient            TolMAXG  ....  3.0000e-04 Eh/bohr
RMS Gradient             TolRMSG  ....  1.0000e-04 Eh/bohr
Max. Displacement        TolMAXD  ....  4.0000e-03 bohr
RMS Displacement         TolRMSD  ....  2.0000e-03 bohr
Strict Convergence                ....  False
------------------------------------------------------------------------------
                        ORCA OPTIMIZATION COORDINATE SETUP
------------------------------------------------------------------------------

The optimization will be done in new redundant internal coordinates
Making redundant internal coordinates   ...  (new redundants) done
Evaluating the initial hessian          ...  (Almloef) done
Evaluating the coordinates              ...  done
Calculating the B-matrix                .... done
Calculating the G-matrix                .... done
Diagonalizing the G-matrix              .... done
The first mode is                       ....    0
The number of degrees of freedom        ....    3

    -----------------------------------------------------------------
                    Redundant Internal Coordinates


    -----------------------------------------------------------------
         Definition                    Initial Value    Approx d2E/dq
    -----------------------------------------------------------------
      1. B(H   1,O   0)                  0.9625         0.515252   
      2. B(H   2,O   0)                  0.9625         0.515256   
      3. A(H   1,O   0,H   2)          104.8829         0.320878   
    -----------------------------------------------------------------

Number of atoms                         .... 3
Number of degrees of freedom            .... 3

         *************************************************************
         *                GEOMETRY OPTIMIZATION CYCLE   1            *
         *************************************************************
---------------------------------
CARTESIAN COORDINATES (ANGSTROEM)
---------------------------------
  O      0.004835    0.003525   -0.002982
  H      0.274273    0.890633    0.255471
  H      0.605093   -0.239558   -0.714989

----------------------------
CARTESIAN COORDINATES (A.U.)
----------------------------
  NO LB      ZA    FRAG     MASS         X           Y           Z
   0 O     8.0000    0    15.999    0.009137    0.006661   -0.005635
   1 H     1.0000    0     1.008    0.518300    1.683052    0.482771
   2 H     1.0000    0     1.008    1.143459   -0.452698   -1.351134

--------------------------------
INTERNAL COORDINATES (ANGSTROEM)
--------------------------------
 O      0   0   0     0.000000000000     0.00000000     0.00000000
 H      1   0   0     0.962473885952     0.00000000     0.00000000
 H      1   2   0     0.962472060662   104.88291340     0.00000000

---------------------------
INTERNAL COORDINATES (A.U.)
---------------------------
 O      0   0   0     0.000000000000     0.00000000     0.00000000
 H      1   0   0     1.818812055500     0.00000000     0.00000000
 H      1   2   0     1.818808606202   104.88291340     0.00000000

---------------------
BASIS SET INFORMATION
---------------------
There are 2 groups of distinct atoms

 Group   1 Type O   : 19s6p3d2f contracted to 5s4p3d2f pattern {88111/3111/111/11}
 Group   2 Type H   : 6s3p2d contracted to 4s3p2d pattern {3111/111/11}

Atom   0O    basis set group =>   1
Atom   1H    basis set group =>   2
Atom   2H    basis set group =>   2
---------------------------------
AUXILIARY/J BASIS SET INFORMATION
---------------------------------
There are 2 groups of distinct atoms

 Group   1 Type O   : 12s5p4d2f1g contracted to 6s4p3d1f1g pattern {711111/2111/211/2/1}
 Group   2 Type H   : 5s2p1d contracted to 3s1p1d pattern {311/2/1}

Atom   0O    basis set group =>   1
Atom   1H    basis set group =>   2
Atom   2H    basis set group =>   2


           ************************************************************
           *        Program running with 24 parallel MPI-processes    *
           *              working on a common directory               *
           ************************************************************
------------------------------------------------------------------------------
                           ORCA GTO INTEGRAL CALCULATION
                           -- RI-GTO INTEGRALS CHOSEN --
------------------------------------------------------------------------------

                         BASIS SET STATISTICS AND STARTUP INFO

Gaussian basis set:
 # of primitive gaussian shells          ...   52
 # of primitive gaussian functions       ...  116
 # of contracted shells                  ...   32
 # of contracted basis functions         ...   92
 Highest angular momentum                ...    3
 Maximum contraction depth               ...    8
Auxiliary gaussian basis set:
 # of primitive gaussian shells          ...   40
 # of primitive gaussian functions       ...  102
 # of contracted shells                  ...   25
 # of contracted aux-basis functions     ...   71
 Highest angular momentum                ...    4
 Maximum contraction depth               ...    7
Ratio of auxiliary to basis functions    ...  0.77
Integral package used                  ... LIBINT
 One Electron integrals                  ... done
 Ordering auxiliary basis shells         ... done
 Integral threshhold             Thresh  ...  2.500e-11
 Primitive cut-off               TCut    ...  2.500e-12
 Pre-screening matrix                    ... done
 Shell pair data                         ... 
 Ordering of the shell pairs             ... done (   0.000 sec) 528 of 528 pairs
 Determination of significant pairs      ... done (   0.000 sec)
 Creation of shell pair data             ... done (   0.000 sec)
 Storage of shell pair data              ... done (   0.039 sec)
 Shell pair data done in (   0.040 sec)
 Computing two index integrals           ... done
 Cholesky decomposition of the V-matrix  ... done


Timings:
 Total evaluation time                   ...   0.163 sec (  0.003 min)
 One electron matrix time                ...   0.012 sec (  0.000 min) =  7.1%
 Schwartz matrix evaluation time         ...   0.091 sec (  0.002 min) = 55.7%
 Two index repulsion integral time       ...   0.000 sec (  0.000 min) =  0.2%
 Cholesky decomposition of V             ...   0.001 sec (  0.000 min) =  0.4%
 Three index repulsion integral time     ...   0.000 sec (  0.000 min) =  0.0%



           ************************************************************
           *        Program running with 24 parallel MPI-processes    *
           *              working on a common directory               *
           ************************************************************
-------------------------------------------------------------------------------
                                 ORCA SCF
-------------------------------------------------------------------------------

------------
SCF SETTINGS
------------
Hamiltonian:
 Density Functional     Method          .... DFT(GTOs)
 Exchange Functional    Exchange        .... TPSS
 Correlation Functional Correlation     .... TPSS
 LDA part of GGA corr.  LDAOpt          .... PW91-LDA
 Gradients option       PostSCFGGA      .... off
   Density functional embedding theory  .... OFF
   NL short-range parameter             ....  5.000000
 RI-approximation to the Coulomb term is turned on
   Number of auxiliary basis functions  .... 71


General Settings:
 Integral files         IntName         .... 17_H2O
 Hartree-Fock type      HFTyp           .... RHF
 Total Charge           Charge          ....    0
 Multiplicity           Mult            ....    1
 Number of Electrons    NEL             ....   10
 Basis Dimension        Dim             ....   92
 Nuclear Repulsion      ENuc            ....      9.1437412515 Eh

Convergence Acceleration:
 DIIS                   CNVDIIS         .... on
   Start iteration      DIISMaxIt       ....    12
   Startup error        DIISStart       ....  0.200000
   # of expansion vecs  DIISMaxEq       ....     5
   Bias factor          DIISBfac        ....   1.050
   Max. coefficient     DIISMaxC        ....  10.000
 Newton-Raphson         CNVNR           .... off
 SOSCF                  CNVSOSCF        .... on
   Start iteration      SOSCFMaxIt      ....   150
   Startup grad/error   SOSCFStart      ....  0.003300
 Level Shifting         CNVShift        .... on
   Level shift para.    LevelShift      ....    0.2500
   Turn off err/grad.   ShiftErr        ....    0.0010
 Zerner damping         CNVZerner       .... off
 Static damping         CNVDamp         .... on
   Fraction old density DampFac         ....    0.7000
   Max. Damping (<1)    DampMax         ....    0.9800
   Min. Damping (>=0)   DampMin         ....    0.0000
   Turn off err/grad.   DampErr         ....    0.1000
 Fernandez-Rico         CNVRico         .... off

SCF Procedure:
 Maximum # iterations   MaxIter         ....   125
 SCF integral mode      SCFMode         .... Direct
   Integral package                     .... LIBINT
 Reset frequency        DirectResetFreq ....    20
 Integral Threshold     Thresh          ....  2.500e-11 Eh
 Primitive CutOff       TCut            ....  2.500e-12 Eh

Convergence Tolerance:
 Convergence Check Mode ConvCheckMode   .... Total+1el-Energy
 Convergence forced     ConvForced      .... 0
 Energy Change          TolE            ....  1.000e-08 Eh
 1-El. energy change                    ....  1.000e-05 Eh
 Orbital Gradient       TolG            ....  1.000e-05
 Orbital Rotation angle TolX            ....  1.000e-05
 DIIS Error             TolErr          ....  5.000e-07


Diagonalization of the overlap matrix:
Smallest eigenvalue                        ... 3.884e-04
Time for diagonalization                   ...    0.003 sec
Threshold for overlap eigenvalues          ... 1.000e-08
Number of eigenvalues below threshold      ... 0
Time for construction of square roots      ...    0.001 sec
Total time needed                          ...    0.005 sec

-------------------
DFT GRID GENERATION
-------------------

General Integration Accuracy     IntAcc      ...  4.340
Radial Grid Type                 RadialGrid  ... Gauss-Chebyshev
Angular Grid (max. acc.)         AngularGrid ... Lebedev-110
Angular grid pruning method      GridPruning ... 3 (G Style)
Weight generation scheme         WeightScheme... Becke
Basis function cutoff            BFCut       ...    1.0000e-11
Integration weight cutoff        WCut        ...    1.0000e-14
Grids for H and He will be reduced by one unit

# of grid points (after initial pruning)     ...   3304 (   0.0 sec)
# of grid points (after weights+screening)   ...   3278 (   0.0 sec)
nearest neighbour list constructed           ...    0.0 sec
Grid point re-assignment to atoms done       ...    0.0 sec
Grid point division into batches done        ...    0.0 sec
Reduced shell lists constructed in    0.0 sec

Total number of grid points                  ...     3278
Total number of batches                      ...       53
Average number of points per batch           ...       61
Average number of grid points per atom       ...     1093
Average number of shells per batch           ...    19.50 (60.94%)
Average number of basis functions per batch  ...    54.50 (59.24%)
Average number of large shells per batch     ...    17.00 (87.18%)
Average number of large basis fcns per batch ...    48.50 (88.99%)
Maximum spatial batch extension              ...  19.79, 15.12, 19.96 au
Average spatial batch extension              ...   0.86,  0.68,  0.90 au

Time for grid setup =    0.014 sec

------------------------------
INITIAL GUESS: MODEL POTENTIAL
------------------------------
Loading Hartree-Fock densities                     ... done
Calculating cut-offs                               ... done
Setting up the integral package                    ... done
Initializing the effective Hamiltonian             ... done
Starting the Coulomb interaction                   ... done (   0.0 sec)
Reading the grid                                   ... done
Mapping shells                                     ... done
Starting the XC term evaluation                    ... done (   0.0 sec)
  promolecular density results
     # of electrons  =      9.997650995
     EX              =     -8.729086914
     EC              =     -0.316112772
     EX+EC           =     -9.045199685
Transforming the Hamiltonian                       ... done (   0.0 sec)
Diagonalizing the Hamiltonian                      ... done (   0.0 sec)
Back transforming the eigenvectors                 ... done (   0.0 sec)
Now organizing SCF variables                       ... done
                      ------------------
                      INITIAL GUESS DONE (   0.1 sec)
                      ------------------
--------------
SCF ITERATIONS
--------------
ITER       Energy         Delta-E        Max-DP      RMS-DP      [F,P]     Damp
               ***  Starting incremental Fock matrix formation  ***
  0    -76.3749596200   0.000000000000 0.06434605  0.00200996  0.3320656 0.7000
  1    -76.4236212260  -0.048661606029 0.03294045  0.00111782  0.1060435 0.7000
                               ***Turning on DIIS***
  2    -76.4356628623  -0.012041636290 0.04653479  0.00125738  0.0264464 0.0000
  3    -76.4633924571  -0.027729594843 0.01025934  0.00050481  0.0604746 0.0000
  4    -76.4670068659  -0.003614408768 0.00219834  0.00012649  0.0077494 0.0000
                      *** Initiating the SOSCF procedure ***
                           *** Shutting down DIIS ***
                      *** Re-Reading the Fockian *** 
                      *** Removing any level shift *** 
ITER      Energy       Delta-E        Grad      Rot      Max-DP    RMS-DP
  5    -76.46715777  -0.0001509044  0.000963  0.000963  0.001033  0.000047
               *** Restarting incremental Fock matrix formation ***
  6    -76.46716787  -0.0000100960  0.000418  0.001159  0.000678  0.000035
  7    -76.46716849  -0.0000006276  0.000312  0.000236  0.000499  0.000019
  8    -76.46716920  -0.0000007066  0.000143  0.000218  0.000325  0.000013
  9    -76.46716939  -0.0000001918  0.000020  0.000046  0.000034  0.000002
 10    -76.46716940  -0.0000000067  0.000006  0.000004  0.000008  0.000000
                  ***Gradient check signals convergence***
              ***Rediagonalizing the Fockian in SOSCF/NRSCF***

               *****************************************************
               *                     SUCCESS                       *
               *           SCF CONVERGED AFTER  11 CYCLES          *
               *****************************************************

Setting up the final grid:

General Integration Accuracy     IntAcc      ...  4.670
Radial Grid Type                 RadialGrid  ... Gauss-Chebyshev
Angular Grid (max. acc.)         AngularGrid ... Lebedev-302
Angular grid pruning method      GridPruning ... 3 (G Style)
Weight generation scheme         WeightScheme... Becke
Basis function cutoff            BFCut       ...    1.0000e-11
Integration weight cutoff        WCut        ...    1.0000e-14
Grids for H and He will be reduced by one unit

# of grid points (after initial pruning)     ...  13000 (   0.0 sec)
# of grid points (after weights+screening)   ...  12903 (   0.0 sec)
nearest neighbour list constructed           ...    0.0 sec
Grid point re-assignment to atoms done       ...    0.0 sec
Grid point division into batches done        ...    0.0 sec
Reduced shell lists constructed in    0.0 sec

Total number of grid points                  ...    12903
Total number of batches                      ...      204
Average number of points per batch           ...       63
Average number of grid points per atom       ...     4301
Average number of shells per batch           ...    15.70 (49.06%)
Average number of basis functions per batch  ...    41.10 (44.67%)
Average number of large shells per batch     ...    12.50 (79.62%)
Average number of large basis fcns per batch ...    31.90 (77.62%)
Maximum spatial batch extension              ...  16.88, 14.34, 16.41 au
Average spatial batch extension              ...   0.47,  0.44,  0.49 au

Final grid set up in    0.0 sec
Final integration                            ... done (   0.0 sec)
Change in XC energy                          ...     0.000332730
Integrated number of electrons               ...     9.999993082
Previous integrated no of electrons          ...     9.999523651

----------------
TOTAL SCF ENERGY
----------------

Total Energy       :          -76.46683667 Eh           -2080.76841 eV

Components:
Nuclear Repulsion  :            9.14374125 Eh             248.81385 eV
Electronic Energy  :          -85.61057792 Eh           -2329.58226 eV
One Electron Energy:         -122.94365257 Eh           -3345.46687 eV
Two Electron Energy:           37.33307464 Eh            1015.88461 eV

Virial components:
Potential Energy   :         -152.56632542 Eh           -4151.54077 eV
Kinetic Energy     :           76.09948875 Eh            2070.77236 eV
Virial Ratio       :            2.00482721


DFT components:
N(Alpha)           :        4.999996540768 electrons
N(Beta)            :        4.999996540768 electrons
N(Total)           :        9.999993081537 electrons
E(X)               :       -9.003669921530 Eh       
E(C)               :       -0.327468268392 Eh       
E(XC)              :       -9.331138189922 Eh       
DFET-embed. en.    :        0.000000000000 Eh       

---------------
SCF CONVERGENCE
---------------

  Last Energy change         ...   -2.9851e-09  Tolerance :   1.0000e-08
  Last MAX-Density change    ...    2.7452e-06  Tolerance :   1.0000e-07
  Last RMS-Density change    ...    1.0018e-07  Tolerance :   5.0000e-09
  Last Orbital Gradient      ...    1.1392e-06  Tolerance :   1.0000e-05
  Last Orbital Rotation      ...    3.2559e-06  Tolerance :   1.0000e-05

             **** THE GBW FILE WAS UPDATED (17_H2O.gbw) ****
             **** DENSITY FILE WAS UPDATED (17_H2O.scfp) ****
             **** ENERGY FILE WAS UPDATED (17_H2O.en.tmp) ****
             **** THE GBW FILE WAS UPDATED (17_H2O.gbw) ****
             **** DENSITY FILE WAS UPDATED (17_H2O.scfp) ****
----------------
ORBITAL ENERGIES
----------------

  NO   OCC          E(Eh)            E(eV) 
   0   2.0000     -18.890837      -514.0458 
   1   2.0000      -0.951116       -25.8812 
   2   2.0000      -0.488887       -13.3033 
   3   2.0000      -0.346280        -9.4228 
   4   2.0000      -0.268777        -7.3138 
   5   0.0000      -0.028519        -0.7760 
   6   0.0000       0.019257         0.5240 
   7   0.0000       0.073680         2.0049 
   8   0.0000       0.091488         2.4895 
   9   0.0000       0.098716         2.6862 
  10   0.0000       0.109502         2.9797 
  11   0.0000       0.146905         3.9975 
  12   0.0000       0.166954         4.5431 
  13   0.0000       0.187726         5.1083 
  14   0.0000       0.217828         5.9274 
  15   0.0000       0.219370         5.9694 
  16   0.0000       0.303588         8.2611 
  17   0.0000       0.320182         8.7126 
  18   0.0000       0.334805         9.1105 
  19   0.0000       0.462741        12.5918 
  20   0.0000       0.508596        13.8396 
  21   0.0000       0.560809        15.2604 
  22   0.0000       0.582144        15.8409 
  23   0.0000       0.583896        15.8886 
  24   0.0000       0.673436        18.3251 
  25   0.0000       0.700665        19.0661 
  26   0.0000       0.716720        19.5029 
  27   0.0000       0.753835        20.5129 
  28   0.0000       0.754805        20.5393 
  29   0.0000       0.781756        21.2727 
  30   0.0000       0.800071        21.7710 
  31   0.0000       0.811521        22.0826 
  32   0.0000       0.867502        23.6059 
  33   0.0000       0.874968        23.8091 
  34   0.0000       0.902245        24.5513 
  35   0.0000       0.977536        26.6001 
  36   0.0000       1.028086        27.9756 
  37   0.0000       1.038223        28.2515 
  38   0.0000       1.093637        29.7594 
  39   0.0000       1.309507        35.6335 
  40   0.0000       1.348580        36.6967 
  41   0.0000       1.370377        37.2899 
  42   0.0000       1.552877        42.2559 
  43   0.0000       1.597869        43.4802 
  44   0.0000       1.717743        46.7422 
  45   0.0000       1.833580        49.8942 
  46   0.0000       1.966242        53.5042 
  47   0.0000       2.021733        55.0141 
  48   0.0000       2.040645        55.5288 
  49   0.0000       2.103944        57.2512 
  50   0.0000       2.139427        58.2168 
  51   0.0000       2.148104        58.4529 
  52   0.0000       2.194235        59.7082 
  53   0.0000       2.402739        65.3819 
  54   0.0000       2.413684        65.6797 
  55   0.0000       2.465709        67.0954 
  56   0.0000       2.554924        69.5230 
  57   0.0000       2.600367        70.7596 
  58   0.0000       3.334001        90.7228 
  59   0.0000       3.431124        93.3656 
  60   0.0000       3.625348        98.6507 
  61   0.0000       3.719916       101.2241 
  62   0.0000       3.880351       105.5897 
  63   0.0000       3.950392       107.4956 
  64   0.0000       4.005266       108.9888 
  65   0.0000       4.082057       111.0784 
  66   0.0000       4.087279       111.2205 
  67   0.0000       4.098051       111.5136 
  68   0.0000       4.174087       113.5827 
  69   0.0000       4.294755       116.8662 
  70   0.0000       4.443241       120.9067 
  71   0.0000       4.814296       131.0037 
  72   0.0000       4.826970       131.3485 
  73   0.0000       4.910669       133.6261 
  74   0.0000       4.920217       133.8859 
  75   0.0000       5.123687       139.4226 
  76   0.0000       5.318620       144.7270 
  77   0.0000       5.741281       156.2282 
  78   0.0000       6.078452       165.4031 
  79   0.0000       6.267213       170.5395 
  80   0.0000       6.449116       175.4894 
  81   0.0000       6.644291       180.8004 
  82   0.0000       6.740125       183.4081 
  83   0.0000       6.769815       184.2160 
  84   0.0000       6.792313       184.8282 
  85   0.0000       6.864839       186.8018 
  86   0.0000       6.882206       187.2744 
  87   0.0000       7.041162       191.5997 
  88   0.0000       7.420079       201.9106 
  89   0.0000       7.467209       203.1931 
  90   0.0000       8.280225       225.3164 
  91   0.0000      14.882628       404.9769 

                    ********************************
                    * MULLIKEN POPULATION ANALYSIS *
                    ********************************

-----------------------
MULLIKEN ATOMIC CHARGES
-----------------------
   0 O :   -0.320326
   1 H :    0.161972
   2 H :    0.158354
Sum of atomic charges:    0.0000000

--------------------------------
MULLIKEN REDUCED ORBITAL CHARGES
--------------------------------
  0 O s       :     3.934668  s :     3.934668
      pz      :     1.489493  p :     4.380546
      px      :     1.571897
      py      :     1.319155
      dz2     :     0.000876  d :     0.004927
      dxz     :     0.001568
      dyz     :    -0.000340
      dx2y2   :     0.001622
      dxy     :     0.001200
      f0      :     0.000036  f :     0.000185
      f+1     :     0.000185
      f-1     :    -0.000016
      f+2     :    -0.000005
      f-2     :    -0.000023
      f+3     :     0.000064
      f-3     :    -0.000055
  1 H s       :     0.717606  s :     0.717606
      pz      :     0.044888  p :     0.103218
      px      :     0.043825
      py      :     0.014505
      dz2     :     0.001862  d :     0.017204
      dxz     :     0.001703
      dyz     :     0.005320
      dx2y2   :     0.002010
      dxy     :     0.006309
  2 H s       :     0.711091  s :     0.711091
      pz      :     0.030449  p :     0.111750
      px      :     0.041623
      py      :     0.039679
      dz2     :     0.009314  d :     0.018804
      dxz     :     0.000106
      dyz     :     0.002892
      dx2y2   :     0.004198
      dxy     :     0.002295


                     *******************************
                     * LOEWDIN POPULATION ANALYSIS *
                     *******************************

----------------------
LOEWDIN ATOMIC CHARGES
----------------------
   0 O :    1.032160
   1 H :   -0.515750
   2 H :   -0.516410

-------------------------------
LOEWDIN REDUCED ORBITAL CHARGES
-------------------------------
  0 O s       :     3.015742  s :     3.015742
      pz      :     1.290163  p :     3.866736
      px      :     1.343324
      py      :     1.233249
      dz2     :     0.009282  d :     0.069357
      dxz     :     0.020435
      dyz     :     0.011059
      dx2y2   :     0.019185
      dxy     :     0.009396
      f0      :     0.001100  f :     0.016005
      f+1     :     0.003992
      f-1     :     0.001493
      f+2     :     0.002528
      f-2     :     0.001920
      f+3     :     0.003232
      f-3     :     0.001739
  1 H s       :     0.593012  s :     0.593012
      pz      :     0.155533  p :     0.566453
      px      :     0.172926
      py      :     0.237994
      dz2     :     0.043917  d :     0.356285
      dxz     :     0.016866
      dyz     :     0.102619
      dx2y2   :     0.087251
      dxy     :     0.105631
  2 H s       :     0.592692  s :     0.592692
      pz      :     0.213380  p :     0.567738
      px      :     0.210117
      py      :     0.144241
      dz2     :     0.095874  d :     0.355979
      dxz     :     0.088672
      dyz     :     0.071761
      dx2y2   :     0.057398
      dxy     :     0.042274


                      *****************************
                      * MAYER POPULATION ANALYSIS *
                      *****************************

  NA   - Mulliken gross atomic population
  ZA   - Total nuclear charge
  QA   - Mulliken gross atomic charge
  VA   - Mayer's total valence
  BVA  - Mayer's bonded valence
  FA   - Mayer's free valence

  ATOM       NA         ZA         QA         VA         BVA        FA
  0 O      8.3203     8.0000    -0.3203     2.0378     2.0378     0.0000
  1 H      0.8380     1.0000     0.1620     1.0524     1.0524     0.0000
  2 H      0.8416     1.0000     0.1584     1.0721     1.0721    -0.0000

  Mayer bond orders larger than 0.100000
B(  0-O ,  1-H ) :   1.0091 B(  0-O ,  2-H ) :   1.0288 

-------
TIMINGS
-------

Total SCF time: 0 days 0 hours 0 min 1 sec 

Total time                  ....       1.256 sec
Sum of individual times     ....       1.164 sec  ( 92.6%)

Fock matrix formation       ....       0.975 sec  ( 77.6%)
  Split-RI-J                ....       0.799 sec  ( 82.0% of F)
  XC integration            ....       0.151 sec  ( 15.5% of F)
    Basis function eval.    ....       0.007 sec  (  4.9% of XC)
    Density eval.           ....       0.010 sec  (  6.6% of XC)
    XC-Functional eval.     ....       0.006 sec  (  3.9% of XC)
    XC-Potential eval.      ....       0.022 sec  ( 14.3% of XC)
Diagonalization             ....       0.010 sec  (  0.8%)
Density matrix formation    ....       0.003 sec  (  0.2%)
Population analysis         ....       0.003 sec  (  0.2%)
Initial guess               ....       0.105 sec  (  8.4%)
Orbital Transformation      ....       0.000 sec  (  0.0%)
Orbital Orthonormalization  ....       0.000 sec  (  0.0%)
DIIS solution               ....       0.003 sec  (  0.3%)
SOSCF solution              ....       0.004 sec  (  0.3%)
Grid generation             ....       0.061 sec  (  4.9%)


-------------------------------------------------------------------------------
                          DFT DISPERSION CORRECTION                            
                                                                               
                              DFTD3 V3.1  Rev 1                                
                          USING Becke-Johnson damping                          
-------------------------------------------------------------------------------
The TPSS functional is recognized
Active option DFTDOPT                   ...         4   

molecular C6(AA) [au] = 44.533705 


            DFT-D V3
 parameters
 s6 scaling factor         :     1.0000 
 a1 scaling factor         :     0.4535 
 s8 scaling factor         :     1.9435 
 a2 scaling factor         :     4.4752 
 ad hoc parameters k1-k3   :    16.0000     1.3333    -4.0000 

 Edisp/kcal,au: -0.263826552848  -0.000420434329 
 E6   /kcal   :  -0.151559841 
 E8   /kcal   :  -0.112266712 
 % E8         :  42.553226905 

-------------------------   ----------------
Dispersion correction           -0.000420434
-------------------------   ----------------


-------------------------   --------------------
FINAL SINGLE POINT ENERGY       -76.467257106536
-------------------------   --------------------



           ************************************************************
           *        Program running with 24 parallel MPI-processes    *
           *              working on a common directory               *
           ************************************************************
------------------------------------------------------------------------------
                         ORCA SCF GRADIENT CALCULATION
------------------------------------------------------------------------------

Gradient of the Kohn-Sham DFT energy:
Kohn-Sham wavefunction type      ... RKS
Hartree-Fock exchange scaling    ...    0.000
Number of operators              ...    1
Number of atoms                  ...    3
Basis set dimensions             ...   92
Integral neglect threshold       ... 2.5e-11
Integral primitive cutoff        ... 2.5e-12

Nuclear repulsion gradient       ... done
One Electron Gradient            ... done
Pre-screening matrix             ... done
RI-J gradient                    ... done
Exchange-correlation gradient    ... done
Dispersion correction            ... done

------------------
CARTESIAN GRADIENT
------------------

   1   O   :    0.006058948    0.004494451   -0.003242403
   2   H   :   -0.001887991   -0.004988255   -0.001014973
   3   H   :   -0.003569821    0.000877288    0.003956496

Difference to translation invariance:
           :    0.0006011360    0.0003834834   -0.0003008798

Norm of the cartesian gradient     ...    0.0112280278
RMS gradient                       ...    0.0037426759
MAX gradient                       ...    0.0060589478

-------
TIMINGS
-------

Total SCF gradient time            ...        0.323 sec

One electron gradient       ....       0.006 sec  (  2.0%)
Prescreening matrices       ....       0.011 sec  (  3.4%)
RI-J Coulomb gradient       ....       0.067 sec  ( 20.7%)
XC gradient                 ....       0.038 sec  ( 11.9%)
------------------------------------------------------------------------------
                         ORCA GEOMETRY RELAXATION STEP
------------------------------------------------------------------------------

Reading the OPT-File                    .... done
Getting information on internals        .... done
Copying old internal coords+grads       .... done
Making the new internal coordinates     .... (new redundants).... done
Validating the new internal coordinates .... (new redundants).... done
Calculating the B-matrix                .... done
Calculating the G,G- and P matrices     .... done
Transforming gradient to internals      .... done
Projecting the internal gradient        .... done
Number of atoms                         ....   3
Number of internal coordinates          ....   3
Current Energy                          ....   -76.467257107 Eh
Current gradient norm                   ....     0.011228028 Eh/bohr
Maximum allowed component of the step   ....  0.300
Current trust radius                    ....  0.300
Evaluating the initial hessian          ....  (Almloef) done
Projecting the Hessian                  .... done
Forming the augmented Hessian           .... done
Diagonalizing the augmented Hessian     .... done
Last element of RFO vector              ....  0.999875202
Lowest eigenvalues of augmented Hessian:
 -0.000125116  0.320884112  0.515253847
Length of the computed step             ....  0.015800073
The final length of the internal step   ....  0.015800073
Converting the step to cartesian space:
 Initial RMS(Int)=    0.0091221767
Transforming coordinates:
 Iter   0:  RMS(Cart)=    0.0039126941 RMS(Int)=    0.0091215102
 Iter   1:  RMS(Cart)=    0.0000091462 RMS(Int)=    0.0000147968
 Iter   2:  RMS(Cart)=    0.0000000575 RMS(Int)=    0.0000000886
done
Storing new coordinates                 .... done

                                .--------------------.
          ----------------------|Geometry convergence|-------------------------
          Item                value                   Tolerance       Converged
          ---------------------------------------------------------------------
          RMS gradient        0.0045950902            0.0001000000      NO
          MAX gradient        0.0055548641            0.0003000000      NO
          RMS step            0.0091221767            0.0020000000      NO
          MAX step            0.0107781759            0.0040000000      NO
          ........................................................
          Max(Bonds)      0.0057      Max(Angles)    0.24
          Max(Dihed)        0.00      Max(Improp)    0.00
          ---------------------------------------------------------------------

The optimization has not yet converged - more geometry cycles are needed


    ---------------------------------------------------------------------------
                         Redundant Internal Coordinates
                            (Angstroem and degrees)

        Definition                    Value    dE/dq     Step     New-Value
    ----------------------------------------------------------------------------
     1. B(H   1,O   0)                0.9625 -0.005533  0.0057    0.9682   
     2. B(H   2,O   0)                0.9625 -0.005555  0.0057    0.9682   
     3. A(H   1,O   0,H   2)          104.88  0.001371   -0.24    104.64   
    ----------------------------------------------------------------------------

         *************************************************************
         *                GEOMETRY OPTIMIZATION CYCLE   2            *
         *************************************************************
---------------------------------
CARTESIAN COORDINATES (ANGSTROEM)
---------------------------------
  O      0.002310    0.001662   -0.001661
  H      0.274828    0.893970    0.256879
  H      0.607062   -0.241032   -0.717718

----------------------------
CARTESIAN COORDINATES (A.U.)
----------------------------
  NO LB      ZA    FRAG     MASS         X           Y           Z
   0 O     8.0000    0    15.999    0.004365    0.003141   -0.003139
   1 H     1.0000    0     1.008    0.519350    1.689359    0.485431
   2 H     1.0000    0     1.008    1.147181   -0.455485   -1.356291

--------------------------------
INTERNAL COORDINATES (ANGSTROEM)
--------------------------------
 O      0   0   0     0.000000000000     0.00000000     0.00000000
 H      1   0   0     0.968154584126     0.00000000     0.00000000
 H      1   2   0     0.968175625823   104.63825439     0.00000000

---------------------------
INTERNAL COORDINATES (A.U.)
---------------------------
 O      0   0   0     0.000000000000     0.00000000     0.00000000
 H      1   0   0     1.829547019299     0.00000000     0.00000000
 H      1   2   0     1.829586782343   104.63825439     0.00000000



           ************************************************************
           *        Program running with 24 parallel MPI-processes    *
           *              working on a common directory               *
           ************************************************************
 One Electron integrals                  ... done
 Pre-screening matrix                    ... done


           ************************************************************
           *        Program running with 24 parallel MPI-processes    *
           *              working on a common directory               *
           ************************************************************

Diagonalization of the overlap matrix:
Smallest eigenvalue                        ... 3.938e-04
Time for diagonalization                   ...    0.003 sec
Threshold for overlap eigenvalues          ... 1.000e-08
Number of eigenvalues below threshold      ... 0
Time for construction of square roots      ...    0.001 sec
Total time needed                          ...    0.004 sec

-------------------
DFT GRID GENERATION
-------------------

General Integration Accuracy     IntAcc      ...  4.340
Radial Grid Type                 RadialGrid  ... Gauss-Chebyshev
Angular Grid (max. acc.)         AngularGrid ... Lebedev-110
Angular grid pruning method      GridPruning ... 3 (G Style)
Weight generation scheme         WeightScheme... Becke
Basis function cutoff            BFCut       ...    1.0000e-11
Integration weight cutoff        WCut        ...    1.0000e-14
Grids for H and He will be reduced by one unit

# of grid points (after initial pruning)     ...   3304 (   0.0 sec)
# of grid points (after weights+screening)   ...   3278 (   0.0 sec)
nearest neighbour list constructed           ...    0.0 sec
Grid point re-assignment to atoms done       ...    0.0 sec
Grid point division into batches done        ...    0.0 sec
Reduced shell lists constructed in    0.0 sec

Total number of grid points                  ...     3278
Total number of batches                      ...       53
Average number of points per batch           ...       61
Average number of grid points per atom       ...     1093
Average number of shells per batch           ...    19.50 (60.94%)
Average number of basis functions per batch  ...    54.50 (59.24%)
Average number of large shells per batch     ...    17.00 (87.18%)
Average number of large basis fcns per batch ...    48.50 (88.99%)
Maximum spatial batch extension              ...  19.80, 15.12, 19.96 au
Average spatial batch extension              ...   0.86,  0.68,  0.90 au

Time for grid setup =    0.010 sec

--------------
SCF ITERATIONS
--------------
ITER       Energy         Delta-E        Max-DP      RMS-DP      [F,P]     Damp
               ***  Starting incremental Fock matrix formation  ***
                      *** Initiating the SOSCF procedure ***
                      *** Re-Reading the Fockian *** 
                      *** Removing any level shift *** 
ITER      Energy       Delta-E        Grad      Rot      Max-DP    RMS-DP
  0    -76.46722308 -76.4672230806  0.001463  0.001463  0.002803  0.000097
               *** Restarting incremental Fock matrix formation ***
  1    -76.46724128  -0.0000181980  0.000390  0.000653  0.000858  0.000028
  2    -76.46723990   0.0000013781  0.000573  0.000431  0.000339  0.000016
  3    -76.46724289  -0.0000029900  0.000073  0.000109  0.000142  0.000004
  4    -76.46724293  -0.0000000356  0.000047  0.000025  0.000039  0.000001
                  ***Gradient check signals convergence***
              ***Rediagonalizing the Fockian in SOSCF/NRSCF***

               *****************************************************
               *                     SUCCESS                       *
               *           SCF CONVERGED AFTER   5 CYCLES          *
               *****************************************************

Setting up the final grid:

General Integration Accuracy     IntAcc      ...  4.670
Radial Grid Type                 RadialGrid  ... Gauss-Chebyshev
Angular Grid (max. acc.)         AngularGrid ... Lebedev-302
Angular grid pruning method      GridPruning ... 3 (G Style)
Weight generation scheme         WeightScheme... Becke
Basis function cutoff            BFCut       ...    1.0000e-11
Integration weight cutoff        WCut        ...    1.0000e-14
Grids for H and He will be reduced by one unit

# of grid points (after initial pruning)     ...  13000 (   0.0 sec)
# of grid points (after weights+screening)   ...  12903 (   0.0 sec)
nearest neighbour list constructed           ...    0.0 sec
Grid point re-assignment to atoms done       ...    0.0 sec
Grid point division into batches done        ...    0.0 sec
Reduced shell lists constructed in    0.0 sec

Total number of grid points                  ...    12903
Total number of batches                      ...      204
Average number of points per batch           ...       63
Average number of grid points per atom       ...     4301
Average number of shells per batch           ...    15.70 (49.06%)
Average number of basis functions per batch  ...    41.10 (44.67%)
Average number of large shells per batch     ...    12.50 (79.62%)
Average number of large basis fcns per batch ...    31.90 (77.62%)
Maximum spatial batch extension              ...  16.88, 14.34, 16.40 au
Average spatial batch extension              ...   0.47,  0.44,  0.49 au

Final grid set up in    0.1 sec
Final integration                            ... done (   0.0 sec)
Change in XC energy                          ...     0.000343804
Integrated number of electrons               ...     9.999992902
Previous integrated no of electrons          ...     9.999571874
Total Energy       :          -76.46689914 Eh           -2080.77011 eV
  Last Energy change         ...   -1.9869e-08  Tolerance :   1.0000e-08
  Last MAX-Density change    ...    1.5009e-06  Tolerance :   1.0000e-07
             **** THE GBW FILE WAS UPDATED (17_H2O.gbw) ****
             **** DENSITY FILE WAS UPDATED (17_H2O.scfp) ****
             **** ENERGY FILE WAS UPDATED (17_H2O.en.tmp) ****
             **** THE GBW FILE WAS UPDATED (17_H2O.gbw) ****
             **** DENSITY FILE WAS UPDATED (17_H2O.scfp) ****
Total SCF time: 0 days 0 hours 0 min 0 sec 


-------------------------------------------------------------------------------
                          DFT DISPERSION CORRECTION                            
                                                                               
                              DFTD3 V3.1  Rev 1                                
                          USING Becke-Johnson damping                          
-------------------------------------------------------------------------------
-------------------------   ----------------
Dispersion correction           -0.000420450
-------------------------   ----------------


-------------------------   --------------------
FINAL SINGLE POINT ENERGY       -76.467319592152
-------------------------   --------------------



           ************************************************************
           *        Program running with 24 parallel MPI-processes    *
           *              working on a common directory               *
           ************************************************************
------------------------------------------------------------------------------
                         ORCA SCF GRADIENT CALCULATION
------------------------------------------------------------------------------

Gradient of the Kohn-Sham DFT energy:
Kohn-Sham wavefunction type      ... RKS
Hartree-Fock exchange scaling    ...    0.000
Number of operators              ...    1
Number of atoms                  ...    3
Basis set dimensions             ...   92
Integral neglect threshold       ... 2.5e-11
Integral primitive cutoff        ... 2.5e-12

Nuclear repulsion gradient       ... done
One Electron Gradient            ... done
Pre-screening matrix             ... done
RI-J gradient                    ... done
Exchange-correlation gradient    ... done
Dispersion correction            ... done

------------------
CARTESIAN GRADIENT
------------------

   1   O   :    0.001195363    0.000908590   -0.000689691
   2   H   :   -0.000379681   -0.000051500    0.000406928
   3   H   :   -0.000211172   -0.000468633   -0.000022279

Difference to translation invariance:
           :    0.0006045104    0.0003884567   -0.0003050426

Norm of the cartesian gradient     ...    0.0018185739
RMS gradient                       ...    0.0006061913
MAX gradient                       ...    0.0011953632

-------
TIMINGS
-------

Total SCF gradient time            ...        0.326 sec

One electron gradient       ....       0.001 sec  (  0.3%)
Prescreening matrices       ....       0.011 sec  (  3.5%)
RI-J Coulomb gradient       ....       0.066 sec  ( 20.4%)
XC gradient                 ....       0.040 sec  ( 12.4%)
------------------------------------------------------------------------------
                         ORCA GEOMETRY RELAXATION STEP
------------------------------------------------------------------------------

Reading the OPT-File                    .... done
Getting information on internals        .... done
Copying old internal coords+grads       .... done
Making the new internal coordinates     .... (new redundants).... done
Validating the new internal coordinates .... (new redundants).... done
Calculating the B-matrix                .... done
Calculating the G,G- and P matrices     .... done
Transforming gradient to internals      .... done
Projecting the internal gradient        .... done
Number of atoms                         ....   3
Number of internal coordinates          ....   3
Current Energy                          ....   -76.467319592 Eh
Current gradient norm                   ....     0.001818574 Eh/bohr
Maximum allowed component of the step   ....  0.300
Current trust radius                    ....  0.300
Updating the Hessian (BFGS)             .... done
Forming the augmented Hessian           .... done
Diagonalizing the augmented Hessian     .... done
Last element of RFO vector              ....  0.999987807
Lowest eigenvalues of augmented Hessian:
 -0.000006783  0.276672382  0.515252899
Length of the computed step             ....  0.004938224
The final length of the internal step   ....  0.004938224
Converting the step to cartesian space:
 Initial RMS(Int)=    0.0028510847
Transforming coordinates:
 Iter   0:  RMS(Cart)=    0.0014291576 RMS(Int)=    0.0028508710
 Iter   1:  RMS(Cart)=    0.0000025920 RMS(Int)=    0.0000044609
 Iter   2:  RMS(Cart)=    0.0000000036 RMS(Int)=    0.0000000083
done
Storing new coordinates                 .... done

                                .--------------------.
          ----------------------|Geometry convergence|-------------------------
          Item                value                   Tolerance       Converged
          ---------------------------------------------------------------------
          Energy change      -0.0000624856            0.0000050000      NO
          RMS gradient        0.0007950971            0.0001000000      NO
          MAX gradient        0.0013532624            0.0003000000      NO
          RMS step            0.0028510847            0.0020000000      NO
          MAX step            0.0047739696            0.0040000000      NO
          ........................................................
          Max(Bonds)      0.0005      Max(Angles)    0.27
          Max(Dihed)        0.00      Max(Improp)    0.00
          ---------------------------------------------------------------------

The optimization has not yet converged - more geometry cycles are needed


    ---------------------------------------------------------------------------
                         Redundant Internal Coordinates
                            (Angstroem and degrees)

        Definition                    Value    dE/dq     Step     New-Value
    ----------------------------------------------------------------------------
     1. B(H   1,O   0)                0.9682 -0.000182  0.0005    0.9686   
     2. B(H   2,O   0)                0.9682 -0.000179  0.0005    0.9686   
     3. A(H   1,O   0,H   2)          104.64  0.001353   -0.27    104.36   
    ----------------------------------------------------------------------------

         *************************************************************
         *                GEOMETRY OPTIMIZATION CYCLE   3            *
         *************************************************************
---------------------------------
CARTESIAN COORDINATES (ANGSTROEM)
---------------------------------
  O      0.001264    0.000887   -0.001116
  H      0.275577    0.893587    0.255944
  H      0.607359   -0.239873   -0.717328

----------------------------
CARTESIAN COORDINATES (A.U.)
----------------------------
  NO LB      ZA    FRAG     MASS         X           Y           Z
   0 O     8.0000    0    15.999    0.002388    0.001675   -0.002109
   1 H     1.0000    0     1.008    0.520765    1.688634    0.483665
   2 H     1.0000    0     1.008    1.147742   -0.453295   -1.355554

--------------------------------
INTERNAL COORDINATES (ANGSTROEM)
--------------------------------
 O      0   0   0     0.000000000000     0.00000000     0.00000000
 H      1   0   0     0.968628732143     0.00000000     0.00000000
 H      1   2   0     0.968646692270   104.36472608     0.00000000

---------------------------
INTERNAL COORDINATES (A.U.)
---------------------------
 O      0   0   0     0.000000000000     0.00000000     0.00000000
 H      1   0   0     1.830443029198     0.00000000     0.00000000
 H      1   2   0     1.830476968918   104.36472608     0.00000000



           ************************************************************
           *        Program running with 24 parallel MPI-processes    *
           *              working on a common directory               *
           ************************************************************
 One Electron integrals                  ... done
 Pre-screening matrix                    ... done


           ************************************************************
           *        Program running with 24 parallel MPI-processes    *
           *              working on a common directory               *
           ************************************************************

Diagonalization of the overlap matrix:
Smallest eigenvalue                        ... 3.947e-04
Time for diagonalization                   ...    0.003 sec
Threshold for overlap eigenvalues          ... 1.000e-08
Number of eigenvalues below threshold      ... 0
Time for construction of square roots      ...    0.001 sec
Total time needed                          ...    0.004 sec

-------------------
DFT GRID GENERATION
-------------------

General Integration Accuracy     IntAcc      ...  4.340
Radial Grid Type                 RadialGrid  ... Gauss-Chebyshev
Angular Grid (max. acc.)         AngularGrid ... Lebedev-110
Angular grid pruning method      GridPruning ... 3 (G Style)
Weight generation scheme         WeightScheme... Becke
Basis function cutoff            BFCut       ...    1.0000e-11
Integration weight cutoff        WCut        ...    1.0000e-14
Grids for H and He will be reduced by one unit

# of grid points (after initial pruning)     ...   3304 (   0.0 sec)
# of grid points (after weights+screening)   ...   3278 (   0.0 sec)
nearest neighbour list constructed           ...    0.0 sec
Grid point re-assignment to atoms done       ...    0.0 sec
Grid point division into batches done        ...    0.0 sec
Reduced shell lists constructed in    0.0 sec

Total number of grid points                  ...     3278
Total number of batches                      ...       53
Average number of points per batch           ...       61
Average number of grid points per atom       ...     1093
Average number of shells per batch           ...    19.50 (60.94%)
Average number of basis functions per batch  ...    54.50 (59.24%)
Average number of large shells per batch     ...    17.00 (87.18%)
Average number of large basis fcns per batch ...    48.50 (88.99%)
Maximum spatial batch extension              ...  19.80, 15.12, 19.96 au
Average spatial batch extension              ...   0.86,  0.68,  0.90 au

Time for grid setup =    0.010 sec

--------------
SCF ITERATIONS
--------------
ITER       Energy         Delta-E        Max-DP      RMS-DP      [F,P]     Damp
               ***  Starting incremental Fock matrix formation  ***
                      *** Initiating the SOSCF procedure ***
                      *** Re-Reading the Fockian *** 
                      *** Removing any level shift *** 
ITER      Energy       Delta-E        Grad      Rot      Max-DP    RMS-DP
  0    -76.46724580 -76.4672458026  0.000347  0.000347  0.000477  0.000019
               *** Restarting incremental Fock matrix formation ***
  1    -76.46724733  -0.0000015311  0.000059  0.000115  0.000349  0.000008
  2    -76.46724736  -0.0000000277  0.000086  0.000075  0.000067  0.000003
  3    -76.46724742  -0.0000000582  0.000028  0.000046  0.000085  0.000002
  4    -76.46724743  -0.0000000072  0.000012  0.000007  0.000021  0.000001
                  ***Gradient check signals convergence***
              ***Rediagonalizing the Fockian in SOSCF/NRSCF***

               *****************************************************
               *                     SUCCESS                       *
               *           SCF CONVERGED AFTER   5 CYCLES          *
               *****************************************************

Setting up the final grid:

General Integration Accuracy     IntAcc      ...  4.670
Radial Grid Type                 RadialGrid  ... Gauss-Chebyshev
Angular Grid (max. acc.)         AngularGrid ... Lebedev-302
Angular grid pruning method      GridPruning ... 3 (G Style)
Weight generation scheme         WeightScheme... Becke
Basis function cutoff            BFCut       ...    1.0000e-11
Integration weight cutoff        WCut        ...    1.0000e-14
Grids for H and He will be reduced by one unit

# of grid points (after initial pruning)     ...  13000 (   0.0 sec)
# of grid points (after weights+screening)   ...  12903 (   0.0 sec)
nearest neighbour list constructed           ...    0.0 sec
Grid point re-assignment to atoms done       ...    0.0 sec
Grid point division into batches done        ...    0.0 sec
Reduced shell lists constructed in    0.0 sec

Total number of grid points                  ...    12903
Total number of batches                      ...      204
Average number of points per batch           ...       63
Average number of grid points per atom       ...     4301
Average number of shells per batch           ...    15.60 (48.75%)
Average number of basis functions per batch  ...    40.60 (44.13%)
Average number of large shells per batch     ...    12.50 (80.13%)
Average number of large basis fcns per batch ...    31.90 (78.57%)
Maximum spatial batch extension              ...  16.88, 14.34, 16.40 au
Average spatial batch extension              ...   0.47,  0.44,  0.49 au

Final grid set up in    0.0 sec
Final integration                            ... done (   0.0 sec)
Change in XC energy                          ...     0.000346053
Integrated number of electrons               ...     9.999992835
Previous integrated no of electrons          ...     9.999573787
Total Energy       :          -76.46690138 Eh           -2080.77017 eV
  Last Energy change         ...   -2.7289e-09  Tolerance :   1.0000e-08
  Last MAX-Density change    ...    2.5956e-06  Tolerance :   1.0000e-07
             **** THE GBW FILE WAS UPDATED (17_H2O.gbw) ****
             **** DENSITY FILE WAS UPDATED (17_H2O.scfp) ****
             **** ENERGY FILE WAS UPDATED (17_H2O.en.tmp) ****
             **** THE GBW FILE WAS UPDATED (17_H2O.gbw) ****
             **** DENSITY FILE WAS UPDATED (17_H2O.scfp) ****
Total SCF time: 0 days 0 hours 0 min 0 sec 


-------------------------------------------------------------------------------
                          DFT DISPERSION CORRECTION                            
                                                                               
                              DFTD3 V3.1  Rev 1                                
                          USING Becke-Johnson damping                          
-------------------------------------------------------------------------------
-------------------------   ----------------
Dispersion correction           -0.000420460
-------------------------   ----------------


-------------------------   --------------------
FINAL SINGLE POINT ENERGY       -76.467321836984
-------------------------   --------------------



           ************************************************************
           *        Program running with 24 parallel MPI-processes    *
           *              working on a common directory               *
           ************************************************************
------------------------------------------------------------------------------
                         ORCA SCF GRADIENT CALCULATION
------------------------------------------------------------------------------

Gradient of the Kohn-Sham DFT energy:
Kohn-Sham wavefunction type      ... RKS
Hartree-Fock exchange scaling    ...    0.000
Number of operators              ...    1
Number of atoms                  ...    3
Basis set dimensions             ...   92
Integral neglect threshold       ... 2.5e-11
Integral primitive cutoff        ... 2.5e-12

Nuclear repulsion gradient       ... done
One Electron Gradient            ... done
Pre-screening matrix             ... done
RI-J gradient                    ... done
Exchange-correlation gradient    ... done
Dispersion correction            ... done

------------------
CARTESIAN GRADIENT
------------------

   1   O   :    0.000465846    0.000368047   -0.000311181
   2   H   :   -0.000014174    0.000218189    0.000215214
   3   H   :    0.000151620   -0.000197074   -0.000209464

Difference to translation invariance:
           :    0.0006032923    0.0003891627   -0.0003054306

Norm of the cartesian gradient     ...    0.0008056869
RMS gradient                       ...    0.0002685623
MAX gradient                       ...    0.0004658463

-------
TIMINGS
-------

Total SCF gradient time            ...        0.320 sec

One electron gradient       ....       0.007 sec  (  2.3%)
Prescreening matrices       ....       0.012 sec  (  3.9%)
RI-J Coulomb gradient       ....       0.066 sec  ( 20.8%)
XC gradient                 ....       0.038 sec  ( 11.9%)
------------------------------------------------------------------------------
                         ORCA GEOMETRY RELAXATION STEP
------------------------------------------------------------------------------

Reading the OPT-File                    .... done
Getting information on internals        .... done
Copying old internal coords+grads       .... done
Making the new internal coordinates     .... (new redundants).... done
Validating the new internal coordinates .... (new redundants).... done
Calculating the B-matrix                .... done
Calculating the G,G- and P matrices     .... done
Transforming gradient to internals      .... done
Projecting the internal gradient        .... done
Number of atoms                         ....   3
Number of internal coordinates          ....   3
Current Energy                          ....   -76.467321837 Eh
Current gradient norm                   ....     0.000805687 Eh/bohr
Maximum allowed component of the step   ....  0.300
Current trust radius                    ....  0.300
Updating the Hessian (BFGS)             .... done
Forming the augmented Hessian           .... done
Diagonalizing the augmented Hessian     .... done
Last element of RFO vector              ....  0.999992345
Lowest eigenvalues of augmented Hessian:
 -0.000002481  0.156483798  0.515254207
Length of the computed step             ....  0.003912837
The final length of the internal step   ....  0.003912837
Converting the step to cartesian space:
 Initial RMS(Int)=    0.0022590774
Transforming coordinates:
 Iter   0:  RMS(Cart)=    0.0012731021 RMS(Int)=    0.0022590596
 Iter   1:  RMS(Cart)=    0.0000014588 RMS(Int)=    0.0000028594
 Iter   2:  RMS(Cart)=    0.0000000024 RMS(Int)=    0.0000000043
done
Storing new coordinates                 .... done

                                .--------------------.
          ----------------------|Geometry convergence|-------------------------
          Item                value                   Tolerance       Converged
          ---------------------------------------------------------------------
          Energy change      -0.0000022448            0.0000050000      YES
          RMS gradient        0.0003813122            0.0001000000      NO
          MAX gradient        0.0006392846            0.0003000000      NO
          RMS step            0.0022590774            0.0020000000      NO
          MAX step            0.0039110359            0.0040000000      YES
          ........................................................
          Max(Bonds)      0.0000      Max(Angles)    0.22
          Max(Dihed)        0.00      Max(Improp)    0.00
          ---------------------------------------------------------------------

The optimization has not yet converged - more geometry cycles are needed


    ---------------------------------------------------------------------------
                         Redundant Internal Coordinates
                            (Angstroem and degrees)

        Definition                    Value    dE/dq     Step     New-Value
    ----------------------------------------------------------------------------
     1. B(H   1,O   0)                0.9686  0.000117  0.0000    0.9687   
     2. B(H   2,O   0)                0.9686  0.000118  0.0000    0.9687   
     3. A(H   1,O   0,H   2)          104.36  0.000639   -0.22    104.14   
    ----------------------------------------------------------------------------

         *************************************************************
         *                GEOMETRY OPTIMIZATION CYCLE   4            *
         *************************************************************
---------------------------------
CARTESIAN COORDINATES (ANGSTROEM)
---------------------------------
  O      0.000512    0.000329   -0.000724
  H      0.276198    0.893030    0.255031
  H      0.607490   -0.238759   -0.716807

----------------------------
CARTESIAN COORDINATES (A.U.)
----------------------------
  NO LB      ZA    FRAG     MASS         X           Y           Z
   0 O     8.0000    0    15.999    0.000967    0.000622   -0.001369
   1 H     1.0000    0     1.008    0.521939    1.687583    0.481939
   2 H     1.0000    0     1.008    1.147991   -0.451190   -1.354568

--------------------------------
INTERNAL COORDINATES (ANGSTROEM)
--------------------------------
 O      0   0   0     0.000000000000     0.00000000     0.00000000
 H      1   0   0     0.968673979172     0.00000000     0.00000000
 H      1   2   0     0.968690264677   104.14064023     0.00000000

---------------------------
INTERNAL COORDINATES (A.U.)
---------------------------
 O      0   0   0     0.000000000000     0.00000000     0.00000000
 H      1   0   0     1.830528533690     0.00000000     0.00000000
 H      1   2   0     1.830559308835   104.14064023     0.00000000



           ************************************************************
           *        Program running with 24 parallel MPI-processes    *
           *              working on a common directory               *
           ************************************************************
 One Electron integrals                  ... done
 Pre-screening matrix                    ... done


           ************************************************************
           *        Program running with 24 parallel MPI-processes    *
           *              working on a common directory               *
           ************************************************************

Diagonalization of the overlap matrix:
Smallest eigenvalue                        ... 3.952e-04
Time for diagonalization                   ...    0.003 sec
Threshold for overlap eigenvalues          ... 1.000e-08
Number of eigenvalues below threshold      ... 0
Time for construction of square roots      ...    0.001 sec
Total time needed                          ...    0.004 sec

-------------------
DFT GRID GENERATION
-------------------

General Integration Accuracy     IntAcc      ...  4.340
Radial Grid Type                 RadialGrid  ... Gauss-Chebyshev
Angular Grid (max. acc.)         AngularGrid ... Lebedev-110
Angular grid pruning method      GridPruning ... 3 (G Style)
Weight generation scheme         WeightScheme... Becke
Basis function cutoff            BFCut       ...    1.0000e-11
Integration weight cutoff        WCut        ...    1.0000e-14
Grids for H and He will be reduced by one unit

# of grid points (after initial pruning)     ...   3304 (   0.0 sec)
# of grid points (after weights+screening)   ...   3278 (   0.0 sec)
nearest neighbour list constructed           ...    0.0 sec
Grid point re-assignment to atoms done       ...    0.0 sec
Grid point division into batches done        ...    0.0 sec
Reduced shell lists constructed in    0.0 sec

Total number of grid points                  ...     3278
Total number of batches                      ...       53
Average number of points per batch           ...       61
Average number of grid points per atom       ...     1093
Average number of shells per batch           ...    19.50 (60.94%)
Average number of basis functions per batch  ...    54.50 (59.24%)
Average number of large shells per batch     ...    17.00 (87.18%)
Average number of large basis fcns per batch ...    48.50 (88.99%)
Maximum spatial batch extension              ...  19.81, 15.12, 19.96 au
Average spatial batch extension              ...   0.86,  0.68,  0.90 au

Time for grid setup =    0.010 sec

--------------
SCF ITERATIONS
--------------
ITER       Energy         Delta-E        Max-DP      RMS-DP      [F,P]     Damp
               ***  Starting incremental Fock matrix formation  ***
                      *** Initiating the SOSCF procedure ***
                      *** Re-Reading the Fockian *** 
                      *** Removing any level shift *** 
ITER      Energy       Delta-E        Grad      Rot      Max-DP    RMS-DP
  0    -76.46724702 -76.4672470230  0.000288  0.000288  0.000323  0.000013
               *** Restarting incremental Fock matrix formation ***
  1    -76.46724788  -0.0000008597  0.000069  0.000110  0.000319  0.000008
  2    -76.46724784   0.0000000459  0.000113  0.000083  0.000065  0.000003
  3    -76.46724795  -0.0000001176  0.000009  0.000018  0.000041  0.000001
  4    -76.46724795   0.0000000002  0.000005  0.000003  0.000009  0.000000
                 **** Energy Check signals convergence ****
              ***Rediagonalizing the Fockian in SOSCF/NRSCF***

               *****************************************************
               *                     SUCCESS                       *
               *           SCF CONVERGED AFTER   5 CYCLES          *
               *****************************************************

Setting up the final grid:

General Integration Accuracy     IntAcc      ...  4.670
Radial Grid Type                 RadialGrid  ... Gauss-Chebyshev
Angular Grid (max. acc.)         AngularGrid ... Lebedev-302
Angular grid pruning method      GridPruning ... 3 (G Style)
Weight generation scheme         WeightScheme... Becke
Basis function cutoff            BFCut       ...    1.0000e-11
Integration weight cutoff        WCut        ...    1.0000e-14
Grids for H and He will be reduced by one unit

# of grid points (after initial pruning)     ...  13000 (   0.0 sec)
# of grid points (after weights+screening)   ...  12903 (   0.0 sec)
nearest neighbour list constructed           ...    0.0 sec
Grid point re-assignment to atoms done       ...    0.0 sec
Grid point division into batches done        ...    0.0 sec
Reduced shell lists constructed in    0.0 sec

Total number of grid points                  ...    12903
Total number of batches                      ...      204
Average number of points per batch           ...       63
Average number of grid points per atom       ...     4301
Average number of shells per batch           ...    15.60 (48.75%)
Average number of basis functions per batch  ...    40.60 (44.13%)
Average number of large shells per batch     ...    12.50 (80.13%)
Average number of large basis fcns per batch ...    31.90 (78.57%)
Maximum spatial batch extension              ...  16.88, 14.34, 16.40 au
Average spatial batch extension              ...   0.47,  0.44,  0.49 au

Final grid set up in    0.0 sec
Final integration                            ... done (   0.0 sec)
Change in XC energy                          ...     0.000347288
Integrated number of electrons               ...     9.999992789
Previous integrated no of electrons          ...     9.999572336
Total Energy       :          -76.46690067 Eh           -2080.77015 eV
  Last Energy change         ...   -1.8448e-09  Tolerance :   1.0000e-08
  Last MAX-Density change    ...    1.2075e-06  Tolerance :   1.0000e-07
             **** THE GBW FILE WAS UPDATED (17_H2O.gbw) ****
             **** DENSITY FILE WAS UPDATED (17_H2O.scfp) ****
             **** ENERGY FILE WAS UPDATED (17_H2O.en.tmp) ****
             **** THE GBW FILE WAS UPDATED (17_H2O.gbw) ****
             **** DENSITY FILE WAS UPDATED (17_H2O.scfp) ****
Total SCF time: 0 days 0 hours 0 min 0 sec 


-------------------------------------------------------------------------------
                          DFT DISPERSION CORRECTION                            
                                                                               
                              DFTD3 V3.1  Rev 1                                
                          USING Becke-Johnson damping                          
-------------------------------------------------------------------------------
-------------------------   ----------------
Dispersion correction           -0.000420468
-------------------------   ----------------


-------------------------   --------------------
FINAL SINGLE POINT ENERGY       -76.467321136336
-------------------------   --------------------



           ************************************************************
           *        Program running with 24 parallel MPI-processes    *
           *              working on a common directory               *
           ************************************************************
------------------------------------------------------------------------------
                         ORCA SCF GRADIENT CALCULATION
------------------------------------------------------------------------------

Gradient of the Kohn-Sham DFT energy:
Kohn-Sham wavefunction type      ... RKS
Hartree-Fock exchange scaling    ...    0.000
Number of operators              ...    1
Number of atoms                  ...    3
Basis set dimensions             ...   92
Integral neglect threshold       ... 2.5e-11
Integral primitive cutoff        ... 2.5e-12

Nuclear repulsion gradient       ... done
One Electron Gradient            ... done
Pre-screening matrix             ... done
RI-J gradient                    ... done
Exchange-correlation gradient    ... done
Dispersion correction            ... done

------------------
CARTESIAN GRADIENT
------------------

   1   O   :    0.000138191    0.000126005   -0.000142075
   2   H   :    0.000208769    0.000137324   -0.000043700
   3   H   :    0.000255130    0.000126171   -0.000119812

Difference to translation invariance:
           :    0.0006020909    0.0003895005   -0.0003055865

Norm of the cartesian gradient     ...    0.0004635484
RMS gradient                       ...    0.0001545161
MAX gradient                       ...    0.0002551303

-------
TIMINGS
-------

Total SCF gradient time            ...        0.309 sec

One electron gradient       ....       0.002 sec  (  0.5%)
Prescreening matrices       ....       0.011 sec  (  3.6%)
RI-J Coulomb gradient       ....       0.067 sec  ( 21.6%)
[...]
  60   0.0000       3.617257        98.4306 
  61   0.0000       3.718724       101.1916 
  62   0.0000       3.868712       105.2730 
  63   0.0000       3.945250       107.3557 
  64   0.0000       3.994315       108.6908 
  65   0.0000       4.079402       111.0062 
  66   0.0000       4.082506       111.0906 
  67   0.0000       4.094997       111.4305 
  68   0.0000       4.170423       113.4830 
  69   0.0000       4.290466       116.7495 
  70   0.0000       4.433132       120.6317 
  71   0.0000       4.809211       130.8653 
  72   0.0000       4.814969       131.0220 
  73   0.0000       4.891315       133.0994 
  74   0.0000       4.899951       133.3345 
  75   0.0000       5.108722       139.0154 
  76   0.0000       5.302557       144.2899 
  77   0.0000       5.736335       156.0936 
  78   0.0000       6.076551       165.3514 
  79   0.0000       6.265570       170.4948 
  80   0.0000       6.444856       175.3735 
  81   0.0000       6.647946       180.8998 
  82   0.0000       6.723780       182.9633 
  83   0.0000       6.775552       184.3721 
  84   0.0000       6.788716       184.7303 
  85   0.0000       6.837964       186.0705 
  86   0.0000       6.870853       186.9654 
  87   0.0000       7.022757       191.0989 
  88   0.0000       7.397065       201.2844 
  89   0.0000       7.450985       202.7516 
  90   0.0000       8.254703       224.6219 
  91   0.0000      14.693768       399.8378 

                    ********************************
                    * MULLIKEN POPULATION ANALYSIS *
                    ********************************

-----------------------
MULLIKEN ATOMIC CHARGES
-----------------------
   0 O :   -0.330387
   1 H :    0.167124
   2 H :    0.163263
Sum of atomic charges:   -0.0000000

--------------------------------
MULLIKEN REDUCED ORBITAL CHARGES
--------------------------------
  0 O s       :     3.937690  s :     3.937690
      pz      :     1.493059  p :     4.386756
      px      :     1.571062
      py      :     1.322634
      dz2     :     0.000985  d :     0.005698
      dxz     :     0.001814
      dyz     :    -0.000287
      dx2y2   :     0.001856
      dxy     :     0.001330
      f0      :     0.000040  f :     0.000243
      f+1     :     0.000201
      f-1     :    -0.000010
      f+2     :     0.000006
      f-2     :    -0.000018
      f+3     :     0.000076
      f-3     :    -0.000051
  1 H s       :     0.714537  s :     0.714537
      pz      :     0.044299  p :     0.101612
      px      :     0.042788
      py      :     0.014526
      dz2     :     0.001738  d :     0.016726
      dxz     :     0.001637
      dyz     :     0.005311
      dx2y2   :     0.001938
      dxy     :     0.006103
  2 H s       :     0.708001  s :     0.708001
      pz      :     0.030214  p :     0.110363
      px      :     0.040765
      py      :     0.039384
      dz2     :     0.009154  d :     0.018373
      dxz     :    -0.000030
      dyz     :     0.002892
      dx2y2   :     0.004086
      dxy     :     0.002271


                     *******************************
                     * LOEWDIN POPULATION ANALYSIS *
                     *******************************

----------------------
LOEWDIN ATOMIC CHARGES
----------------------
   0 O :    1.018809
   1 H :   -0.509094
   2 H :   -0.509716

-------------------------------
LOEWDIN REDUCED ORBITAL CHARGES
-------------------------------
  0 O s       :     3.022266  s :     3.022266
      pz      :     1.293028  p :     3.873372
      px      :     1.345594
      py      :     1.234751
      dz2     :     0.009327  d :     0.069355
      dxz     :     0.020592
      dyz     :     0.010799
      dx2y2   :     0.019190
      dxy     :     0.009446
      f0      :     0.001082  f :     0.016198
      f+1     :     0.004038
      f-1     :     0.001530
      f+2     :     0.002591
      f-2     :     0.001892
      f+3     :     0.003347
      f-3     :     0.001716
  1 H s       :     0.591524  s :     0.591524
      pz      :     0.154042  p :     0.562042
      px      :     0.171468
      py      :     0.236531
      dz2     :     0.043506  d :     0.355528
      dxz     :     0.016705
      dyz     :     0.102365
      dx2y2   :     0.087364
      dxy     :     0.105589
  2 H s       :     0.591182  s :     0.591182
      pz      :     0.211704  p :     0.563330
      px      :     0.208546
      py      :     0.143080
      dz2     :     0.095318  d :     0.355204
      dxz     :     0.088862
      dyz     :     0.071501
      dx2y2   :     0.057361
      dxy     :     0.042162


                      *****************************
                      * MAYER POPULATION ANALYSIS *
                      *****************************

  NA   - Mulliken gross atomic population
  ZA   - Total nuclear charge
  QA   - Mulliken gross atomic charge
  VA   - Mayer's total valence
  BVA  - Mayer's bonded valence
  FA   - Mayer's free valence

  ATOM       NA         ZA         QA         VA         BVA        FA
  0 O      8.3304     8.0000    -0.3304     2.0317     2.0317    -0.0000
  1 H      0.8329     1.0000     0.1671     1.0492     1.0492    -0.0000
  2 H      0.8367     1.0000     0.1633     1.0693     1.0693    -0.0000

  Mayer bond orders larger than 0.100000
B(  0-O ,  1-H ) :   1.0058 B(  0-O ,  2-H ) :   1.0259 

-------
TIMINGS
-------

Total SCF time: 0 days 0 hours 0 min 0 sec 

Total time                  ....       0.660 sec
Sum of individual times     ....       0.526 sec  ( 79.7%)

Fock matrix formation       ....       0.454 sec  ( 68.8%)
  Split-RI-J                ....       0.338 sec  ( 74.4% of F)
  XC integration            ....       0.040 sec  (  8.8% of F)
    Basis function eval.    ....       0.003 sec  (  7.5% of XC)
    Density eval.           ....       0.005 sec  ( 12.4% of XC)
    XC-Functional eval.     ....       0.002 sec  (  6.2% of XC)
    XC-Potential eval.      ....       0.008 sec  ( 21.1% of XC)
Diagonalization             ....       0.001 sec  (  0.2%)
Density matrix formation    ....       0.002 sec  (  0.3%)
Population analysis         ....       0.002 sec  (  0.4%)
Initial guess               ....       0.005 sec  (  0.8%)
Orbital Transformation      ....       0.000 sec  (  0.0%)
Orbital Orthonormalization  ....       0.002 sec  (  0.3%)
DIIS solution               ....       0.000 sec  (  0.0%)
SOSCF solution              ....       0.002 sec  (  0.4%)
Grid generation             ....       0.058 sec  (  8.8%)


-------------------------------------------------------------------------------
                          DFT DISPERSION CORRECTION                            
                                                                               
                              DFTD3 V3.1  Rev 1                                
                          USING Becke-Johnson damping                          
-------------------------------------------------------------------------------
The TPSS functional is recognized
Active option DFTDOPT                   ...         4   

molecular C6(AA) [au] = 44.538173 


            DFT-D V3
 parameters
 s6 scaling factor         :     1.0000 
 a1 scaling factor         :     0.4535 
 s8 scaling factor         :     1.9435 
 a2 scaling factor         :     4.4752 
 ad hoc parameters k1-k3   :    16.0000     1.3333    -4.0000 

 Edisp/kcal,au: -0.263847757264  -0.000420468120 
 E6   /kcal   :  -0.151569977 
 E8   /kcal   :  -0.112277781 
 % E8         :  42.554002274 

-------------------------   ----------------
Dispersion correction           -0.000420468
-------------------------   ----------------


-------------------------   --------------------
FINAL SINGLE POINT ENERGY       -76.467321118519
-------------------------   --------------------

                                *** OPTIMIZATION RUN DONE ***

                            ***************************************
                            *     ORCA property calculations      *
                            ***************************************

                                    ---------------------
                                    Active property flags
                                    ---------------------
   (+) Dipole Moment


------------------------------------------------------------------------------
                       ORCA ELECTRIC PROPERTIES CALCULATION
------------------------------------------------------------------------------

Dipole Moment Calculation                       ... on
Quadrupole Moment Calculation                   ... off
Polarizability Calculation                      ... off
GBWName                                         ... 17_H2O.gbw
Electron density file                           ... 17_H2O.scfp
The origin for moment calculation is the CENTER OF MASS  = ( 0.094295,  0.069731 -0.050041)

-------------
DIPOLE MOMENT
-------------
                                X             Y             Z
Electronic contribution:     -0.20655      -0.14941       0.10563
Nuclear contribution   :      0.73470       0.54404      -0.38316
                        -----------------------------------------
Total Dipole Moment    :      0.52815       0.39463      -0.27753
                        -----------------------------------------
Magnitude (a.u.)       :      0.71533
Magnitude (Debye)      :      1.81823



--------------------
Rotational spectrum 
--------------------
 
Rotational constants in cm-1:    26.556049    14.325102     9.305465 
Rotational constants in MHz : 796130.309655 429455.760177 278970.817104 

 Dipole components along the rotational axes: 
x,y,z [a.u.] :     0.001266     0.715324    -0.002772 
x,y,z [Debye]:     0.003217     1.818210    -0.007046 

 

----------------------------------------------------------------------------
                           ORCA NUMERICAL FREQUENCIES
                              (24-process run)
----------------------------------------------------------------------------

Number of atoms                ... 3
Central differences            ... used
Number of displacements        ... 18
Numerical increment            ... 5.000e-03 bohr
IR-spectrum generation         ... on
Raman-spectrum generation      ... off
Surface Crossing Hessian       ... off

 WARNING: There are more processes than displacements to do
  ====> : Reducing number of processes to   9

The output will be reduced. Please look at the following files:
SCF program output             ... >17_H2O.lastscf
Integral program output        ... >17_H2O.lastint
Gradient program output        ... >17_H2O.lastgrad
Dipole moment program output   ... >17_H2O.lastmom
AutoCI program output          ... >17_H2O.lastautoci


         <<< Energy and Gradient at the input geometry >>>

        <<< Energy and Gradient at displaced geometries >>>
             <<<Displacing   3/coordinate 1 (+)>>>
             <<<Displacing   2/coordinate 2 (+)>>>
             <<<Displacing   3/coordinate 3 (+)>>>
             <<<Displacing   1/coordinate 1 (+)>>>
             <<<Displacing   2/coordinate 1 (+)>>>
             <<<Displacing   3/coordinate 2 (+)>>>
             <<<Displacing   2/coordinate 3 (+)>>>
             <<<Displacing   1/coordinate 2 (+)>>>
             <<<Displacing   1/coordinate 3 (+)>>>
             <<<Displacing   2/coordinate 2 (-)>>>
             <<<Displacing   3/coordinate 2 (-)>>>
             <<<Displacing   1/coordinate 3 (-)>>>
             <<<Displacing   1/coordinate 1 (-)>>>
             <<<Displacing   2/coordinate 3 (-)>>>
             <<<Displacing   3/coordinate 1 (-)>>>
             <<<Displacing   1/coordinate 2 (-)>>>
             <<<Displacing   2/coordinate 1 (-)>>>
             <<<Displacing   3/coordinate 3 (-)>>>

-----------------------
VIBRATIONAL FREQUENCIES
-----------------------

Scaling factor for frequencies =  1.000000000 (already applied!)

   0:         0.00 cm**-1
   1:         0.00 cm**-1
   2:         0.00 cm**-1
   3:         0.00 cm**-1
   4:         0.00 cm**-1
   5:         0.00 cm**-1
   6:      1632.24 cm**-1
   7:      3698.40 cm**-1
   8:      3802.71 cm**-1


------------
NORMAL MODES
------------

These modes are the cartesian displacements weighted by the diagonal matrix
M(i,i)=1/sqrt(m[i]) where m[i] is the mass of the displaced atom
Thus, these vectors are normalized but *not* orthogonal

                  0          1          2          3          4          5    
      0       0.000000   0.000000   0.000000   0.000000   0.000000   0.000000
      1       0.000000   0.000000   0.000000   0.000000   0.000000   0.000000
      2       0.000000   0.000000   0.000000   0.000000   0.000000   0.000000
      3       0.000000   0.000000   0.000000   0.000000   0.000000   0.000000
      4       0.000000   0.000000   0.000000   0.000000   0.000000   0.000000
      5       0.000000   0.000000   0.000000   0.000000   0.000000   0.000000
      6       0.000000   0.000000   0.000000   0.000000   0.000000   0.000000
      7       0.000000   0.000000   0.000000   0.000000   0.000000   0.000000
      8       0.000000   0.000000   0.000000   0.000000   0.000000   0.000000
                   6          7          8    
      0       0.052551   0.036671  -0.015424
      1       0.038928   0.027511   0.051755
      2      -0.027398  -0.018918   0.044701
      3      -0.509312  -0.165703  -0.199691
      4       0.005971  -0.653980  -0.646245
      5       0.487917  -0.221853  -0.185036
      6      -0.324783  -0.416338   0.444495
      7      -0.623840   0.217325  -0.175211
      8      -0.053050   0.522118  -0.524465


-----------
IR SPECTRUM  
-----------

 Mode    freq (cm**-1)   T**2         TX         TY         TZ
-------------------------------------------------------------------
   6:      1632.24   63.862284  ( -5.947273  -4.387607   3.039923)
   7:      3698.40    1.417634  ( -0.906299  -0.625303   0.453049)
   8:      3802.71   41.918091  (  1.456482  -4.711905  -4.194604)

The first frequency considered to be a vibration is 6
The total number of vibrations considered is 3


--------------------------
THERMOCHEMISTRY AT 298.15K
--------------------------

Temperature         ... 298.15 K
Pressure            ... 1.00 atm
Total Mass          ... 18.02 AMU

Throughout the following assumptions are being made:
  (1) The electronic state is orbitally nondegenerate
  (2) There are no thermally accessible electronically excited states
  (3) Hindered rotations indicated by low frequency modes are not
      treated as such but are treated as vibrations and this may
      cause some error
  (4) All equations used are the standard statistical mechanics
      equations for an ideal gas
  (5) All vibrations are strictly harmonic

freq.    1632.24  E(vib)   ...       0.00 
freq.    3698.40  E(vib)   ...       0.00 
freq.    3802.71  E(vib)   ...       0.00 

------------
INNER ENERGY
------------

The inner energy is: U= E(el) + E(ZPE) + E(vib) + E(rot) + E(trans)
    E(el)   - is the total energy from the electronic structure calculation
              = E(kin-el) + E(nuc-el) + E(el-el) + E(nuc-nuc)
    E(ZPE)  - the the zero temperature vibrational energy from the frequency calculation
    E(vib)  - the the finite temperature correction to E(ZPE) due to population
              of excited vibrational states
    E(rot)  - is the rotational thermal energy
    E(trans)- is the translational thermal energy

Summary of contributions to the inner energy U:
Electronic energy                ...    -76.46732112 Eh
Zero point energy                ...      0.02080732 Eh      13.06 kcal/mol
Thermal vibrational correction   ...      0.00000282 Eh       0.00 kcal/mol
Thermal rotational correction    ...      0.00141627 Eh       0.89 kcal/mol
Thermal translational correction ...      0.00141627 Eh       0.89 kcal/mol
-----------------------------------------------------------------------
Total thermal energy                    -76.44367843 Eh


Summary of corrections to the electronic energy:
(perhaps to be used in another calculation)
Total thermal correction                  0.00283537 Eh       1.78 kcal/mol
Non-thermal (ZPE) correction              0.02080732 Eh      13.06 kcal/mol
-----------------------------------------------------------------------
Total correction                          0.02364269 Eh      14.84 kcal/mol


--------
ENTHALPY
--------

The enthalpy is H = U + kB*T
                kB is Boltzmann's constant
Total free energy                 ...    -76.44367843 Eh 
Thermal Enthalpy correction       ...      0.00094421 Eh       0.59 kcal/mol
-----------------------------------------------------------------------
Total Enthalpy                    ...    -76.44273422 Eh


Note: Rotational entropy computed according to Herzberg 
Infrared and Raman Spectra, Chapter V,1, Van Nostrand Reinhold, 1945 
Point Group:  Cs, Symmetry Number:   1  
Rotational constants in cm-1:    26.556049    14.325102     9.305465 

Vibrational entropy computed according to the QRRHO of S. Grimme
Chem.Eur.J. 2012 18 9955


-------
ENTROPY
-------

The entropy contributions are T*S = T*(S(el)+S(vib)+S(rot)+S(trans))
     S(el)   - electronic entropy
     S(vib)  - vibrational entropy
     S(rot)  - rotational entropy
     S(trans)- translational entropy
The entropies will be listed as mutliplied by the temperature to get
units of energy

Electronic entropy                ...      0.00000000 Eh      0.00 kcal/mol
Vibrational entropy               ...      0.00000318 Eh      0.00 kcal/mol
Rotational entropy                ...      0.00565295 Eh      3.55 kcal/mol
Translational entropy             ...      0.01644380 Eh     10.32 kcal/mol
-----------------------------------------------------------------------
Final entropy term                ...      0.02209993 Eh     13.87 kcal/mol

In case the symmetry of your molecule has not been determined correctly
or in case you have a reason to use a different symmetry number we print 
out the resulting rotational entropy values for sn=1,12 :
 --------------------------------------------------------
|  sn= 1 | S(rot)=       0.00565295 Eh      3.55 kcal/mol|
|  sn= 2 | S(rot)=       0.00499849 Eh      3.14 kcal/mol|
|  sn= 3 | S(rot)=       0.00461566 Eh      2.90 kcal/mol|
|  sn= 4 | S(rot)=       0.00434403 Eh      2.73 kcal/mol|
|  sn= 5 | S(rot)=       0.00413335 Eh      2.59 kcal/mol|
|  sn= 6 | S(rot)=       0.00396120 Eh      2.49 kcal/mol|
|  sn= 7 | S(rot)=       0.00381566 Eh      2.39 kcal/mol|
|  sn= 8 | S(rot)=       0.00368958 Eh      2.32 kcal/mol|
|  sn= 9 | S(rot)=       0.00357837 Eh      2.25 kcal/mol|
|  sn=10 | S(rot)=       0.00347889 Eh      2.18 kcal/mol|
|  sn=11 | S(rot)=       0.00338890 Eh      2.13 kcal/mol|
|  sn=12 | S(rot)=       0.00330675 Eh      2.08 kcal/mol|
 --------------------------------------------------------


-------------------
GIBBS FREE ENERGY
-------------------

The Gibbs free energy is G = H - T*S

Total enthalpy                    ...    -76.44273422 Eh 
Total entropy correction          ...     -0.02209993 Eh    -13.87 kcal/mol
-----------------------------------------------------------------------
Final Gibbs free energy         ...    -76.46483416 Eh

For completeness - the Gibbs free energy minus the electronic energy
G-E(el)                           ...      0.00248697 Eh      1.56 kcal/mol


Total Time for Numerical Frequencies  :        10.316 sec

Timings for individual modules:

Sum of individual times         ...       13.907 sec (=   0.232 min)
GTO integral calculation        ...        3.205 sec (=   0.053 min)  23.0 %
SCF iterations                  ...        7.104 sec (=   0.118 min)  51.1 %
SCF Gradient evaluation         ...        3.444 sec (=   0.057 min)  24.8 %
Geometry relaxation             ...        0.153 sec (=   0.003 min)   1.1 %
                             ****ORCA TERMINATED NORMALLY****
TOTAL RUN TIME: 0 days 0 hours 0 minutes 23 seconds 10 msec
