
                                 *****************
                                 * O   R   C   A *
                                 *****************

           --- An Ab Initio, DFT and Semiempirical electronic structure package ---

                  #######################################################
                  #                        -***-                        #
                  #          Department of theory and spectroscopy      #
                  #               Directorship: Frank Neese             #
                  #        Max Planck Institute fuer Kohlenforschung    #
                  #                Kaiser Wilhelm Platz 1               #
                  #                 D-45470 Muelheim/Ruhr               #
                  #                      Germany                        #
                  #                                                     #
                  #                  All rights reserved                #
                  #                        -***-                        #
                  #######################################################


                         Program Version 4.2.0 -  RELEASE  -


 With contributions from (in alphabetic order):
   Daniel Aravena         : Magnetic Suceptibility
   Michael Atanasov       : Ab Initio Ligand Field Theory (pilot matlab implementation)
   Alexander A. Auer      : GIAO ZORA, VPT2
   Ute Becker             : Parallelization
   Giovanni Bistoni       : ED, misc. LED, open-shell LED, HFLED
   Martin Brehm           : Molecular dynamics
   Dmytro Bykov           : SCF Hessian
   Vijay G. Chilkuri      : MRCI spin determinant printing, contributions to CSF-ICE
   Dipayan Datta          : RHF DLPNO-CCSD density
   Achintya Kumar Dutta   : EOM-CC, STEOM-CC
   Dmitry Ganyushin       : Spin-Orbit,Spin-Spin,Magnetic field MRCI
   Miquel Garcia          : C-PCM Hessian, Gaussian charge scheme
   Yang Guo               : DLPNO-NEVPT2, CIM, IAO-localization
   Andreas Hansen         : Spin unrestricted coupled pair/coupled cluster methods
   Benjamin Helmich-Paris : CASSCF linear response (MC-RPA)
   Lee Huntington         : MR-EOM, pCC
   Robert Izsak           : Overlap fitted RIJCOSX, COSX-SCS-MP3, EOM
   Christian Kollmar      : KDIIS, OOCD, Brueckner-CCSD(T), CCSD density
   Simone Kossmann        : Meta GGA functionals, TD-DFT gradient, OOMP2, MP2 Hessian
   Martin Krupicka        : AUTO-CI
   Lucas Lang             : DCDCAS
   Dagmar Lenk            : GEPOL surface, SMD
   Dimitrios Liakos       : Extrapolation schemes; Compound Job, initial MDCI parallelization
   Dimitrios Manganas     : Further ROCIS development; embedding schemes
   Dimitrios Pantazis     : SARC Basis sets
   Taras Petrenko         : DFT Hessian,TD-DFT gradient, ASA, ECA, R-Raman, ABS, FL, XAS/XES, NRVS
   Peter Pinski           : DLPNO-MP2, DLPNO-MP2 Gradient
   Christoph Reimann      : Effective Core Potentials
   Marius Retegan         : Local ZFS, SOC
   Christoph Riplinger    : Optimizer, TS searches, QM/MM, DLPNO-CCSD(T), (RO)-DLPNO pert. Triples
   Tobias Risthaus        : Range-separated hybrids, TD-DFT gradient, RPA, STAB
   Michael Roemelt        : Original ROCIS implementation
   Masaaki Saitow         : Open-shell DLPNO-CCSD energy and density
   Barbara Sandhoefer     : DKH picture change effects
   Avijit Sen             : IP-ROCIS
   Kantharuban Sivalingam : CASSCF convergence, NEVPT2, FIC-MRCI
   Bernardo de Souza      : ESD, SOC TD-DFT
   Georgi Stoychev        : AutoAux, RI-MP2 NMR
   Willem Van den Heuvel  : Paramagnetic NMR
   Boris Wezisla          : Elementary symmetry handling
   Frank Wennmohs         : Technical directorship


 We gratefully acknowledge several colleagues who have allowed us to
 interface, adapt or use parts of their codes:
   Stefan Grimme, W. Hujo, H. Kruse,             : VdW corrections, initial TS optimization,
                  C. Bannwarth                     DFT functionals, gCP, sTDA/sTD-DF
   Ed Valeev, F. Pavosevic, A. Kumar             : LibInt (2-el integral package), F12 methods
   Garnet Chan, S. Sharma, J. Yang, R. Olivares  : DMRG
   Ulf Ekstrom                                   : XCFun DFT Library
   Mihaly Kallay                                 : mrcc  (arbitrary order and MRCC methods)
   Andreas Klamt, Michael Diedenhofen            : otool_cosmo (COSMO solvation model)
   Jiri Pittner, Ondrej Demel                    : Mk-CCSD
   Frank Weinhold                                : gennbo (NPA and NBO analysis)
   Christopher J. Cramer and Donald G. Truhlar   : smd solvation model
   Lars Goerigk                                  : TD-DFT with DH, B97 family of functionals
   V. Asgeirsson, H. Jonsson                     : NEB implementation
   FAccTs GmbH                                   : IRC, NEB, NEB-TS, Multilevel, MM, QM/MM, CI optimization
   S Lehtola, MJT Oliveira, MAL Marques          : LibXC Library


 Your calculation uses the libint2 library for the computation of 2-el integrals
 For citations please refer to: http://libint.valeyev.net

 Your ORCA version has been built with support for libXC version: 4.2.3
 For citations please refer to: https://tddft.org/programs/libxc/

 This ORCA versions uses:
   CBLAS   interface :  Fast vector & matrix operations
   LAPACKE interface :  Fast linear algebra routines
   SCALAPACK package :  Parallel linear algebra routines


Your calculation utilizes the atom-pairwise dispersion correction
with the Becke-Johnson damping scheme (D3BJ)
Cite in your paper:
S.Grimme, S.Ehrlich, L.Goerigk, J Comput Chem, (2011), 32, 1456–1465 
S.Grimme, J.Antony, S.Ehrlich and H.Krieg, J.Chem.Phys., 132, (2010), 154104 
   

----- Orbital basis set information -----
Your calculation utilizes the basis: aug-cc-pV(T+d)Z 
             Al - Ar: T.H. Dunning, Jr., K. A. Peterson and A. K. Wilson, J. Chem. Phys.
                      114, 9244 (2001)

----- AuxJ basis set information -----
Your calculation utilizes the auxiliary basis: def2/J
   F. Weigend, Phys. Chem. Chem. Phys. 8, 1057 (2006).

================================================================================
                                        WARNINGS
                       Please study these warnings very carefully!
================================================================================


WARNING: Geometry Optimization
  ===> : Switching off AutoStart
         For restart on a previous wavefunction, please use MOREAD

INFO   : the flag for use of LIBINT has been found!

================================================================================
                                       INPUT FILE
================================================================================
NAME = 20_HCN.in
|  1> #
|  2> # 20_HCN tpss/aug-cc-pvt(+d)z
|  3> #
|  4> ! tpss d3bj aug-cc-pvt(+d)z def2/j opt xyzfile numfreq
|  5> 
|  6> *xyz 0 1
|  7> C           0.000000000         0.000000000         -0.025909074
|  8> N           0.000000000         0.000000000          1.121277177
|  9> H           0.000000000         0.000000000         -1.095368103
| 10> *
| 11> 
| 12> %pal
| 13> nprocs 24
| 14> end
| 15> 
| 16> 
| 17>                          ****END OF INPUT****
================================================================================

                       *****************************
                       * Geometry Optimization Run *
                       *****************************

Geometry optimization settings:
Update method            Update   .... BFGS
Choice of coordinates    CoordSys .... Z-matrix Internals
Initial Hessian          InHess   .... Almoef's Model

Convergence Tolerances:
Energy Change            TolE     ....  5.0000e-06 Eh
Max. Gradient            TolMAXG  ....  3.0000e-04 Eh/bohr
RMS Gradient             TolRMSG  ....  1.0000e-04 Eh/bohr
Max. Displacement        TolMAXD  ....  4.0000e-03 bohr
RMS Displacement         TolRMSD  ....  2.0000e-03 bohr
Strict Convergence                ....  False
------------------------------------------------------------------------------
                        ORCA OPTIMIZATION COORDINATE SETUP
------------------------------------------------------------------------------

The optimization will be done in new redundant internal coordinates
Making redundant internal coordinates   ...  (new redundants) done
Evaluating the initial hessian          ...  (Almloef) done
Evaluating the coordinates              ...  done
Calculating the B-matrix                .... done
Calculating the G-matrix                .... done
Diagonalizing the G-matrix              .... done
The first mode is                       ....    0
The number of degrees of freedom        ....    4

    -----------------------------------------------------------------
                    Redundant Internal Coordinates


    -----------------------------------------------------------------
         Definition                    Initial Value    Approx d2E/dq
    -----------------------------------------------------------------
      1. B(N   1,C   0)                  1.1472         1.365430   
      2. B(H   2,C   0)                  1.0695         0.388325   
      3. L(N   1,C   0,H   2, 2)       180.0000         0.407339   
      4. L(N   1,C   0,H   2, 1)       180.0000         0.407339   
    -----------------------------------------------------------------

Number of atoms                         .... 3
Number of degrees of freedom            .... 4

         *************************************************************
         *                GEOMETRY OPTIMIZATION CYCLE   1            *
         *************************************************************
---------------------------------
CARTESIAN COORDINATES (ANGSTROEM)
---------------------------------
  C      0.000000    0.000000   -0.025909
  N      0.000000    0.000000    1.121277
  H      0.000000    0.000000   -1.095368

----------------------------
CARTESIAN COORDINATES (A.U.)
----------------------------
  NO LB      ZA    FRAG     MASS         X           Y           Z
   0 C     6.0000    0    12.011    0.000000    0.000000   -0.048961
   1 N     7.0000    0    14.007    0.000000    0.000000    2.118907
   2 H     1.0000    0     1.008    0.000000    0.000000   -2.069946

--------------------------------
INTERNAL COORDINATES (ANGSTROEM)
--------------------------------
 C      0   0   0     0.000000000000     0.00000000     0.00000000
 N      1   0   0     1.147186251000     0.00000000     0.00000000
 H      1   2   0     1.069459029000   179.99999879     0.00000000

---------------------------
INTERNAL COORDINATES (A.U.)
---------------------------
 C      0   0   0     0.000000000000     0.00000000     0.00000000
 N      1   0   0     2.167867838990     0.00000000     0.00000000
 H      1   2   0     2.020984676259   179.99999879     0.00000000

---------------------
BASIS SET INFORMATION
---------------------
There are 3 groups of distinct atoms

 Group   1 Type C   : 19s6p3d2f contracted to 5s4p3d2f pattern {88111/3111/111/11}
 Group   2 Type N   : 19s6p3d2f contracted to 5s4p3d2f pattern {88111/3111/111/11}
 Group   3 Type H   : 6s3p2d contracted to 4s3p2d pattern {3111/111/11}

Atom   0C    basis set group =>   1
Atom   1N    basis set group =>   2
Atom   2H    basis set group =>   3
---------------------------------
AUXILIARY/J BASIS SET INFORMATION
---------------------------------
There are 3 groups of distinct atoms

 Group   1 Type C   : 12s5p4d2f1g contracted to 6s4p3d1f1g pattern {711111/2111/211/2/1}
 Group   2 Type N   : 12s5p4d2f1g contracted to 6s4p3d1f1g pattern {711111/2111/211/2/1}
 Group   3 Type H   : 5s2p1d contracted to 3s1p1d pattern {311/2/1}

Atom   0C    basis set group =>   1
Atom   1N    basis set group =>   2
Atom   2H    basis set group =>   3


           ************************************************************
           *        Program running with 24 parallel MPI-processes    *
           *              working on a common directory               *
           ************************************************************
------------------------------------------------------------------------------
                           ORCA GTO INTEGRAL CALCULATION
                           -- RI-GTO INTEGRALS CHOSEN --
------------------------------------------------------------------------------

                         BASIS SET STATISTICS AND STARTUP INFO

Gaussian basis set:
 # of primitive gaussian shells          ...   71
 # of primitive gaussian functions       ...  157
 # of contracted shells                  ...   37
 # of contracted basis functions         ...  115
 Highest angular momentum                ...    3
 Maximum contraction depth               ...    8
Auxiliary gaussian basis set:
 # of primitive gaussian shells          ...   56
 # of primitive gaussian functions       ...  156
 # of contracted shells                  ...   35
 # of contracted aux-basis functions     ...  109
 Highest angular momentum                ...    4
 Maximum contraction depth               ...    7
Ratio of auxiliary to basis functions    ...  0.95
Integral package used                  ... LIBINT
 One Electron integrals                  ... done
 Ordering auxiliary basis shells         ... done
 Integral threshhold             Thresh  ...  2.500e-11
 Primitive cut-off               TCut    ...  2.500e-12
 Pre-screening matrix                    ... done
 Shell pair data                         ... 
 Ordering of the shell pairs             ... done (   0.000 sec) 703 of 703 pairs
 Determination of significant pairs      ... done (   0.000 sec)
 Creation of shell pair data             ... done (   0.000 sec)
 Storage of shell pair data              ... done (   0.004 sec)
 Shell pair data done in (   0.004 sec)
 Computing two index integrals           ... done
 Cholesky decomposition of the V-matrix  ... done


Timings:
 Total evaluation time                   ...   0.232 sec (  0.004 min)
 One electron matrix time                ...   0.013 sec (  0.000 min) =  5.8%
 Schwartz matrix evaluation time         ...   0.191 sec (  0.003 min) = 82.2%
 Two index repulsion integral time       ...   0.001 sec (  0.000 min) =  0.2%
 Cholesky decomposition of V             ...   0.001 sec (  0.000 min) =  0.3%
 Three index repulsion integral time     ...   0.000 sec (  0.000 min) =  0.0%



           ************************************************************
           *        Program running with 24 parallel MPI-processes    *
           *              working on a common directory               *
           ************************************************************
-------------------------------------------------------------------------------
                                 ORCA SCF
-------------------------------------------------------------------------------

------------
SCF SETTINGS
------------
Hamiltonian:
 Density Functional     Method          .... DFT(GTOs)
 Exchange Functional    Exchange        .... TPSS
 Correlation Functional Correlation     .... TPSS
 LDA part of GGA corr.  LDAOpt          .... PW91-LDA
 Gradients option       PostSCFGGA      .... off
   Density functional embedding theory  .... OFF
   NL short-range parameter             ....  5.000000
 RI-approximation to the Coulomb term is turned on
   Number of auxiliary basis functions  .... 109


General Settings:
 Integral files         IntName         .... 20_HCN
 Hartree-Fock type      HFTyp           .... RHF
 Total Charge           Charge          ....    0
 Multiplicity           Mult            ....    1
 Number of Electrons    NEL             ....   14
 Basis Dimension        Dim             ....  115
 Nuclear Repulsion      ENuc            ....     24.0138266237 Eh

Convergence Acceleration:
 DIIS                   CNVDIIS         .... on
   Start iteration      DIISMaxIt       ....    12
   Startup error        DIISStart       ....  0.200000
   # of expansion vecs  DIISMaxEq       ....     5
   Bias factor          DIISBfac        ....   1.050
   Max. coefficient     DIISMaxC        ....  10.000
 Newton-Raphson         CNVNR           .... off
 SOSCF                  CNVSOSCF        .... on
   Start iteration      SOSCFMaxIt      ....   150
   Startup grad/error   SOSCFStart      ....  0.003300
 Level Shifting         CNVShift        .... on
   Level shift para.    LevelShift      ....    0.2500
   Turn off err/grad.   ShiftErr        ....    0.0010
 Zerner damping         CNVZerner       .... off
 Static damping         CNVDamp         .... on
   Fraction old density DampFac         ....    0.7000
   Max. Damping (<1)    DampMax         ....    0.9800
   Min. Damping (>=0)   DampMin         ....    0.0000
   Turn off err/grad.   DampErr         ....    0.1000
 Fernandez-Rico         CNVRico         .... off

SCF Procedure:
 Maximum # iterations   MaxIter         ....   125
 SCF integral mode      SCFMode         .... Direct
   Integral package                     .... LIBINT
 Reset frequency        DirectResetFreq ....    20
 Integral Threshold     Thresh          ....  2.500e-11 Eh
 Primitive CutOff       TCut            ....  2.500e-12 Eh

Convergence Tolerance:
 Convergence Check Mode ConvCheckMode   .... Total+1el-Energy
 Convergence forced     ConvForced      .... 0
 Energy Change          TolE            ....  1.000e-08 Eh
 1-El. energy change                    ....  1.000e-05 Eh
 Orbital Gradient       TolG            ....  1.000e-05
 Orbital Rotation angle TolX            ....  1.000e-05
 DIIS Error             TolErr          ....  5.000e-07


Diagonalization of the overlap matrix:
Smallest eigenvalue                        ... 8.604e-05
Time for diagonalization                   ...    0.004 sec
Threshold for overlap eigenvalues          ... 1.000e-08
Number of eigenvalues below threshold      ... 0
Time for construction of square roots      ...    0.002 sec
Total time needed                          ...    0.006 sec

-------------------
DFT GRID GENERATION
-------------------

General Integration Accuracy     IntAcc      ...  4.340
Radial Grid Type                 RadialGrid  ... Gauss-Chebyshev
Angular Grid (max. acc.)         AngularGrid ... Lebedev-110
Angular grid pruning method      GridPruning ... 3 (G Style)
Weight generation scheme         WeightScheme... Becke
Basis function cutoff            BFCut       ...    1.0000e-11
Integration weight cutoff        WCut        ...    1.0000e-14
Grids for H and He will be reduced by one unit

# of grid points (after initial pruning)     ...   4152 (   0.0 sec)
# of grid points (after weights+screening)   ...   4100 (   0.0 sec)
nearest neighbour list constructed           ...    0.0 sec
Grid point re-assignment to atoms done       ...    0.0 sec
Grid point division into batches done        ...    0.0 sec
Reduced shell lists constructed in    0.0 sec

Total number of grid points                  ...     4100
Total number of batches                      ...       65
Average number of points per batch           ...       63
Average number of grid points per atom       ...     1367
Average number of shells per batch           ...    27.75 (75.00%)
Average number of basis functions per batch  ...    86.25 (75.00%)
Average number of large shells per batch     ...    27.25 (98.20%)
Average number of large basis fcns per batch ...    84.75 (98.26%)
Maximum spatial batch extension              ...  19.41, 31.36,  1.86 au
Average spatial batch extension              ...   0.69,  1.27,  0.09 au

Time for grid setup =    0.016 sec

------------------------------
INITIAL GUESS: MODEL POTENTIAL
------------------------------
Loading Hartree-Fock densities                     ... done
Calculating cut-offs                               ... done
Setting up the integral package                    ... done
Initializing the effective Hamiltonian             ... done
Starting the Coulomb interaction                   ... done (   0.0 sec)
Reading the grid                                   ... done
Mapping shells                                     ... done
Starting the XC term evaluation                    ... done (   0.0 sec)
  promolecular density results
     # of electrons  =     13.999527570
     EX              =    -11.845573802
     EC              =     -0.432852411
     EX+EC           =    -12.278426213
Transforming the Hamiltonian                       ... done (   0.0 sec)
Diagonalizing the Hamiltonian                      ... done (   0.0 sec)
Back transforming the eigenvectors                 ... done (   0.0 sec)
Now organizing SCF variables                       ... done
                      ------------------
                      INITIAL GUESS DONE (   0.1 sec)
                      ------------------
--------------
SCF ITERATIONS
--------------
ITER       Energy         Delta-E        Max-DP      RMS-DP      [F,P]     Damp
               ***  Starting incremental Fock matrix formation  ***
  0    -93.3881522909   0.000000000000 0.05048965  0.00134486  0.2701728 0.7000
  1    -93.4347982984  -0.046646007526 0.02662874  0.00078260  0.0742021 0.7000
                               ***Turning on DIIS***
  2    -93.4441171500  -0.009318851609 0.05333752  0.00128268  0.0474265 0.0000
  3    -93.4710922168  -0.026975066761 0.01322929  0.00054671  0.0341530 0.0000
  4    -93.4726010835  -0.001508866686 0.01115154  0.00023425  0.0399703 0.0000
  5    -93.4742234567  -0.001622373236 0.00196555  0.00006295  0.0105752 0.0000
  6    -93.4743455032  -0.000122046427 0.00055228  0.00002204  0.0033641 0.0000
                      *** Initiating the SOSCF procedure ***
                           *** Shutting down DIIS ***
                      *** Re-Reading the Fockian *** 
                      *** Removing any level shift *** 
ITER      Energy       Delta-E        Grad      Rot      Max-DP    RMS-DP
  7    -93.47435652  -0.0000110145  0.000163  0.000163  0.000244  0.000008
               *** Restarting incremental Fock matrix formation ***
  8    -93.47435760  -0.0000010820  0.000189  0.000628  0.000313  0.000011
  9    -93.47435620   0.0000013987  0.000571  0.000437  0.000231  0.000007
 10    -93.47435777  -0.0000015656  0.000012  0.000019  0.000027  0.000001
 11    -93.47435777   0.0000000003  0.000011  0.000010  0.000013  0.000000
                  ***Gradient check signals convergence***
              ***Rediagonalizing the Fockian in SOSCF/NRSCF***

               *****************************************************
               *                     SUCCESS                       *
               *           SCF CONVERGED AFTER  12 CYCLES          *
               *****************************************************

Setting up the final grid:

General Integration Accuracy     IntAcc      ...  4.670
Radial Grid Type                 RadialGrid  ... Gauss-Chebyshev
Angular Grid (max. acc.)         AngularGrid ... Lebedev-302
Angular grid pruning method      GridPruning ... 3 (G Style)
Weight generation scheme         WeightScheme... Becke
Basis function cutoff            BFCut       ...    1.0000e-11
Integration weight cutoff        WCut        ...    1.0000e-14
Grids for H and He will be reduced by one unit

# of grid points (after initial pruning)     ...  15818 (   0.0 sec)
# of grid points (after weights+screening)   ...  15666 (   0.0 sec)
nearest neighbour list constructed           ...    0.0 sec
Grid point re-assignment to atoms done       ...    0.0 sec
Grid point division into batches done        ...    0.1 sec
Reduced shell lists constructed in    0.1 sec

Total number of grid points                  ...    15666
Total number of batches                      ...      246
Average number of points per batch           ...       63
Average number of grid points per atom       ...     5222
Average number of shells per batch           ...    27.33 (73.87%)
Average number of basis functions per batch  ...    85.50 (74.35%)
Average number of large shells per batch     ...    22.00 (80.49%)
Average number of large basis fcns per batch ...    68.17 (79.73%)
Maximum spatial batch extension              ...  20.53, 25.05,  1.96 au
Average spatial batch extension              ...   0.59,  0.64,  0.09 au

Final grid set up in    0.1 sec
Final integration                            ... done (   0.0 sec)
Change in XC energy                          ...    -0.000516563
Integrated number of electrons               ...    13.999993417
Previous integrated no of electrons          ...    13.999430263

----------------
TOTAL SCF ENERGY
----------------

Total Energy       :          -93.47487433 Eh           -2543.58064 eV

Components:
Nuclear Repulsion  :           24.01382662 Eh             653.44944 eV
Electronic Energy  :         -117.48870096 Eh           -3197.03009 eV
One Electron Energy:         -173.09239872 Eh           -4710.08363 eV
Two Electron Energy:           55.60369776 Eh            1513.05354 eV

Virial components:
Potential Energy   :         -186.49823026 Eh           -5074.87485 eV
Kinetic Energy     :           93.02335593 Eh            2531.29420 eV
Virial Ratio       :            2.00485382


DFT components:
N(Alpha)           :        6.999996708728 electrons
N(Beta)            :        6.999996708728 electrons
N(Total)           :       13.999993417457 electrons
E(X)               :      -12.186828219485 Eh       
E(C)               :       -0.444060249887 Eh       
E(XC)              :      -12.630888469372 Eh       
DFET-embed. en.    :        0.000000000000 Eh       

---------------
SCF CONVERGENCE
---------------

  Last Energy change         ...   -3.0432e-09  Tolerance :   1.0000e-08
  Last MAX-Density change    ...    9.6582e-07  Tolerance :   1.0000e-07
  Last RMS-Density change    ...    3.2420e-08  Tolerance :   5.0000e-09
  Last Orbital Gradient      ...    5.1663e-07  Tolerance :   1.0000e-05
  Last Orbital Rotation      ...    6.5563e-07  Tolerance :   1.0000e-05

             **** THE GBW FILE WAS UPDATED (20_HCN.gbw) ****
             **** DENSITY FILE WAS UPDATED (20_HCN.scfp) ****
             **** ENERGY FILE WAS UPDATED (20_HCN.en.tmp) ****
             **** THE GBW FILE WAS UPDATED (20_HCN.gbw) ****
             **** DENSITY FILE WAS UPDATED (20_HCN.scfp) ****
----------------
ORBITAL ENERGIES
----------------

  NO   OCC          E(Eh)            E(eV) 
   0   2.0000     -14.126243      -384.3946 
   1   2.0000     -10.041831      -273.2521 
   2   2.0000      -0.864507       -23.5244 
   3   2.0000      -0.568424       -15.4676 
   4   2.0000      -0.342180        -9.3112 
   5   2.0000      -0.333421        -9.0728 
   6   2.0000      -0.333421        -9.0728 
   7   0.0000      -0.031799        -0.8653 
   8   0.0000      -0.031799        -0.8653 
   9   0.0000      -0.009453        -0.2572 
  10   0.0000       0.016588         0.4514 
  11   0.0000       0.046526         1.2660 
  12   0.0000       0.046526         1.2660 
  13   0.0000       0.077143         2.0992 
  14   0.0000       0.084438         2.2977 
  15   0.0000       0.118076         3.2130 
  16   0.0000       0.118076         3.2130 
  17   0.0000       0.138823         3.7776 
  18   0.0000       0.195552         5.3212 
  19   0.0000       0.198949         5.4137 
  20   0.0000       0.203230         5.5302 
  21   0.0000       0.218990         5.9590 
  22   0.0000       0.218990         5.9590 
  23   0.0000       0.293239         7.9794 
  24   0.0000       0.305015         8.2999 
  25   0.0000       0.338862         9.2209 
  26   0.0000       0.338862         9.2209 
  27   0.0000       0.423646        11.5280 
  28   0.0000       0.429523        11.6879 
  29   0.0000       0.429985        11.7005 
  30   0.0000       0.438352        11.9282 
  31   0.0000       0.438352        11.9282 
  32   0.0000       0.499330        13.5875 
  33   0.0000       0.517057        14.0698 
  34   0.0000       0.517057        14.0698 
  35   0.0000       0.634689        17.2708 
  36   0.0000       0.724030        19.7019 
  37   0.0000       0.724528        19.7154 
  38   0.0000       0.724748        19.7214 
  39   0.0000       0.729314        19.8456 
  40   0.0000       0.729314        19.8456 
  41   0.0000       0.796033        21.6612 
  42   0.0000       0.885375        24.0923 
  43   0.0000       0.896601        24.3978 
  44   0.0000       0.896601        24.3978 
  45   0.0000       0.912382        24.8272 
  46   0.0000       0.912382        24.8272 
  47   0.0000       0.931944        25.3595 
  48   0.0000       0.932562        25.3763 
  49   0.0000       1.010103        27.4863 
  50   0.0000       1.052034        28.6273 
  51   0.0000       1.052034        28.6273 
  52   0.0000       1.148617        31.2555 
  53   0.0000       1.151663        31.3383 
  54   0.0000       1.222034        33.2532 
  55   0.0000       1.358695        36.9720 
  56   0.0000       1.358695        36.9720 
  57   0.0000       1.394609        37.9492 
  58   0.0000       1.394609        37.9492 
  59   0.0000       1.444429        39.3049 
  60   0.0000       1.444429        39.3049 
  61   0.0000       1.537647        41.8415 
  62   0.0000       1.538533        41.8656 
  63   0.0000       1.648401        44.8553 
  64   0.0000       1.682895        45.7939 
  65   0.0000       1.807478        49.1840 
  66   0.0000       1.830155        49.8011 
  67   0.0000       1.830155        49.8011 
  68   0.0000       2.020181        54.9719 
  69   0.0000       2.021218        55.0001 
  70   0.0000       2.144039        58.3423 
  71   0.0000       2.144039        58.3423 
  72   0.0000       2.194396        59.7125 
  73   0.0000       2.316880        63.0455 
  74   0.0000       2.595831        70.6362 
  75   0.0000       2.595831        70.6362 
  76   0.0000       2.721249        74.0489 
  77   0.0000       3.007094        81.8272 
  78   0.0000       3.007094        81.8272 
  79   0.0000       3.041623        82.7668 
  80   0.0000       3.042590        82.7931 
  81   0.0000       3.139488        85.4298 
  82   0.0000       3.139488        85.4298 
  83   0.0000       3.155735        85.8719 
  84   0.0000       3.156679        85.8976 
  85   0.0000       3.370885        91.7264 
  86   0.0000       3.408125        92.7398 
  87   0.0000       3.408125        92.7398 
  88   0.0000       3.531164        96.0879 
  89   0.0000       3.942765       107.2881 
  90   0.0000       3.943490       107.3078 
  91   0.0000       4.003258       108.9342 
  92   0.0000       4.003258       108.9342 
  93   0.0000       4.121755       112.1587 
  94   0.0000       4.248929       115.6192 
  95   0.0000       4.457065       121.2829 
  96   0.0000       4.457065       121.2829 
  97   0.0000       4.603297       125.2621 
  98   0.0000       4.603297       125.2621 
  99   0.0000       4.819590       131.1477 
 100   0.0000       4.822780       131.2345 
 101   0.0000       5.014156       136.4421 
 102   0.0000       5.021405       136.6394 
 103   0.0000       5.021405       136.6394 
 104   0.0000       5.105675       138.9325 
 105   0.0000       5.109505       139.0367 
 106   0.0000       5.375693       146.2800 
 107   0.0000       5.375693       146.2800 
 108   0.0000       5.409544       147.2012 
 109   0.0000       5.947618       161.8429 
 110   0.0000       6.509637       177.1362 
 111   0.0000       6.509637       177.1362 
 112   0.0000       6.598816       179.5629 
 113   0.0000      13.511196       367.6583 
 114   0.0000      17.596694       478.8304 

                    ********************************
                    * MULLIKEN POPULATION ANALYSIS *
                    ********************************

-----------------------
MULLIKEN ATOMIC CHARGES
-----------------------
   0 C :   -0.308254
   1 N :   -0.283287
   2 H :    0.591541
Sum of atomic charges:    0.0000000

--------------------------------
MULLIKEN REDUCED ORBITAL CHARGES
--------------------------------
  0 C s       :     3.654410  s :     3.654410
      pz      :     0.789118  p :     2.595769
      px      :     0.903326
      py      :     0.903326
      dz2     :     0.023707  d :     0.036399
      dxz     :     0.006346
      dyz     :     0.006346
      dx2y2   :    -0.000000
      dxy     :    -0.000000
      f0      :     0.005660  f :     0.021675
      f+1     :     0.008007
      f-1     :     0.008007
      f+2     :    -0.000000
      f-2     :    -0.000000
      f+3     :     0.000000
      f-3     :     0.000000
  1 N s       :     3.958901  s :     3.958901
      pz      :     1.156174  p :     3.287461
      px      :     1.065644
      py      :     1.065644
      dz2     :    -0.005390  d :     0.036315
      dxz     :     0.020853
      dyz     :     0.020853
      dx2y2   :     0.000000
      dxy     :     0.000000
      f0      :    -0.000904  f :     0.000610
      f+1     :     0.000757
      f-1     :     0.000757
      f+2     :    -0.000000
      f-2     :    -0.000000
      f+3     :    -0.000000
      f-3     :    -0.000000
  2 H s       :     0.464395  s :     0.464395
      pz      :    -0.038083  p :    -0.048391
      px      :    -0.005154
      py      :    -0.005154
      dz2     :    -0.007987  d :    -0.007545
      dxz     :     0.000221
      dyz     :     0.000221
      dx2y2   :    -0.000000
      dxy     :    -0.000000


                     *******************************
                     * LOEWDIN POPULATION ANALYSIS *
                     *******************************

----------------------
LOEWDIN ATOMIC CHARGES
----------------------
   0 C :    0.080735
   1 N :    0.200381
   2 H :   -0.281116

-------------------------------
LOEWDIN REDUCED ORBITAL CHARGES
-------------------------------
  0 C s       :     2.738567  s :     2.738567
      pz      :     1.132667  p :     2.556393
      px      :     0.711863
      py      :     0.711863
      dz2     :     0.255221  d :     0.423817
      dxz     :     0.084298
      dyz     :     0.084298
      dx2y2   :     0.000000
      dxy     :     0.000000
      f0      :     0.093809  f :     0.200487
      f+1     :     0.053339
      f-1     :     0.053339
      f+2     :     0.000000
      f-2     :     0.000000
      f+3     :     0.000000
      f-3     :     0.000000
  1 N s       :     3.182113  s :     3.182113
      pz      :     1.426880  p :     3.274390
      px      :     0.923755
      py      :     0.923755
      dz2     :     0.122615  d :     0.239461
      dxz     :     0.058423
      dyz     :     0.058423
      dx2y2   :     0.000000
      dxy     :     0.000000
      f0      :     0.042179  f :     0.103655
      f+1     :     0.030738
      f-1     :     0.030738
      f+2     :     0.000000
      f-2     :     0.000000
      f+3     :     0.000000
      f-3     :     0.000000
  2 H s       :     0.767856  s :     0.767856
      pz      :     0.167119  p :     0.312451
      px      :     0.072666
      py      :     0.072666
      dz2     :     0.070974  d :     0.200809
      dxz     :     0.064918
      dyz     :     0.064918
      dx2y2   :     0.000000
      dxy     :     0.000000


                      *****************************
                      * MAYER POPULATION ANALYSIS *
                      *****************************

  NA   - Mulliken gross atomic population
  ZA   - Total nuclear charge
  QA   - Mulliken gross atomic charge
  VA   - Mayer's total valence
  BVA  - Mayer's bonded valence
  FA   - Mayer's free valence

  ATOM       NA         ZA         QA         VA         BVA        FA
  0 C      6.3083     6.0000    -0.3083     2.9857     2.9857     0.0000
  1 N      7.2833     7.0000    -0.2833     2.4462     2.4462    -0.0000
  2 H      0.4085     1.0000     0.5915     0.4627     0.4627    -0.0000

  Mayer bond orders larger than 0.100000
B(  0-C ,  1-N ) :   2.4846 B(  0-C ,  2-H ) :   0.5011 

-------
TIMINGS
-------

Total SCF time: 0 days 0 hours 0 min 1 sec 

Total time                  ....       1.625 sec
Sum of individual times     ....       1.510 sec  ( 92.9%)

Fock matrix formation       ....       1.243 sec  ( 76.5%)
  Split-RI-J                ....       1.048 sec  ( 84.3% of F)
  XC integration            ....       0.125 sec  ( 10.1% of F)
    Basis function eval.    ....       0.009 sec  (  7.1% of XC)
    Density eval.           ....       0.013 sec  ( 10.6% of XC)
    XC-Functional eval.     ....       0.005 sec  (  4.3% of XC)
    XC-Potential eval.      ....       0.030 sec  ( 23.6% of XC)
Diagonalization             ....       0.015 sec  (  0.9%)
Density matrix formation    ....       0.004 sec  (  0.2%)
Population analysis         ....       0.003 sec  (  0.2%)
Initial guess               ....       0.133 sec  (  8.2%)
Orbital Transformation      ....       0.000 sec  (  0.0%)
Orbital Orthonormalization  ....       0.000 sec  (  0.0%)
DIIS solution               ....       0.007 sec  (  0.4%)
SOSCF solution              ....       0.004 sec  (  0.3%)
Grid generation             ....       0.100 sec  (  6.2%)


-------------------------------------------------------------------------------
                          DFT DISPERSION CORRECTION                            
                                                                               
                              DFTD3 V3.1  Rev 1                                
                          USING Becke-Johnson damping                          
-------------------------------------------------------------------------------
The TPSS functional is recognized
Active option DFTDOPT                   ...         4   

molecular C6(AA) [au] = 141.167845 


            DFT-D V3
 parameters
 s6 scaling factor         :     1.0000 
 a1 scaling factor         :     0.4535 
 s8 scaling factor         :     1.9435 
 a2 scaling factor         :     4.4752 
 ad hoc parameters k1-k3   :    16.0000     1.3333    -4.0000 

 Edisp/kcal,au: -0.645483012017  -0.001028642546 
 E6   /kcal   :  -0.327646591 
 E8   /kcal   :  -0.317836421 
 % E8         :  49.240090797 

-------------------------   ----------------
Dispersion correction           -0.001028643
-------------------------   ----------------


-------------------------   --------------------
FINAL SINGLE POINT ENERGY       -93.475902975003
-------------------------   --------------------



           ************************************************************
           *        Program running with 24 parallel MPI-processes    *
           *              working on a common directory               *
           ************************************************************
------------------------------------------------------------------------------
                         ORCA SCF GRADIENT CALCULATION
------------------------------------------------------------------------------

Gradient of the Kohn-Sham DFT energy:
Kohn-Sham wavefunction type      ... RKS
Hartree-Fock exchange scaling    ...    0.000
Number of operators              ...    1
Number of atoms                  ...    3
Basis set dimensions             ...  115
Integral neglect threshold       ... 2.5e-11
Integral primitive cutoff        ... 2.5e-12

Nuclear repulsion gradient       ... done
One Electron Gradient            ... done
Pre-screening matrix             ... done
RI-J gradient                    ... done
Exchange-correlation gradient    ... done
Dispersion correction            ... done

------------------
CARTESIAN GRADIENT
------------------

   1   C   :   -0.000000001    0.000000002    0.017309566
   2   N   :    0.000000009    0.000000005   -0.018702905
   3   H   :   -0.000000005   -0.000000007    0.000175379

Difference to translation invariance:
           :    0.0000000023    0.0000000001   -0.0012179602

Norm of the cartesian gradient     ...    0.0254843183
RMS gradient                       ...    0.0084947728
MAX gradient                       ...    0.0187029048

-------
TIMINGS
-------

Total SCF gradient time            ...        0.382 sec

One electron gradient       ....       0.002 sec  (  0.5%)
Prescreening matrices       ....       0.021 sec  (  5.4%)
RI-J Coulomb gradient       ....       0.091 sec  ( 23.7%)
XC gradient                 ....       0.022 sec  (  5.7%)
------------------------------------------------------------------------------
                         ORCA GEOMETRY RELAXATION STEP
------------------------------------------------------------------------------

Reading the OPT-File                    .... done
Getting information on internals        .... done
Copying old internal coords+grads       .... done
Making the new internal coordinates     .... (new redundants).... done
Validating the new internal coordinates .... (new redundants).... done
Calculating the B-matrix                .... done
Calculating the G,G- and P matrices     .... done
Transforming gradient to internals      .... done
Projecting the internal gradient        .... done
Number of atoms                         ....   3
Number of internal coordinates          ....   4
Current Energy                          ....   -93.475902975 Eh
Current gradient norm                   ....     0.025484318 Eh/bohr
Maximum allowed component of the step   ....  0.300
Current trust radius                    ....  0.300
Evaluating the initial hessian          ....  (Almloef) done
Projecting the Hessian                  .... done
Forming the augmented Hessian           .... done
Diagonalizing the augmented Hessian     .... done
Last element of RFO vector              ....  0.999909144
Lowest eigenvalues of augmented Hessian:
 -0.000246007  0.388325493  0.407338554  0.407338554
Length of the computed step             ....  0.013480986
The final length of the internal step   ....  0.013480986
Converting the step to cartesian space:
 Initial RMS(Int)=    0.0067404932
Transforming coordinates:
 Iter   0:  RMS(Cart)=    0.0038661126 RMS(Int)=    0.0067404932
 Iter   1:  RMS(Cart)=    0.0000000011 RMS(Int)=    0.0000000421
done
Storing new coordinates                 .... done

                                .--------------------.
          ----------------------|Geometry convergence|-------------------------
          Item                value                   Tolerance       Converged
          ---------------------------------------------------------------------
          RMS gradient        0.0091530759            0.0001000000      NO
          MAX gradient        0.0182969181            0.0003000000      NO
          RMS step            0.0067404932            0.0020000000      NO
          MAX step            0.0133977045            0.0040000000      NO
          ........................................................
          Max(Bonds)      0.0071      Max(Angles)    0.00
          Max(Dihed)        0.00      Max(Improp)    0.00
          ---------------------------------------------------------------------

The optimization has not yet converged - more geometry cycles are needed


    ---------------------------------------------------------------------------
                         Redundant Internal Coordinates
                            (Angstroem and degrees)

        Definition                    Value    dE/dq     Step     New-Value
    ----------------------------------------------------------------------------
     1. B(N   1,C   0)                1.1472 -0.018297  0.0071    1.1543   
     2. B(H   2,C   0)                1.0695 -0.000581  0.0008    1.0703   
     3. L(N   1,C   0,H   2, 2)       180.00  0.000000   -0.00    180.00   
     4. L(N   1,C   0,H   2, 1)       180.00  0.000000   -0.00    180.00   
    ----------------------------------------------------------------------------

         *************************************************************
         *                GEOMETRY OPTIMIZATION CYCLE   2            *
         *************************************************************
---------------------------------
CARTESIAN COORDINATES (ANGSTROEM)
---------------------------------
  C     -0.000000    0.000000   -0.028008
  N      0.000000   -0.000000    1.126268
  H      0.000000   -0.000000   -1.098259

----------------------------
CARTESIAN COORDINATES (A.U.)
----------------------------
  NO LB      ZA    FRAG     MASS         X           Y           Z
   0 C     6.0000    0    12.011   -0.000000    0.000000   -0.052928
   1 N     7.0000    0    14.007    0.000000   -0.000000    2.128337
   2 H     1.0000    0     1.008    0.000000   -0.000000   -2.075409

--------------------------------
INTERNAL COORDINATES (ANGSTROEM)
--------------------------------
 C      0   0   0     0.000000000000     0.00000000     0.00000000
 N      1   0   0     1.154276010875     0.00000000     0.00000000
 H      1   2   0     1.070250764895   179.99999879     0.00000000

---------------------------
INTERNAL COORDINATES (A.U.)
---------------------------
 C      0   0   0     0.000000000000     0.00000000     0.00000000
 N      1   0   0     2.181265543510     0.00000000     0.00000000
 H      1   2   0     2.022480840271   179.99999879     0.00000000



           ************************************************************
           *        Program running with 24 parallel MPI-processes    *
           *              working on a common directory               *
           ************************************************************
 One Electron integrals                  ... done
 Pre-screening matrix                    ... done


           ************************************************************
           *        Program running with 24 parallel MPI-processes    *
           *              working on a common directory               *
           ************************************************************

Diagonalization of the overlap matrix:
Smallest eigenvalue                        ... 8.693e-05
Time for diagonalization                   ...    0.003 sec
Threshold for overlap eigenvalues          ... 1.000e-08
Number of eigenvalues below threshold      ... 0
Time for construction of square roots      ...    0.002 sec
Total time needed                          ...    0.005 sec

-------------------
DFT GRID GENERATION
-------------------

General Integration Accuracy     IntAcc      ...  4.340
Radial Grid Type                 RadialGrid  ... Gauss-Chebyshev
Angular Grid (max. acc.)         AngularGrid ... Lebedev-110
Angular grid pruning method      GridPruning ... 3 (G Style)
Weight generation scheme         WeightScheme... Becke
Basis function cutoff            BFCut       ...    1.0000e-11
Integration weight cutoff        WCut        ...    1.0000e-14
Grids for H and He will be reduced by one unit

# of grid points (after initial pruning)     ...   4152 (   0.0 sec)
# of grid points (after weights+screening)   ...   4100 (   0.0 sec)
nearest neighbour list constructed           ...    0.0 sec
Grid point re-assignment to atoms done       ...    0.0 sec
Grid point division into batches done        ...    0.0 sec
Reduced shell lists constructed in    0.0 sec

Total number of grid points                  ...     4100
Total number of batches                      ...       65
Average number of points per batch           ...       63
Average number of grid points per atom       ...     1367
Average number of shells per batch           ...    27.75 (75.00%)
Average number of basis functions per batch  ...    86.25 (75.00%)
Average number of large shells per batch     ...    27.25 (98.20%)
Average number of large basis fcns per batch ...    84.75 (98.26%)
Maximum spatial batch extension              ...  19.41, 31.36,  1.85 au
Average spatial batch extension              ...   0.69,  1.27,  0.09 au

Time for grid setup =    0.013 sec

--------------
SCF ITERATIONS
--------------
ITER       Energy         Delta-E        Max-DP      RMS-DP      [F,P]     Damp
               ***  Starting incremental Fock matrix formation  ***
                      *** Initiating the SOSCF procedure ***
                      *** Re-Reading the Fockian *** 
                      *** Removing any level shift *** 
ITER      Energy       Delta-E        Grad      Rot      Max-DP    RMS-DP
  0    -93.47446679 -93.4744667913  0.001954  0.001954  0.005054  0.000151
               *** Restarting incremental Fock matrix formation ***
  1    -93.47449620  -0.0000294075  0.000482  0.001163  0.001480  0.000038
  2    -93.47449135   0.0000048465  0.001201  0.001377  0.000737  0.000023
  3    -93.47449815  -0.0000068019  0.000578  0.000575  0.000867  0.000025
  4    -93.47449752   0.0000006359  0.000378  0.000332  0.000469  0.000014
  5    -93.47450099  -0.0000034743  0.000035  0.000034  0.000018  0.000001
  6    -93.47450100  -0.0000000077  0.000005  0.000004  0.000004  0.000000
                 **** Energy Check signals convergence ****
              ***Rediagonalizing the Fockian in SOSCF/NRSCF***

               *****************************************************
               *                     SUCCESS                       *
               *           SCF CONVERGED AFTER   7 CYCLES          *
               *****************************************************

Setting up the final grid:

General Integration Accuracy     IntAcc      ...  4.670
Radial Grid Type                 RadialGrid  ... Gauss-Chebyshev
Angular Grid (max. acc.)         AngularGrid ... Lebedev-302
Angular grid pruning method      GridPruning ... 3 (G Style)
Weight generation scheme         WeightScheme... Becke
Basis function cutoff            BFCut       ...    1.0000e-11
Integration weight cutoff        WCut        ...    1.0000e-14
Grids for H and He will be reduced by one unit

# of grid points (after initial pruning)     ...  15818 (   0.0 sec)
# of grid points (after weights+screening)   ...  15666 (   0.0 sec)
nearest neighbour list constructed           ...    0.0 sec
Grid point re-assignment to atoms done       ...    0.0 sec
Grid point division into batches done        ...    0.1 sec
Reduced shell lists constructed in    0.1 sec

Total number of grid points                  ...    15666
Total number of batches                      ...      246
Average number of points per batch           ...       63
Average number of grid points per atom       ...     5222
Average number of shells per batch           ...    27.25 (73.65%)
Average number of basis functions per batch  ...    85.42 (74.28%)
Average number of large shells per batch     ...    22.00 (80.73%)
Average number of large basis fcns per batch ...    68.17 (79.80%)
Maximum spatial batch extension              ...  20.24, 25.05,  2.04 au
Average spatial batch extension              ...   0.59,  0.64,  0.09 au

Final grid set up in    0.1 sec
Final integration                            ... done (   0.0 sec)
Change in XC energy                          ...    -0.000512046
Integrated number of electrons               ...    13.999992952
Previous integrated no of electrons          ...    13.999413171
Total Energy       :          -93.47501305 Eh           -2543.58442 eV
  Last Energy change         ...    2.8614e-10  Tolerance :   1.0000e-08
  Last MAX-Density change    ...    5.5420e-07  Tolerance :   1.0000e-07
             **** THE GBW FILE WAS UPDATED (20_HCN.gbw) ****
             **** DENSITY FILE WAS UPDATED (20_HCN.scfp) ****
             **** ENERGY FILE WAS UPDATED (20_HCN.en.tmp) ****
             **** THE GBW FILE WAS UPDATED (20_HCN.gbw) ****
             **** DENSITY FILE WAS UPDATED (20_HCN.scfp) ****
Total SCF time: 0 days 0 hours 0 min 1 sec 


-------------------------------------------------------------------------------
                          DFT DISPERSION CORRECTION                            
                                                                               
                              DFTD3 V3.1  Rev 1                                
                          USING Becke-Johnson damping                          
-------------------------------------------------------------------------------
-------------------------   ----------------
Dispersion correction           -0.001028329
-------------------------   ----------------


-------------------------   --------------------
FINAL SINGLE POINT ENERGY       -93.476041374311
-------------------------   --------------------



           ************************************************************
           *        Program running with 24 parallel MPI-processes    *
           *              working on a common directory               *
           ************************************************************
------------------------------------------------------------------------------
                         ORCA SCF GRADIENT CALCULATION
------------------------------------------------------------------------------

Gradient of the Kohn-Sham DFT energy:
Kohn-Sham wavefunction type      ... RKS
Hartree-Fock exchange scaling    ...    0.000
Number of operators              ...    1
Number of atoms                  ...    3
Basis set dimensions             ...  115
Integral neglect threshold       ... 2.5e-11
Integral primitive cutoff        ... 2.5e-12

Nuclear repulsion gradient       ... done
One Electron Gradient            ... done
Pre-screening matrix             ... done
RI-J gradient                    ... done
Exchange-correlation gradient    ... done
Dispersion correction            ... done

------------------
CARTESIAN GRADIENT
------------------

   1   C   :   -0.000000003    0.000000004    0.000978546
   2   N   :    0.000000010    0.000000003   -0.002058673
   3   H   :   -0.000000005   -0.000000007   -0.000212973

Difference to translation invariance:
           :    0.0000000029    0.0000000007   -0.0012930995

Norm of the cartesian gradient     ...    0.0022893322
RMS gradient                       ...    0.0007631107
MAX gradient                       ...    0.0020586725

-------
TIMINGS
-------

Total SCF gradient time            ...        0.376 sec

One electron gradient       ....       0.002 sec  (  0.5%)
Prescreening matrices       ....       0.021 sec  (  5.6%)
RI-J Coulomb gradient       ....       0.091 sec  ( 24.2%)
XC gradient                 ....       0.022 sec  (  5.8%)
------------------------------------------------------------------------------
                         ORCA GEOMETRY RELAXATION STEP
------------------------------------------------------------------------------

Reading the OPT-File                    .... done
Getting information on internals        .... done
Copying old internal coords+grads       .... done
Making the new internal coordinates     .... (new redundants).... done
Validating the new internal coordinates .... (new redundants).... done
Calculating the B-matrix                .... done
Calculating the G,G- and P matrices     .... done
Transforming gradient to internals      .... done
Projecting the internal gradient        .... done
Number of atoms                         ....   3
Number of internal coordinates          ....   4
Current Energy                          ....   -93.476041374 Eh
Current gradient norm                   ....     0.002289332 Eh/bohr
Maximum allowed component of the step   ....  0.300
Current trust radius                    ....  0.300
Updating the Hessian (BFGS)             .... done
Forming the augmented Hessian           .... done
Diagonalizing the augmented Hessian     .... done
Last element of RFO vector              ....  0.999998946
Lowest eigenvalues of augmented Hessian:
 -0.000002274  0.387237822  0.407338554  0.407338554
Length of the computed step             ....  0.001452129
The final length of the internal step   ....  0.001452129
Converting the step to cartesian space:
 Initial RMS(Int)=    0.0007260645
Transforming coordinates:
 Iter   0:  RMS(Cart)=    0.0004650955 RMS(Int)=    0.0007260645
 Iter   1:  RMS(Cart)=    0.0000000016 RMS(Int)=    0.0000000000
done
Storing new coordinates                 .... done

                                .--------------------.
          ----------------------|Geometry convergence|-------------------------
          Item                value                   Tolerance       Converged
          ---------------------------------------------------------------------
          Energy change      -0.0001383993            0.0000050000      NO
          RMS gradient        0.0008210908            0.0001000000      NO
          MAX gradient        0.0016276394            0.0003000000      NO
          RMS step            0.0007260645            0.0020000000      YES
          MAX step            0.0013143046            0.0040000000      YES
          ........................................................
          Max(Bonds)      0.0007      Max(Angles)    0.00
          Max(Dihed)        0.00      Max(Improp)    0.00
          ---------------------------------------------------------------------

The optimization has not yet converged - more geometry cycles are needed


    ---------------------------------------------------------------------------
                         Redundant Internal Coordinates
                            (Angstroem and degrees)

        Definition                    Value    dE/dq     Step     New-Value
    ----------------------------------------------------------------------------
     1. B(N   1,C   0)                1.1543 -0.001628  0.0007    1.1550   
     2. B(H   2,C   0)                1.0703 -0.000218  0.0003    1.0706   
     3. L(N   1,C   0,H   2, 2)       180.00  0.000000   -0.00    180.00   
     4. L(N   1,C   0,H   2, 1)       180.00  0.000000   -0.00    180.00   
    ----------------------------------------------------------------------------

         *************************************************************
         *                GEOMETRY OPTIMIZATION CYCLE   3            *
         *************************************************************
---------------------------------
CARTESIAN COORDINATES (ANGSTROEM)
---------------------------------
  C     -0.000000    0.000000   -0.028131
  N      0.000000   -0.000000    1.126840
  H      0.000000   -0.000000   -1.098709

----------------------------
CARTESIAN COORDINATES (A.U.)
----------------------------
  NO LB      ZA    FRAG     MASS         X           Y           Z
   0 C     6.0000    0    12.011   -0.000000    0.000000   -0.053161
   1 N     7.0000    0    14.007    0.000000   -0.000000    2.129419
   2 H     1.0000    0     1.008    0.000000   -0.000000   -2.076259

--------------------------------
INTERNAL COORDINATES (ANGSTROEM)
--------------------------------
 C      0   0   0     0.000000000000     0.00000000     0.00000000
 N      1   0   0     1.154971510911     0.00000000     0.00000000
 H      1   2   0     1.070577521553   179.99999879     0.00000000

---------------------------
INTERNAL COORDINATES (A.U.)
---------------------------
 C      0   0   0     0.000000000000     0.00000000     0.00000000
 N      1   0   0     2.182579848102     0.00000000     0.00000000
 H      1   2   0     2.023098320867   179.99999879     0.00000000



           ************************************************************
           *        Program running with 24 parallel MPI-processes    *
           *              working on a common directory               *
           ************************************************************
 One Electron integrals                  ... done
 Pre-screening matrix                    ... done


           ************************************************************
           *        Program running with 24 parallel MPI-processes    *
           *              working on a common directory               *
           ************************************************************

Diagonalization of the overlap matrix:
Smallest eigenvalue                        ... 8.707e-05
Time for diagonalization                   ...    0.004 sec
Threshold for overlap eigenvalues          ... 1.000e-08
Number of eigenvalues below threshold      ... 0
Time for construction of square roots      ...    0.002 sec
Total time needed                          ...    0.005 sec

-------------------
DFT GRID GENERATION
-------------------

General Integration Accuracy     IntAcc      ...  4.340
Radial Grid Type                 RadialGrid  ... Gauss-Chebyshev
Angular Grid (max. acc.)         AngularGrid ... Lebedev-110
Angular grid pruning method      GridPruning ... 3 (G Style)
Weight generation scheme         WeightScheme... Becke
Basis function cutoff            BFCut       ...    1.0000e-11
Integration weight cutoff        WCut        ...    1.0000e-14
Grids for H and He will be reduced by one unit

# of grid points (after initial pruning)     ...   4152 (   0.0 sec)
# of grid points (after weights+screening)   ...   4100 (   0.0 sec)
nearest neighbour list constructed           ...    0.0 sec
Grid point re-assignment to atoms done       ...    0.0 sec
Grid point division into batches done        ...    0.0 sec
Reduced shell lists constructed in    0.0 sec

Total number of grid points                  ...     4100
Total number of batches                      ...       65
Average number of points per batch           ...       63
Average number of grid points per atom       ...     1367
Average number of shells per batch           ...    27.75 (75.00%)
Average number of basis functions per batch  ...    86.25 (75.00%)
Average number of large shells per batch     ...    27.25 (98.20%)
Average number of large basis fcns per batch ...    84.75 (98.26%)
Maximum spatial batch extension              ...  19.41, 31.36,  1.85 au
Average spatial batch extension              ...   0.69,  1.27,  0.09 au

Time for grid setup =    0.012 sec

--------------
SCF ITERATIONS
--------------
ITER       Energy         Delta-E        Max-DP      RMS-DP      [F,P]     Damp
               ***  Starting incremental Fock matrix formation  ***
                      *** Initiating the SOSCF procedure ***
                      *** Re-Reading the Fockian *** 
                      *** Removing any level shift *** 
ITER      Energy       Delta-E        Grad      Rot      Max-DP    RMS-DP
  0    -93.47450229 -93.4745022873  0.000186  0.000186  0.000619  0.000015
               *** Restarting incremental Fock matrix formation ***
  1    -93.47450258  -0.0000002920  0.000044  0.000058  0.000126  0.000003
  2    -93.47450259  -0.0000000074  0.000040  0.000049  0.000039  0.000001
  3    -93.47450262  -0.0000000290  0.000033  0.000071  0.000046  0.000001
  4    -93.47450259   0.0000000223  0.000059  0.000044  0.000036  0.000001
                  ***Gradient check signals convergence***
              ***Rediagonalizing the Fockian in SOSCF/NRSCF***

               *****************************************************
               *                     SUCCESS                       *
               *           SCF CONVERGED AFTER   5 CYCLES          *
               *****************************************************

Setting up the final grid:

General Integration Accuracy     IntAcc      ...  4.670
Radial Grid Type                 RadialGrid  ... Gauss-Chebyshev
Angular Grid (max. acc.)         AngularGrid ... Lebedev-302
Angular grid pruning method      GridPruning ... 3 (G Style)
Weight generation scheme         WeightScheme... Becke
Basis function cutoff            BFCut       ...    1.0000e-11
Integration weight cutoff        WCut        ...    1.0000e-14
Grids for H and He will be reduced by one unit

# of grid points (after initial pruning)     ...  15818 (   0.0 sec)
# of grid points (after weights+screening)   ...  15666 (   0.0 sec)
nearest neighbour list constructed           ...    0.0 sec
Grid point re-assignment to atoms done       ...    0.0 sec
Grid point division into batches done        ...    0.1 sec
Reduced shell lists constructed in    0.1 sec

Total number of grid points                  ...    15666
Total number of batches                      ...      246
Average number of points per batch           ...       63
Average number of grid points per atom       ...     5222
Average number of shells per batch           ...    27.33 (73.87%)
Average number of basis functions per batch  ...    85.50 (74.35%)
Average number of large shells per batch     ...    22.00 (80.49%)
Average number of large basis fcns per batch ...    68.17 (79.73%)
Maximum spatial batch extension              ...  20.53, 25.05,  2.04 au
Average spatial batch extension              ...   0.59,  0.64,  0.09 au

Final grid set up in    0.1 sec
Final integration                            ... done (   0.1 sec)
Change in XC energy                          ...    -0.000511885
Integrated number of electrons               ...    13.999992920
Previous integrated no of electrons          ...    13.999408239
Total Energy       :          -93.47501451 Eh           -2543.58446 eV
  Last Energy change         ...   -2.7879e-08  Tolerance :   1.0000e-08
  Last MAX-Density change    ...    9.2337e-07  Tolerance :   1.0000e-07
             **** THE GBW FILE WAS UPDATED (20_HCN.gbw) ****
             **** DENSITY FILE WAS UPDATED (20_HCN.scfp) ****
             **** ENERGY FILE WAS UPDATED (20_HCN.en.tmp) ****
             **** THE GBW FILE WAS UPDATED (20_HCN.gbw) ****
             **** DENSITY FILE WAS UPDATED (20_HCN.scfp) ****
Total SCF time: 0 days 0 hours 0 min 1 sec 


-------------------------------------------------------------------------------
                          DFT DISPERSION CORRECTION                            
                                                                               
                              DFTD3 V3.1  Rev 1                                
                          USING Becke-Johnson damping                          
-------------------------------------------------------------------------------
-------------------------   ----------------
Dispersion correction           -0.001028289
-------------------------   ----------------


-------------------------   --------------------
FINAL SINGLE POINT ENERGY       -93.476042795466
-------------------------   --------------------



           ************************************************************
           *        Program running with 24 parallel MPI-processes    *
           *              working on a common directory               *
           ************************************************************
------------------------------------------------------------------------------
                         ORCA SCF GRADIENT CALCULATION
------------------------------------------------------------------------------

Gradient of the Kohn-Sham DFT energy:
Kohn-Sham wavefunction type      ... RKS
Hartree-Fock exchange scaling    ...    0.000
Number of operators              ...    1
Number of atoms                  ...    3
Basis set dimensions             ...  115
Integral neglect threshold       ... 2.5e-11
Integral primitive cutoff        ... 2.5e-12

Nuclear repulsion gradient       ... done
One Electron Gradient            ... done
Pre-screening matrix             ... done
RI-J gradient                    ... done
Exchange-correlation gradient    ... done
Dispersion correction            ... done

------------------
CARTESIAN GRADIENT
------------------

   1   C   :   -0.000000006    0.000000006   -0.000394141
   2   N   :    0.000000013    0.000000001   -0.000472130
   3   H   :   -0.000000005   -0.000000007   -0.000434370

Difference to translation invariance:
           :    0.0000000021   -0.0000000004   -0.0013006422

Norm of the cartesian gradient     ...    0.0007529490
RMS gradient                       ...    0.0002509830
MAX gradient                       ...    0.0004721304

-------
TIMINGS
-------

Total SCF gradient time            ...        0.390 sec

One electron gradient       ....       0.013 sec  (  3.4%)
Prescreening matrices       ....       0.021 sec  (  5.3%)
RI-J Coulomb gradient       ....       0.091 sec  ( 23.2%)
XC gradient                 ....       0.022 sec  (  5.5%)
------------------------------------------------------------------------------
                         ORCA GEOMETRY RELAXATION STEP
------------------------------------------------------------------------------

Reading the OPT-File                    .... done
Getting information on internals        .... done
Copying old internal coords+grads       .... done
Making the new internal coordinates     .... (new redundants).... done
Validating the new internal coordinates .... (new redundants).... done
Calculating the B-matrix                .... done
Calculating the G,G- and P matrices     .... done
Transforming gradient to internals      .... done
Projecting the internal gradient        .... done
Number of atoms                         ....   3
Number of internal coordinates          ....   4
Current Energy                          ....   -93.476042795 Eh
Current gradient norm                   ....     0.000752949 Eh/bohr
Maximum allowed component of the step   ....  0.300
Current trust radius                    ....  0.300
Updating the Hessian (BFGS)             .... done
Forming the augmented Hessian           .... done
Diagonalizing the augmented Hessian     .... done
Last element of RFO vector              ....  0.999999999
Lowest eigenvalues of augmented Hessian:
 -0.000000001  0.387873372  0.407338554  0.407338554
Length of the computed step             ....  0.000031717
The final length of the internal step   ....  0.000031717
Converting the step to cartesian space:
 Initial RMS(Int)=    0.0000158584
Transforming coordinates:
 Iter   0:  RMS(Cart)=    0.0000085190 RMS(Int)=    0.0000158584
 Iter   1:  RMS(Cart)=    0.0000000025 RMS(Int)=    0.0000000000
done
Storing new coordinates                 .... done

                                .--------------------.
          ----------------------|Geometry convergence|-------------------------
          Item                value                   Tolerance       Converged
          ---------------------------------------------------------------------
          Energy change      -0.0000014212            0.0000050000      YES
          RMS gradient        0.0000192959            0.0001000000      YES
          MAX gradient        0.0000385830            0.0003000000      YES
          RMS step            0.0000158584            0.0020000000      YES
          MAX step            0.0000317060            0.0040000000      YES
          ........................................................
          Max(Bonds)      0.0000      Max(Angles)    0.00
          Max(Dihed)        0.00      Max(Improp)    0.00
          ---------------------------------------------------------------------

                    ***********************HURRAY********************
                    ***        THE OPTIMIZATION HAS CONVERGED     ***
                    *************************************************


    ---------------------------------------------------------------------------
                         Redundant Internal Coordinates

                          --- Optimized Parameters ---  
                            (Angstroem and degrees)

        Definition                    OldVal   dE/dq     Step     FinalVal
    ----------------------------------------------------------------------------
     1. B(N   1,C   0)                1.1550 -0.000039  0.0000    1.1550   
     2. B(H   2,C   0)                1.0706  0.000001 -0.0000    1.0706   
     3. L(N   1,C   0,H   2, 2)       180.00  0.000000   -0.00    180.00   
     4. L(N   1,C   0,H   2, 1)       180.00  0.000000   -0.00    180.00   
    ----------------------------------------------------------------------------
                 *******************************************************
                 *** FINAL ENERGY EVALUATION AT THE STATIONARY POINT ***
                 ***               (AFTER    3 CYCLES)               ***
                 *******************************************************
---------------------------------
CARTESIAN COORDINATES (ANGSTROEM)
---------------------------------
  C     -0.000000    0.000000   -0.028137
  N      0.000000   -0.000000    1.126851
  H      0.000000   -0.000000   -1.098714

----------------------------
CARTESIAN COORDINATES (A.U.)
----------------------------
  NO LB      ZA    FRAG     MASS         X           Y           Z
   0 C     6.0000    0    12.011   -0.000000    0.000000   -0.053171
   1 N     7.0000    0    14.007    0.000000   -0.000000    2.129440
   2 H     1.0000    0     1.008    0.000000   -0.000000   -2.076269

--------------------------------
INTERNAL COORDINATES (ANGSTROEM)
--------------------------------
 C      0   0   0     0.000000000000     0.00000000     0.00000000
 N      1   0   0     1.154988289018     0.00000000     0.00000000
 H      1   2   0     1.070577083844   180.00000000     0.00000000

---------------------------
INTERNAL COORDINATES (A.U.)
---------------------------
 C      0   0   0     0.000000000000     0.00000000     0.00000000
 N      1   0   0     2.182611554130     0.00000000     0.00000000
 H      1   2   0     2.023097493718   180.00000000     0.00000000

---------------------
BASIS SET INFORMATION
---------------------
There are 3 groups of distinct atoms

 Group   1 Type C   : 19s6p3d2f contracted to 5s4p3d2f pattern {88111/3111/111/11}
 Group   2 Type N   : 19s6p3d2f contracted to 5s4p3d2f pattern {88111/3111/111/11}
 Group   3 Type H   : 6s3p2d contracted to 4s3p2d pattern {3111/111/11}

Atom   0C    basis set group =>   1
Atom   1N    basis set group =>   2
Atom   2H    basis set group =>   3
---------------------------------
AUXILIARY/J BASIS SET INFORMATION
---------------------------------
There are 3 groups of distinct atoms

 Group   1 Type C   : 12s5p4d2f1g contracted to 6s4p3d1f1g pattern {711111/2111/211/2/1}
 Group   2 Type N   : 12s5p4d2f1g contracted to 6s4p3d1f1g pattern {711111/2111/211/2/1}
 Group   3 Type H   : 5s2p1d contracted to 3s1p1d pattern {311/2/1}

Atom   0C    basis set group =>   1
Atom   1N    basis set group =>   2
Atom   2H    basis set group =>   3


           ************************************************************
           *        Program running with 24 parallel MPI-processes    *
           *              working on a common directory               *
           ************************************************************
------------------------------------------------------------------------------
                           ORCA GTO INTEGRAL CALCULATION
                           -- RI-GTO INTEGRALS CHOSEN --
------------------------------------------------------------------------------

                         BASIS SET STATISTICS AND STARTUP INFO

Gaussian basis set:
 # of primitive gaussian shells          ...   71
 # of primitive gaussian functions       ...  157
 # of contracted shells                  ...   37
 # of contracted basis functions         ...  115
 Highest angular momentum                ...    3
 Maximum contraction depth               ...    8
Auxiliary gaussian basis set:
 # of primitive gaussian shells          ...   56
 # of primitive gaussian functions       ...  156
 # of contracted shells                  ...   35
 # of contracted aux-basis functions     ...  109
 Highest angular momentum                ...    4
 Maximum contraction depth               ...    7
Ratio of auxiliary to basis functions    ...  0.95
Integral package used                  ... LIBINT
 One Electron integrals                  ... done
 Ordering auxiliary basis shells         ... done
 Integral threshhold             Thresh  ...  2.500e-11
 Primitive cut-off               TCut    ...  2.500e-12
 Pre-screening matrix                    ... done
 Shell pair data                         ... 
 Ordering of the shell pairs             ... done (   0.000 sec) 703 of 703 pairs
 Determination of significant pairs      ... done (   0.000 sec)
 Creation of shell pair data             ... done (   0.000 sec)
 Storage of shell pair data              ... done (   0.012 sec)
 Shell pair data done in (   0.013 sec)
 Computing two index integrals           ... done
 Cholesky decomposition of the V-matrix  ... done


Timings:
 Total evaluation time                   ...   0.241 sec (  0.004 min)
 One electron matrix time                ...   0.017 sec (  0.000 min) =  6.9%
 Schwartz matrix evaluation time         ...   0.183 sec (  0.003 min) = 75.8%
 Two index repulsion integral time       ...   0.001 sec (  0.000 min) =  0.2%
 Cholesky decomposition of V             ...   0.001 sec (  0.000 min) =  0.3%
 Three index repulsion integral time     ...   0.000 sec (  0.000 min) =  0.0%



           ************************************************************
           *        Program running with 24 parallel MPI-processes    *
           *              working on a common directory               *
           ************************************************************
-------------------------------------------------------------------------------
                                 ORCA SCF
-------------------------------------------------------------------------------

------------
SCF SETTINGS
------------
Hamiltonian:
 Density Functional     Method          .... DFT(GTOs)
 Exchange Functional    Exchange        .... TPSS
 Correlation Functional Correlation     .... TPSS
 LDA part of GGA corr.  LDAOpt          .... PW91-LDA
 Gradients option       PostSCFGGA      .... off
   Density functional embedding theory  .... OFF
   NL short-range parameter             ....  5.000000
 RI-approximation to the Coulomb term is turned on
   Number of auxiliary basis functions  .... 109


General Settings:
 Integral files         IntName         .... 20_HCN
 Hartree-Fock type      HFTyp           .... RHF
 Total Charge           Charge          ....    0
 Multiplicity           Mult            ....    1
 Number of Electrons    NEL             ....   14
 Basis Dimension        Dim             ....  115
 Nuclear Repulsion      ENuc            ....     23.8731562454 Eh

Convergence Acceleration:
 DIIS                   CNVDIIS         .... on
   Start iteration      DIISMaxIt       ....    12
   Startup error        DIISStart       ....  0.200000
   # of expansion vecs  DIISMaxEq       ....     5
   Bias factor          DIISBfac        ....   1.050
   Max. coefficient     DIISMaxC        ....  10.000
 Newton-Raphson         CNVNR           .... off
 SOSCF                  CNVSOSCF        .... on
   Start iteration      SOSCFMaxIt      ....   150
   Startup grad/error   SOSCFStart      ....  0.003300
 Level Shifting         CNVShift        .... on
   Level shift para.    LevelShift      ....    0.2500
   Turn off err/grad.   ShiftErr        ....    0.0010
 Zerner damping         CNVZerner       .... off
 Static damping         CNVDamp         .... on
   Fraction old density DampFac         ....    0.7000
   Max. Damping (<1)    DampMax         ....    0.9800
   Min. Damping (>=0)   DampMin         ....    0.0000
   Turn off err/grad.   DampErr         ....    0.1000
 Fernandez-Rico         CNVRico         .... off

SCF Procedure:
 Maximum # iterations   MaxIter         ....   125
 SCF integral mode      SCFMode         .... Direct
   Integral package                     .... LIBINT
 Reset frequency        DirectResetFreq ....    20
 Integral Threshold     Thresh          ....  2.500e-11 Eh
 Primitive CutOff       TCut            ....  2.500e-12 Eh

Convergence Tolerance:
 Convergence Check Mode ConvCheckMode   .... Total+1el-Energy
 Convergence forced     ConvForced      .... 0
 Energy Change          TolE            ....  1.000e-08 Eh
 1-El. energy change                    ....  1.000e-05 Eh
 Orbital Gradient       TolG            ....  1.000e-05
[...]
  97   0.0000       4.601522       125.2138 
  98   0.0000       4.601522       125.2138 
  99   0.0000       4.814895       131.0200 
 100   0.0000       4.818031       131.1053 
 101   0.0000       5.007005       136.2475 
 102   0.0000       5.018869       136.5704 
 103   0.0000       5.018870       136.5704 
 104   0.0000       5.095293       138.6500 
 105   0.0000       5.098893       138.7479 
 106   0.0000       5.362947       145.9332 
 107   0.0000       5.362947       145.9332 
 108   0.0000       5.395459       146.8179 
 109   0.0000       5.930879       161.3874 
 110   0.0000       6.486217       176.4989 
 111   0.0000       6.486217       176.4989 
 112   0.0000       6.566124       178.6733 
 113   0.0000      13.455531       366.1436 
 114   0.0000      17.333567       471.6703 

                    ********************************
                    * MULLIKEN POPULATION ANALYSIS *
                    ********************************

-----------------------
MULLIKEN ATOMIC CHARGES
-----------------------
   0 C :   -0.299728
   1 N :   -0.286092
   2 H :    0.585821
Sum of atomic charges:   -0.0000000

--------------------------------
MULLIKEN REDUCED ORBITAL CHARGES
--------------------------------
  0 C s       :     3.646834  s :     3.646834
      pz      :     0.791982  p :     2.596166
      px      :     0.902092
      py      :     0.902092
      dz2     :     0.023154  d :     0.035239
      dxz     :     0.006043
      dyz     :     0.006043
      dx2y2   :    -0.000000
      dxy     :     0.000000
      f0      :     0.005652  f :     0.021489
      f+1     :     0.007918
      f-1     :     0.007918
      f+2     :    -0.000000
      f-2     :    -0.000000
      f+3     :     0.000000
      f-3     :     0.000000
  1 N s       :     3.961500  s :     3.961500
      pz      :     1.153739  p :     3.287641
      px      :     1.066951
      py      :     1.066951
      dz2     :    -0.005378  d :     0.036307
      dxz     :     0.020843
      dyz     :     0.020843
      dx2y2   :     0.000000
      dxy     :     0.000000
      f0      :    -0.000891  f :     0.000644
      f+1     :     0.000767
      f-1     :     0.000767
      f+2     :    -0.000000
      f-2     :     0.000000
      f+3     :    -0.000000
      f-3     :    -0.000000
  2 H s       :     0.467267  s :     0.467267
      pz      :    -0.036125  p :    -0.046001
      px      :    -0.004938
      py      :    -0.004938
      dz2     :    -0.007734  d :    -0.007086
      dxz     :     0.000324
      dyz     :     0.000324
      dx2y2   :     0.000000
      dxy     :    -0.000000


                     *******************************
                     * LOEWDIN POPULATION ANALYSIS *
                     *******************************

----------------------
LOEWDIN ATOMIC CHARGES
----------------------
   0 C :    0.083444
   1 N :    0.198790
   2 H :   -0.282234

-------------------------------
LOEWDIN REDUCED ORBITAL CHARGES
-------------------------------
  0 C s       :     2.739848  s :     2.739848
      pz      :     1.130516  p :     2.553759
      px      :     0.711621
      py      :     0.711621
      dz2     :     0.255176  d :     0.422665
      dxz     :     0.083744
      dyz     :     0.083744
      dx2y2   :     0.000000
      dxy     :     0.000000
      f0      :     0.093844  f :     0.200284
      f+1     :     0.053220
      f-1     :     0.053220
      f+2     :     0.000000
      f-2     :     0.000000
      f+3     :     0.000000
      f-3     :     0.000000
  1 N s       :     3.186303  s :     3.186303
      pz      :     1.423784  p :     3.274205
      px      :     0.925210
      py      :     0.925210
      dz2     :     0.122142  d :     0.237873
      dxz     :     0.057866
      dyz     :     0.057866
      dx2y2   :     0.000000
      dxy     :     0.000000
      f0      :     0.041717  f :     0.102829
      f+1     :     0.030556
      f-1     :     0.030556
      f+2     :     0.000000
      f-2     :     0.000000
      f+3     :     0.000000
      f-3     :     0.000000
  2 H s       :     0.768064  s :     0.768064
      pz      :     0.167666  p :     0.313560
      px      :     0.072947
      py      :     0.072947
      dz2     :     0.070940  d :     0.200610
      dxz     :     0.064835
      dyz     :     0.064835
      dx2y2   :     0.000000
      dxy     :     0.000000


                      *****************************
                      * MAYER POPULATION ANALYSIS *
                      *****************************

  NA   - Mulliken gross atomic population
  ZA   - Total nuclear charge
  QA   - Mulliken gross atomic charge
  VA   - Mayer's total valence
  BVA  - Mayer's bonded valence
  FA   - Mayer's free valence

  ATOM       NA         ZA         QA         VA         BVA        FA
  0 C      6.2997     6.0000    -0.2997     2.9986     2.9986     0.0000
  1 N      7.2861     7.0000    -0.2861     2.4510     2.4510    -0.0000
  2 H      0.4142     1.0000     0.5858     0.4762     0.4762     0.0000

  Mayer bond orders larger than 0.100000
B(  0-C ,  1-N ) :   2.4867 B(  0-C ,  2-H ) :   0.5119 

-------
TIMINGS
-------

Total SCF time: 0 days 0 hours 0 min 0 sec 

Total time                  ....       0.628 sec
Sum of individual times     ....       0.448 sec  ( 71.4%)

Fock matrix formation       ....       0.349 sec  ( 55.6%)
  Split-RI-J                ....       0.212 sec  ( 60.7% of F)
  XC integration            ....       0.031 sec  (  8.8% of F)
    Basis function eval.    ....       0.003 sec  ( 10.8% of XC)
    Density eval.           ....       0.005 sec  ( 15.8% of XC)
    XC-Functional eval.     ....       0.002 sec  (  6.1% of XC)
    XC-Potential eval.      ....       0.010 sec  ( 32.2% of XC)
Diagonalization             ....       0.002 sec  (  0.3%)
Density matrix formation    ....       0.002 sec  (  0.3%)
Population analysis         ....       0.003 sec  (  0.5%)
Initial guess               ....       0.007 sec  (  1.1%)
Orbital Transformation      ....       0.000 sec  (  0.0%)
Orbital Orthonormalization  ....       0.003 sec  (  0.5%)
DIIS solution               ....       0.000 sec  (  0.0%)
SOSCF solution              ....       0.001 sec  (  0.2%)
Grid generation             ....       0.084 sec  ( 13.4%)


-------------------------------------------------------------------------------
                          DFT DISPERSION CORRECTION                            
                                                                               
                              DFTD3 V3.1  Rev 1                                
                          USING Becke-Johnson damping                          
-------------------------------------------------------------------------------
The TPSS functional is recognized
Active option DFTDOPT                   ...         4   

molecular C6(AA) [au] = 141.169141 


            DFT-D V3
 parameters
 s6 scaling factor         :     1.0000 
 a1 scaling factor         :     0.4535 
 s8 scaling factor         :     1.9435 
 a2 scaling factor         :     4.4752 
 ad hoc parameters k1-k3   :    16.0000     1.3333    -4.0000 

 Edisp/kcal,au: -0.645260756859  -0.001028288360 
 E6   /kcal   :  -0.327497019 
 E8   /kcal   :  -0.317763738 
 % E8         :  49.245787055 

-------------------------   ----------------
Dispersion correction           -0.001028288
-------------------------   ----------------


-------------------------   --------------------
FINAL SINGLE POINT ENERGY       -93.476042806546
-------------------------   --------------------

                                *** OPTIMIZATION RUN DONE ***

                            ***************************************
                            *     ORCA property calculations      *
                            ***************************************

                                    ---------------------
                                    Active property flags
                                    ---------------------
   (+) Dipole Moment


------------------------------------------------------------------------------
                       ORCA ELECTRIC PROPERTIES CALCULATION
------------------------------------------------------------------------------

Dipole Moment Calculation                       ... on
Quadrupole Moment Calculation                   ... off
Polarizability Calculation                      ... off
GBWName                                         ... 20_HCN.gbw
Electron density file                           ... 20_HCN.scfp
The origin for moment calculation is the CENTER OF MASS  = (-0.000000,  0.000000  1.002573)

-------------
DIPOLE MOMENT
-------------
                                X             Y             Z
Electronic contribution:      0.00000       0.00000       0.35818
Nuclear contribution   :      0.00000      -0.00000      -1.52524
                        -----------------------------------------
Total Dipole Moment    :      0.00000       0.00000      -1.16707
                        -----------------------------------------
Magnitude (a.u.)       :      1.16707
Magnitude (Debye)      :      2.96645



--------------------
Rotational spectrum 
--------------------
 
Rotational constants in cm-1:     0.000000     1.478055     1.478055 
Rotational constants in MHz :     0.000000 44310.982796 44310.982796 

 Dipole components along the rotational axes: 
x,y,z [a.u.] :    -1.167066    -0.000000     0.000000 
x,y,z [Debye]:    -2.966445    -0.000000     0.000000 

 

----------------------------------------------------------------------------
                           ORCA NUMERICAL FREQUENCIES
                              (24-process run)
----------------------------------------------------------------------------

Number of atoms                ... 3
Central differences            ... used
Number of displacements        ... 18
Numerical increment            ... 5.000e-03 bohr
IR-spectrum generation         ... on
Raman-spectrum generation      ... off
Surface Crossing Hessian       ... off

 WARNING: There are more processes than displacements to do
  ====> : Reducing number of processes to   9

The output will be reduced. Please look at the following files:
SCF program output             ... >20_HCN.lastscf
Integral program output        ... >20_HCN.lastint
Gradient program output        ... >20_HCN.lastgrad
Dipole moment program output   ... >20_HCN.lastmom
AutoCI program output          ... >20_HCN.lastautoci


         <<< Energy and Gradient at the input geometry >>>

        <<< Energy and Gradient at displaced geometries >>>
             <<<Displacing   1/coordinate 2 (+)>>>
             <<<Displacing   1/coordinate 1 (+)>>>
             <<<Displacing   3/coordinate 2 (+)>>>
             <<<Displacing   3/coordinate 1 (+)>>>
             <<<Displacing   2/coordinate 1 (+)>>>
             <<<Displacing   3/coordinate 3 (+)>>>
             <<<Displacing   2/coordinate 3 (+)>>>
             <<<Displacing   2/coordinate 2 (+)>>>
             <<<Displacing   1/coordinate 3 (+)>>>
             <<<Displacing   3/coordinate 1 (-)>>>
             <<<Displacing   3/coordinate 2 (-)>>>
             <<<Displacing   3/coordinate 3 (-)>>>
             <<<Displacing   2/coordinate 3 (-)>>>
             <<<Displacing   1/coordinate 3 (-)>>>
             <<<Displacing   2/coordinate 1 (-)>>>
             <<<Displacing   2/coordinate 2 (-)>>>
             <<<Displacing   1/coordinate 1 (-)>>>
             <<<Displacing   1/coordinate 2 (-)>>>
Warning: T+R mode no 5 is zero 

-----------------------
VIBRATIONAL FREQUENCIES
-----------------------

Scaling factor for frequencies =  1.000000000 (already applied!)

   0:         0.00 cm**-1
   1:         0.00 cm**-1
   2:         0.00 cm**-1
   3:         0.00 cm**-1
   4:         0.00 cm**-1
   5:       760.44 cm**-1
   6:       760.45 cm**-1
   7:      2135.64 cm**-1
   8:      3394.55 cm**-1


------------
NORMAL MODES
------------

These modes are the cartesian displacements weighted by the diagonal matrix
M(i,i)=1/sqrt(m[i]) where m[i] is the mass of the displaced atom
Thus, these vectors are normalized but *not* orthogonal

                  0          1          2          3          4          5    
      0       0.000000   0.000000   0.000000   0.000000   0.000000   0.090365
      1       0.000000   0.000000   0.000000   0.000000   0.000000  -0.131182
      2       0.000000   0.000000   0.000000   0.000000   0.000000   0.000000
      3       0.000000   0.000000   0.000000   0.000000   0.000000  -0.037275
      4       0.000000   0.000000   0.000000   0.000000   0.000000   0.054111
      5       0.000000   0.000000   0.000000   0.000000   0.000000  -0.000000
      6       0.000000   0.000000   0.000000   0.000000   0.000000  -0.558801
      7       0.000000   0.000000   0.000000   0.000000   0.000000   0.811203
      8       0.000000   0.000000   0.000000   0.000000   0.000000   0.000000
                   6          7          8    
      0       0.131182  -0.000000  -0.000000
      1       0.090365   0.000000   0.000000
      2       0.000000   0.416979   0.122362
      3      -0.054111   0.000000   0.000000
      4      -0.037275  -0.000000  -0.000000
      5      -0.000000  -0.415726  -0.033543
      6      -0.811203   0.000002   0.000000
      7      -0.558801  -0.000002  -0.000000
      8       0.000000   0.808270  -0.991919


-----------
IR SPECTRUM  
-----------

 Mode    freq (cm**-1)   T**2         TX         TY         TZ
-------------------------------------------------------------------
   5:       760.44   37.629374  ( -3.479896   5.051702  -0.000004)
   6:       760.45   37.629048  ( -5.051686  -3.479872   0.000005)
   7:      2135.64    0.341812  ( -0.000001   0.000006   0.584647)
   8:      3394.55   60.245074  ( -0.000002   0.000002  -7.761770)

The first frequency considered to be a vibration is 5
The total number of vibrations considered is 4


--------------------------
THERMOCHEMISTRY AT 298.15K
--------------------------

Temperature         ... 298.15 K
Pressure            ... 1.00 atm
Total Mass          ... 27.03 AMU
The molecule is recognized as being linear

Throughout the following assumptions are being made:
  (1) The electronic state is orbitally nondegenerate
  (2) There are no thermally accessible electronically excited states
  (3) Hindered rotations indicated by low frequency modes are not
      treated as such but are treated as vibrations and this may
      cause some error
  (4) All equations used are the standard statistical mechanics
      equations for an ideal gas
  (5) All vibrations are strictly harmonic

freq.     760.44  E(vib)   ...       0.06 
freq.     760.45  E(vib)   ...       0.06 
freq.    2135.64  E(vib)   ...       0.00 
freq.    3394.55  E(vib)   ...       0.00 

------------
INNER ENERGY
------------

The inner energy is: U= E(el) + E(ZPE) + E(vib) + E(rot) + E(trans)
    E(el)   - is the total energy from the electronic structure calculation
              = E(kin-el) + E(nuc-el) + E(el-el) + E(nuc-nuc)
    E(ZPE)  - the the zero temperature vibrational energy from the frequency calculation
    E(vib)  - the the finite temperature correction to E(ZPE) due to population
              of excited vibrational states
    E(rot)  - is the rotational thermal energy
    E(trans)- is the translational thermal energy

Summary of contributions to the inner energy U:
Electronic energy                ...    -93.47604281 Eh
Zero point energy                ...      0.01606355 Eh      10.08 kcal/mol
Thermal vibrational correction   ...      0.00018156 Eh       0.11 kcal/mol
Thermal rotational correction    ...      0.00094418 Eh       0.59 kcal/mol
Thermal translational correction ...      0.00141627 Eh       0.89 kcal/mol
-----------------------------------------------------------------------
Total thermal energy                    -93.45743724 Eh


Summary of corrections to the electronic energy:
(perhaps to be used in another calculation)
Total thermal correction                  0.00254202 Eh       1.60 kcal/mol
Non-thermal (ZPE) correction              0.01606355 Eh      10.08 kcal/mol
-----------------------------------------------------------------------
Total correction                          0.01860556 Eh      11.68 kcal/mol


--------
ENTHALPY
--------

The enthalpy is H = U + kB*T
                kB is Boltzmann's constant
Total free energy                 ...    -93.45743724 Eh 
Thermal Enthalpy correction       ...      0.00094421 Eh       0.59 kcal/mol
-----------------------------------------------------------------------
Total Enthalpy                    ...    -93.45649304 Eh


Note: Rotational entropy computed according to Herzberg 
Infrared and Raman Spectra, Chapter V,1, Van Nostrand Reinhold, 1945 
Point Group:  Cinfv, Symmetry Number:   1  
Rotational constants in cm-1:     0.000000     1.478055     1.478055 

Vibrational entropy computed according to the QRRHO of S. Grimme
Chem.Eur.J. 2012 18 9955


-------
ENTROPY
-------

The entropy contributions are T*S = T*(S(el)+S(vib)+S(rot)+S(trans))
     S(el)   - electronic entropy
     S(vib)  - vibrational entropy
     S(rot)  - rotational entropy
     S(trans)- translational entropy
The entropies will be listed as mutliplied by the temperature to get
units of energy

Electronic entropy                ...      0.00000000 Eh      0.00 kcal/mol
Vibrational entropy               ...      0.00023051 Eh      0.14 kcal/mol
Rotational entropy                ...      0.00561135 Eh      3.52 kcal/mol
Translational entropy             ...      0.01701823 Eh     10.68 kcal/mol
-----------------------------------------------------------------------
Final entropy term                ...      0.02286009 Eh     14.34 kcal/mol

In case the symmetry of your molecule has not been determined correctly
or in case you have a reason to use a different symmetry number we print 
out the resulting rotational entropy values for sn=1,12 :
 --------------------------------------------------------
|  sn= 1 | S(rot)=      -0.00959603 Eh     -6.02 kcal/mol|
|  sn= 2 | S(rot)=      -0.01025049 Eh     -6.43 kcal/mol|
|  sn= 3 | S(rot)=      -0.01063332 Eh     -6.67 kcal/mol|
|  sn= 4 | S(rot)=      -0.01090494 Eh     -6.84 kcal/mol|
|  sn= 5 | S(rot)=      -0.01111563 Eh     -6.98 kcal/mol|
|  sn= 6 | S(rot)=      -0.01128777 Eh     -7.08 kcal/mol|
|  sn= 7 | S(rot)=      -0.01143332 Eh     -7.17 kcal/mol|
|  sn= 8 | S(rot)=      -0.01155940 Eh     -7.25 kcal/mol|
|  sn= 9 | S(rot)=      -0.01167061 Eh     -7.32 kcal/mol|
|  sn=10 | S(rot)=      -0.01177009 Eh     -7.39 kcal/mol|
|  sn=11 | S(rot)=      -0.01186008 Eh     -7.44 kcal/mol|
|  sn=12 | S(rot)=      -0.01194223 Eh     -7.49 kcal/mol|
 --------------------------------------------------------


-------------------
GIBBS FREE ENERGY
-------------------

The Gibbs free energy is G = H - T*S

Total enthalpy                    ...    -93.45649304 Eh 
Total entropy correction          ...     -0.02286009 Eh    -14.34 kcal/mol
-----------------------------------------------------------------------
Final Gibbs free energy         ...    -93.47935313 Eh

For completeness - the Gibbs free energy minus the electronic energy
G-E(el)                           ...     -0.00331032 Eh     -2.08 kcal/mol


Total Time for Numerical Frequencies  :        11.750 sec

Timings for individual modules:

Sum of individual times         ...       13.808 sec (=   0.230 min)
GTO integral calculation        ...        3.208 sec (=   0.053 min)  23.2 %
SCF iterations                  ...        7.485 sec (=   0.125 min)  54.2 %
SCF Gradient evaluation         ...        3.011 sec (=   0.050 min)  21.8 %
Geometry relaxation             ...        0.103 sec (=   0.002 min)   0.7 %
                             ****ORCA TERMINATED NORMALLY****
TOTAL RUN TIME: 0 days 0 hours 0 minutes 23 seconds 600 msec
