
                                 *****************
                                 * O   R   C   A *
                                 *****************

           --- An Ab Initio, DFT and Semiempirical electronic structure package ---

                  #######################################################
                  #                        -***-                        #
                  #          Department of theory and spectroscopy      #
                  #               Directorship: Frank Neese             #
                  #        Max Planck Institute fuer Kohlenforschung    #
                  #                Kaiser Wilhelm Platz 1               #
                  #                 D-45470 Muelheim/Ruhr               #
                  #                      Germany                        #
                  #                                                     #
                  #                  All rights reserved                #
                  #                        -***-                        #
                  #######################################################


                         Program Version 4.2.0 -  RELEASE  -


 With contributions from (in alphabetic order):
   Daniel Aravena         : Magnetic Suceptibility
   Michael Atanasov       : Ab Initio Ligand Field Theory (pilot matlab implementation)
   Alexander A. Auer      : GIAO ZORA, VPT2
   Ute Becker             : Parallelization
   Giovanni Bistoni       : ED, misc. LED, open-shell LED, HFLED
   Martin Brehm           : Molecular dynamics
   Dmytro Bykov           : SCF Hessian
   Vijay G. Chilkuri      : MRCI spin determinant printing, contributions to CSF-ICE
   Dipayan Datta          : RHF DLPNO-CCSD density
   Achintya Kumar Dutta   : EOM-CC, STEOM-CC
   Dmitry Ganyushin       : Spin-Orbit,Spin-Spin,Magnetic field MRCI
   Miquel Garcia          : C-PCM Hessian, Gaussian charge scheme
   Yang Guo               : DLPNO-NEVPT2, CIM, IAO-localization
   Andreas Hansen         : Spin unrestricted coupled pair/coupled cluster methods
   Benjamin Helmich-Paris : CASSCF linear response (MC-RPA)
   Lee Huntington         : MR-EOM, pCC
   Robert Izsak           : Overlap fitted RIJCOSX, COSX-SCS-MP3, EOM
   Christian Kollmar      : KDIIS, OOCD, Brueckner-CCSD(T), CCSD density
   Simone Kossmann        : Meta GGA functionals, TD-DFT gradient, OOMP2, MP2 Hessian
   Martin Krupicka        : AUTO-CI
   Lucas Lang             : DCDCAS
   Dagmar Lenk            : GEPOL surface, SMD
   Dimitrios Liakos       : Extrapolation schemes; Compound Job, initial MDCI parallelization
   Dimitrios Manganas     : Further ROCIS development; embedding schemes
   Dimitrios Pantazis     : SARC Basis sets
   Taras Petrenko         : DFT Hessian,TD-DFT gradient, ASA, ECA, R-Raman, ABS, FL, XAS/XES, NRVS
   Peter Pinski           : DLPNO-MP2, DLPNO-MP2 Gradient
   Christoph Reimann      : Effective Core Potentials
   Marius Retegan         : Local ZFS, SOC
   Christoph Riplinger    : Optimizer, TS searches, QM/MM, DLPNO-CCSD(T), (RO)-DLPNO pert. Triples
   Tobias Risthaus        : Range-separated hybrids, TD-DFT gradient, RPA, STAB
   Michael Roemelt        : Original ROCIS implementation
   Masaaki Saitow         : Open-shell DLPNO-CCSD energy and density
   Barbara Sandhoefer     : DKH picture change effects
   Avijit Sen             : IP-ROCIS
   Kantharuban Sivalingam : CASSCF convergence, NEVPT2, FIC-MRCI
   Bernardo de Souza      : ESD, SOC TD-DFT
   Georgi Stoychev        : AutoAux, RI-MP2 NMR
   Willem Van den Heuvel  : Paramagnetic NMR
   Boris Wezisla          : Elementary symmetry handling
   Frank Wennmohs         : Technical directorship


 We gratefully acknowledge several colleagues who have allowed us to
 interface, adapt or use parts of their codes:
   Stefan Grimme, W. Hujo, H. Kruse,             : VdW corrections, initial TS optimization,
                  C. Bannwarth                     DFT functionals, gCP, sTDA/sTD-DF
   Ed Valeev, F. Pavosevic, A. Kumar             : LibInt (2-el integral package), F12 methods
   Garnet Chan, S. Sharma, J. Yang, R. Olivares  : DMRG
   Ulf Ekstrom                                   : XCFun DFT Library
   Mihaly Kallay                                 : mrcc  (arbitrary order and MRCC methods)
   Andreas Klamt, Michael Diedenhofen            : otool_cosmo (COSMO solvation model)
   Jiri Pittner, Ondrej Demel                    : Mk-CCSD
   Frank Weinhold                                : gennbo (NPA and NBO analysis)
   Christopher J. Cramer and Donald G. Truhlar   : smd solvation model
   Lars Goerigk                                  : TD-DFT with DH, B97 family of functionals
   V. Asgeirsson, H. Jonsson                     : NEB implementation
   FAccTs GmbH                                   : IRC, NEB, NEB-TS, Multilevel, MM, QM/MM, CI optimization
   S Lehtola, MJT Oliveira, MAL Marques          : LibXC Library


 Your calculation uses the libint2 library for the computation of 2-el integrals
 For citations please refer to: http://libint.valeyev.net

 Your ORCA version has been built with support for libXC version: 4.2.3
 For citations please refer to: https://tddft.org/programs/libxc/

 This ORCA versions uses:
   CBLAS   interface :  Fast vector & matrix operations
   LAPACKE interface :  Fast linear algebra routines
   SCALAPACK package :  Parallel linear algebra routines


Your calculation utilizes the atom-pairwise dispersion correction
with the Becke-Johnson damping scheme (D3BJ)
Cite in your paper:
S.Grimme, S.Ehrlich, L.Goerigk, J Comput Chem, (2011), 32, 1456–1465 
S.Grimme, J.Antony, S.Ehrlich and H.Krieg, J.Chem.Phys., 132, (2010), 154104 
   

----- Orbital basis set information -----
Your calculation utilizes the basis: aug-cc-pV(T+d)Z 
             Al - Ar: T.H. Dunning, Jr., K. A. Peterson and A. K. Wilson, J. Chem. Phys.
                      114, 9244 (2001)

----- AuxJ basis set information -----
Your calculation utilizes the auxiliary basis: def2/J
   F. Weigend, Phys. Chem. Chem. Phys. 8, 1057 (2006).

================================================================================
                                        WARNINGS
                       Please study these warnings very carefully!
================================================================================


WARNING: your system is open-shell and RHF/RKS was chosen
  ===> : WILL SWITCH to UHF/UKS


WARNING: The environment variable RSH_COMMAND is not set!
  ===> : All Displacements for the Numerical Hessian calculation
         will be started on localhost

WARNING: Geometry Optimization
  ===> : Switching off AutoStart
         For restart on a previous wavefunction, please use MOREAD

INFO   : the flag for use of LIBINT has been found!

================================================================================
                                       INPUT FILE
================================================================================
NAME = 32_S2.in
|  1> #
|  2> # 32_S2 tpss/aug-cc-pvt(+d)z
|  3> #
|  4> ! tpss d3bj aug-cc-pvt(+d)z def2/j opt xyzfile numfreq
|  5> 
|  6> *xyz 0 3
|  7> S           -0.000000000         -0.000000000          0.005070157
|  8> S            0.000000000          0.000000000          1.891814433
|  9> *
| 10> 
| 11> %pal
| 12> nprocs 24
| 13> end
| 14> 
| 15> 
| 16>                          ****END OF INPUT****
================================================================================

                       *****************************
                       * Geometry Optimization Run *
                       *****************************

Geometry optimization settings:
Update method            Update   .... BFGS
Choice of coordinates    CoordSys .... Z-matrix Internals
Initial Hessian          InHess   .... Almoef's Model

Convergence Tolerances:
Energy Change            TolE     ....  5.0000e-06 Eh
Max. Gradient            TolMAXG  ....  3.0000e-04 Eh/bohr
RMS Gradient             TolRMSG  ....  1.0000e-04 Eh/bohr
Max. Displacement        TolMAXD  ....  4.0000e-03 bohr
RMS Displacement         TolRMSD  ....  2.0000e-03 bohr
Strict Convergence                ....  False
------------------------------------------------------------------------------
                        ORCA OPTIMIZATION COORDINATE SETUP
------------------------------------------------------------------------------

The optimization will be done in new redundant internal coordinates
Making redundant internal coordinates   ...  (new redundants) done
Evaluating the initial hessian          ...  (Almloef) done
Evaluating the coordinates              ...  done
Calculating the B-matrix                .... done
Calculating the G-matrix                .... done
Diagonalizing the G-matrix              .... done
The first mode is                       ....    0
The number of degrees of freedom        ....    1

    -----------------------------------------------------------------
                    Redundant Internal Coordinates


    -----------------------------------------------------------------
         Definition                    Initial Value    Approx d2E/dq
    -----------------------------------------------------------------
      1. B(S   1,S   0)                  1.8867         0.732403   
    -----------------------------------------------------------------

Number of atoms                         .... 2
Number of degrees of freedom            .... 1

         *************************************************************
         *                GEOMETRY OPTIMIZATION CYCLE   1            *
         *************************************************************
---------------------------------
CARTESIAN COORDINATES (ANGSTROEM)
---------------------------------
  S     -0.000000   -0.000000    0.005070
  S      0.000000    0.000000    1.891814

----------------------------
CARTESIAN COORDINATES (A.U.)
----------------------------
  NO LB      ZA    FRAG     MASS         X           Y           Z
   0 S    16.0000    0    32.060   -0.000000   -0.000000    0.009581
   1 S    16.0000    0    32.060    0.000000    0.000000    3.575011

--------------------------------
INTERNAL COORDINATES (ANGSTROEM)
--------------------------------
 S      0   0   0     0.000000000000     0.00000000     0.00000000
 S      1   0   0     1.886744276000     0.00000000     0.00000000

---------------------------
INTERNAL COORDINATES (A.U.)
---------------------------
 S      0   0   0     0.000000000000     0.00000000     0.00000000
 S      1   0   0     3.565429966384     0.00000000     0.00000000

---------------------
BASIS SET INFORMATION
---------------------
There are 1 groups of distinct atoms

 Group   1 Type S   : 42s17p4d2f contracted to 6s5p4d2f pattern {131313111/77111/1111/11}

Atom   0S    basis set group =>   1
Atom   1S    basis set group =>   1
---------------------------------
AUXILIARY/J BASIS SET INFORMATION
---------------------------------
There are 1 groups of distinct atoms

 Group   1 Type S   : 14s5p5d2f1g contracted to 8s4p3d1f1g pattern {71111111/2111/311/2/1}

Atom   0S    basis set group =>   1
Atom   1S    basis set group =>   1


           ************************************************************
           *        Program running with 24 parallel MPI-processes    *
           *              working on a common directory               *
           ************************************************************
------------------------------------------------------------------------------
                           ORCA GTO INTEGRAL CALCULATION
                           -- RI-GTO INTEGRALS CHOSEN --
------------------------------------------------------------------------------

                         BASIS SET STATISTICS AND STARTUP INFO

Gaussian basis set:
 # of primitive gaussian shells          ...  130
 # of primitive gaussian functions       ...  254
 # of contracted shells                  ...   34
 # of contracted basis functions         ...  110
 Highest angular momentum                ...    3
 Maximum contraction depth               ...   13
Auxiliary gaussian basis set:
 # of primitive gaussian shells          ...   54
 # of primitive gaussian functions       ...  154
 # of contracted shells                  ...   34
 # of contracted aux-basis functions     ...  102
 Highest angular momentum                ...    4
 Maximum contraction depth               ...    7
Ratio of auxiliary to basis functions    ...  0.93
Integral package used                  ... LIBINT
 One Electron integrals                  ... done
 Ordering auxiliary basis shells         ... done
 Integral threshhold             Thresh  ...  2.500e-11
 Primitive cut-off               TCut    ...  2.500e-12
 Pre-screening matrix                    ... done
 Shell pair data                         ... 
 Ordering of the shell pairs             ... done (   0.000 sec) 595 of 595 pairs
 Determination of significant pairs      ... done (   0.000 sec)
 Creation of shell pair data             ... done (   0.000 sec)
 Storage of shell pair data              ... done (   0.051 sec)
 Shell pair data done in (   0.051 sec)
 Computing two index integrals           ... done
 Cholesky decomposition of the V-matrix  ... done


Timings:
 Total evaluation time                   ...   0.431 sec (  0.007 min)
 One electron matrix time                ...   0.130 sec (  0.002 min) = 30.3%
 Schwartz matrix evaluation time         ...   0.210 sec (  0.003 min) = 48.7%
 Two index repulsion integral time       ...   0.004 sec (  0.000 min) =  1.0%
 Cholesky decomposition of V             ...   0.005 sec (  0.000 min) =  1.2%
 Three index repulsion integral time     ...   0.000 sec (  0.000 min) =  0.0%



           ************************************************************
           *        Program running with 24 parallel MPI-processes    *
           *              working on a common directory               *
           ************************************************************
-------------------------------------------------------------------------------
                                 ORCA SCF
-------------------------------------------------------------------------------

------------
SCF SETTINGS
------------
Hamiltonian:
 Density Functional     Method          .... DFT(GTOs)
 Exchange Functional    Exchange        .... TPSS
 Correlation Functional Correlation     .... TPSS
 LDA part of GGA corr.  LDAOpt          .... PW91-LDA
 Gradients option       PostSCFGGA      .... off
   Density functional embedding theory  .... OFF
   NL short-range parameter             ....  5.000000
 RI-approximation to the Coulomb term is turned on
   Number of auxiliary basis functions  .... 102


General Settings:
 Integral files         IntName         .... 32_S2
 Hartree-Fock type      HFTyp           .... UHF
 Total Charge           Charge          ....    0
 Multiplicity           Mult            ....    3
 Number of Electrons    NEL             ....   32
 Basis Dimension        Dim             ....  110
 Nuclear Repulsion      ENuc            ....     71.8005969585 Eh

Convergence Acceleration:
 DIIS                   CNVDIIS         .... on
   Start iteration      DIISMaxIt       ....    12
   Startup error        DIISStart       ....  0.200000
   # of expansion vecs  DIISMaxEq       ....     5
   Bias factor          DIISBfac        ....   1.050
   Max. coefficient     DIISMaxC        ....  10.000
 Newton-Raphson         CNVNR           .... off
 SOSCF                  CNVSOSCF        .... off
 Level Shifting         CNVShift        .... on
   Level shift para.    LevelShift      ....    0.2500
   Turn off err/grad.   ShiftErr        ....    0.0010
 Zerner damping         CNVZerner       .... off
 Static damping         CNVDamp         .... on
   Fraction old density DampFac         ....    0.7000
   Max. Damping (<1)    DampMax         ....    0.9800
   Min. Damping (>=0)   DampMin         ....    0.0000
   Turn off err/grad.   DampErr         ....    0.1000
 Fernandez-Rico         CNVRico         .... off

SCF Procedure:
 Maximum # iterations   MaxIter         ....   125
 SCF integral mode      SCFMode         .... Direct
   Integral package                     .... LIBINT
 Reset frequency        DirectResetFreq ....    20
 Integral Threshold     Thresh          ....  2.500e-11 Eh
 Primitive CutOff       TCut            ....  2.500e-12 Eh

Convergence Tolerance:
 Convergence Check Mode ConvCheckMode   .... Total+1el-Energy
 Convergence forced     ConvForced      .... 0
 Energy Change          TolE            ....  1.000e-08 Eh
 1-El. energy change                    ....  1.000e-05 Eh
 DIIS Error             TolErr          ....  5.000e-07


Diagonalization of the overlap matrix:
Smallest eigenvalue                        ... 2.111e-04
Time for diagonalization                   ...    0.003 sec
Threshold for overlap eigenvalues          ... 1.000e-08
Number of eigenvalues below threshold      ... 0
Time for construction of square roots      ...    0.010 sec
Total time needed                          ...    0.013 sec

-------------------
DFT GRID GENERATION
-------------------

General Integration Accuracy     IntAcc      ...  4.340
Radial Grid Type                 RadialGrid  ... Gauss-Chebyshev
Angular Grid (max. acc.)         AngularGrid ... Lebedev-110
Angular grid pruning method      GridPruning ... 3 (G Style)
Weight generation scheme         WeightScheme... Becke
Basis function cutoff            BFCut       ...    1.0000e-11
Integration weight cutoff        WCut        ...    1.0000e-14
Grids for H and He will be reduced by one unit

# of grid points (after initial pruning)     ...   3612 (   0.0 sec)
# of grid points (after weights+screening)   ...   3588 (   0.0 sec)
nearest neighbour list constructed           ...    0.0 sec
Grid point re-assignment to atoms done       ...    0.0 sec
Grid point division into batches done        ...    0.0 sec
Reduced shell lists constructed in    0.0 sec

Total number of grid points                  ...     3588
Total number of batches                      ...       58
Average number of points per batch           ...       61
Average number of grid points per atom       ...     1794
Average number of shells per batch           ...    21.00 (61.76%)
Average number of basis functions per batch  ...    67.50 (61.36%)
Average number of large shells per batch     ...    14.25 (67.86%)
Average number of large basis fcns per batch ...    50.75 (75.19%)
Maximum spatial batch extension              ...  29.83, 22.78, 16.59 au
Average spatial batch extension              ...   1.05,  1.06,  0.74 au

Time for grid setup =    0.051 sec

------------------------------
INITIAL GUESS: MODEL POTENTIAL
------------------------------
Loading Hartree-Fock densities                     ... done
Calculating cut-offs                               ... done
Setting up the integral package                    ... done
Initializing the effective Hamiltonian             ... done
Starting the Coulomb interaction                   ... done (   0.0 sec)
Reading the grid                                   ... done
Mapping shells                                     ... done
Starting the XC term evaluation                    ... done (   0.0 sec)
  promolecular density results
     # of electrons  =     32.000449258
     EX              =    -49.750958677
     EC              =     -1.228331967
     EX+EC           =    -50.979290644
Transforming the Hamiltonian                       ... done (   0.0 sec)
Diagonalizing the Hamiltonian                      ... done (   0.0 sec)
Back transforming the eigenvectors                 ... done (   0.0 sec)
Now organizing SCF variables                       ... done
                      ------------------
                      INITIAL GUESS DONE (   0.2 sec)
                      ------------------
--------------
SCF ITERATIONS
--------------
ITER       Energy         Delta-E        Max-DP      RMS-DP      [F,P]     Damp
               ***  Starting incremental Fock matrix formation  ***
  0   -796.4486660089   0.000000000000 0.00832983  0.00022003  0.0322118 0.7000
  1   -796.4511873163  -0.002521307417 0.00665594  0.00016902  0.0177578 0.7000
                               ***Turning on DIIS***
  2   -796.4525312588  -0.001343942545 0.01445063  0.00038603  0.0111366 0.0000
  3   -796.4550627310  -0.002531472135 0.00248046  0.00008053  0.0097882 0.0000
  4   -796.4554763871  -0.000413656102 0.00121148  0.00003914  0.0013400 0.0000
  5   -796.4555142018  -0.000037814769 0.00062164  0.00002275  0.0003851 0.0000
  6   -796.4555229901  -0.000008788244 0.00010579  0.00000317  0.0000237 0.0000
  7   -796.4555231744  -0.000000184283 0.00001594  0.00000062  0.0000075 0.0000
  8   -796.4555231638   0.000000010550 0.00000329  0.00000012  0.0000026 0.0000
                            ***DIIS convergence achieved***

               *****************************************************
               *                     SUCCESS                       *
               *           SCF CONVERGED AFTER   9 CYCLES          *
               *****************************************************

Setting up the final grid:

General Integration Accuracy     IntAcc      ...  4.670
Radial Grid Type                 RadialGrid  ... Gauss-Chebyshev
Angular Grid (max. acc.)         AngularGrid ... Lebedev-302
Angular grid pruning method      GridPruning ... 3 (G Style)
Weight generation scheme         WeightScheme... Becke
Basis function cutoff            BFCut       ...    1.0000e-11
Integration weight cutoff        WCut        ...    1.0000e-14
Grids for H and He will be reduced by one unit

# of grid points (after initial pruning)     ...  13692 (   0.0 sec)
# of grid points (after weights+screening)   ...  13666 (   0.0 sec)
nearest neighbour list constructed           ...    0.0 sec
Grid point re-assignment to atoms done       ...    0.0 sec
Grid point division into batches done        ...    0.1 sec
Reduced shell lists constructed in    0.1 sec

Total number of grid points                  ...    13666
Total number of batches                      ...      214
Average number of points per batch           ...       63
Average number of grid points per atom       ...     6833
Average number of shells per batch           ...     9.60 (28.24%)
Average number of basis functions per batch  ...    30.60 (27.82%)
Average number of large shells per batch     ...     6.20 (64.58%)
Average number of large basis fcns per batch ...    18.20 (59.48%)
Maximum spatial batch extension              ...  19.50, 19.55, 13.43 au
Average spatial batch extension              ...   0.66,  0.66,  0.47 au

Final grid set up in    0.2 sec
Final integration                            ... done (   0.2 sec)
Change in XC energy                          ...    -0.002844676
Integrated number of electrons               ...    32.000002331
Previous integrated no of electrons          ...    32.000170371

----------------
TOTAL SCF ENERGY
----------------

Total Energy       :         -796.45836785 Eh          -21672.73401 eV

Components:
Nuclear Repulsion  :           71.80059696 Eh            1953.79357 eV
Electronic Energy  :         -868.25896481 Eh          -23626.52758 eV
One Electron Energy:        -1242.28811964 Eh          -33804.37832 eV
Two Electron Energy:          374.02915484 Eh           10177.85074 eV

Virial components:
Potential Energy   :        -1590.50603464 Eh          -43279.86951 eV
Kinetic Energy     :          794.04766679 Eh           21607.13550 eV
Virial Ratio       :            2.00303597


DFT components:
N(Alpha)           :       17.000001225037 electrons
N(Beta)            :       15.000001106143 electrons
N(Total)           :       32.000002331180 electrons
E(X)               :      -50.138479952547 Eh       
E(C)               :       -1.232373651944 Eh       
E(XC)              :      -51.370853604491 Eh       
DFET-embed. en.    :        0.000000000000 Eh       

---------------
SCF CONVERGENCE
---------------

  Last Energy change         ...   -8.7427e-09  Tolerance :   1.0000e-08
  Last MAX-Density change    ...    1.1351e-06  Tolerance :   1.0000e-07
  Last RMS-Density change    ...    3.0340e-08  Tolerance :   5.0000e-09
  Last DIIS Error            ...    3.4916e-07  Tolerance :   5.0000e-07

             **** THE GBW FILE WAS UPDATED (32_S2.gbw) ****
             **** DENSITY FILE WAS UPDATED (32_S2.scfp) ****
             **** ENERGY FILE WAS UPDATED (32_S2.en.tmp) ****
----------------------
UHF SPIN CONTAMINATION
----------------------

Warning: in a DFT calculation there is little theoretical justification to 
         calculate <S**2> as in Hartree-Fock theory. We will do it anyways
         but you should keep in mind that the values have only limited relevance

Expectation value of <S**2>     :     2.007449
Ideal value S*(S+1) for S=1.0   :     2.000000
Deviation                       :     0.007449

             **** THE GBW FILE WAS UPDATED (32_S2.gbw) ****
             **** DENSITY FILE WAS UPDATED (32_S2.scfp) ****
----------------
ORBITAL ENERGIES
----------------
                 SPIN UP ORBITALS
  NO   OCC          E(Eh)            E(eV) 
   0   1.0000     -88.440473     -2406.5876 
   1   1.0000     -88.440469     -2406.5875 
   2   1.0000      -7.792963      -212.0573 
   3   1.0000      -7.792805      -212.0530 
   4   1.0000      -5.772562      -157.0794 
   5   1.0000      -5.771812      -157.0590 
   6   1.0000      -5.771812      -157.0590 
   7   1.0000      -5.771750      -157.0573 
   8   1.0000      -5.771746      -157.0572 
   9   1.0000      -5.771746      -157.0572 
  10   1.0000      -0.783623       -21.3235 
  11   1.0000      -0.585571       -15.9342 
  12   1.0000      -0.369844       -10.0640 
  13   1.0000      -0.346614        -9.4319 
  14   1.0000      -0.346614        -9.4319 
  15   1.0000      -0.218751        -5.9525 
  16   1.0000      -0.218751        -5.9525 
  17   0.0000      -0.040900        -1.1130 
  18   0.0000       0.012183         0.3315 
  19   0.0000       0.034482         0.9383 
  20   0.0000       0.034482         0.9383 
  21   0.0000       0.038067         1.0359 
  22   0.0000       0.045484         1.2377 
  23   0.0000       0.069309         1.8860 
  24   0.0000       0.069309         1.8860 
  25   0.0000       0.092310         2.5119 
  26   0.0000       0.092969         2.5298 
  27   0.0000       0.135407         3.6846 
  28   0.0000       0.135407         3.6846 
  29   0.0000       0.147120         4.0033 
  30   0.0000       0.193643         5.2693 
  31   0.0000       0.201972         5.4959 
  32   0.0000       0.203288         5.5317 
  33   0.0000       0.289165         7.8686 
  34   0.0000       0.289165         7.8686 
  35   0.0000       0.293061         7.9746 
  36   0.0000       0.366243         9.9660 
  37   0.0000       0.366243         9.9660 
  38   0.0000       0.427582        11.6351 
  39   0.0000       0.427582        11.6351 
  40   0.0000       0.433282        11.7902 
  41   0.0000       0.433484        11.7957 
  42   0.0000       0.454489        12.3673 
  43   0.0000       0.471006        12.8167 
  44   0.0000       0.480886        13.0856 
  45   0.0000       0.486873        13.2485 
  46   0.0000       0.486873        13.2485 
  47   0.0000       0.508860        13.8468 
  48   0.0000       0.511113        13.9081 
  49   0.0000       0.553711        15.0673 
  50   0.0000       0.600362        16.3367 
  51   0.0000       0.600362        16.3367 
  52   0.0000       0.603376        16.4187 
  53   0.0000       0.603376        16.4187 
  54   0.0000       0.678446        18.4614 
  55   0.0000       0.679626        18.4936 
  56   0.0000       0.747852        20.3501 
  57   0.0000       0.754818        20.5396 
  58   0.0000       0.754818        20.5396 
  59   0.0000       0.930536        25.3212 
  60   0.0000       0.930536        25.3212 
  61   0.0000       0.957154        26.0455 
  62   0.0000       0.960943        26.1486 
  63   0.0000       0.998611        27.1736 
  64   0.0000       1.089788        29.6547 
  65   0.0000       1.089788        29.6547 
  66   0.0000       1.183762        32.2118 
  67   0.0000       1.297144        35.2971 
  68   0.0000       1.539144        41.8822 
  69   0.0000       1.541692        41.9516 
  70   0.0000       1.599671        43.5293 
  71   0.0000       1.599671        43.5293 
  72   0.0000       1.622962        44.1630 
  73   0.0000       1.625175        44.2233 
  74   0.0000       1.628279        44.3077 
  75   0.0000       1.770914        48.1890 
  76   0.0000       1.770914        48.1890 
  77   0.0000       1.803680        49.0806 
  78   0.0000       1.891541        51.4714 
  79   0.0000       1.900184        51.7066 
  80   0.0000       1.900184        51.7066 
  81   0.0000       1.906102        51.8677 
  82   0.0000       1.907570        51.9076 
  83   0.0000       1.967087        53.5272 
  84   0.0000       1.967087        53.5272 
  85   0.0000       1.979956        53.8774 
  86   0.0000       1.979956        53.8774 
  87   0.0000       2.055770        55.9404 
  88   0.0000       2.055770        55.9404 
  89   0.0000       2.221929        60.4618 
  90   0.0000       2.223676        60.5093 
  91   0.0000       2.224336        60.5273 
  92   0.0000       2.224336        60.5273 
  93   0.0000       2.340038        63.6757 
  94   0.0000       2.531993        68.8990 
  95   0.0000       2.567871        69.8753 
  96   0.0000       2.567871        69.8753 
  97   0.0000       3.516768        95.6961 
  98   0.0000       4.479042       121.8809 
  99   0.0000       5.155345       140.2841 
 100   0.0000       6.639840       180.6792 
 101   0.0000       6.640143       180.6875 
 102   0.0000       6.674120       181.6120 
 103   0.0000       6.674120       181.6120 
 104   0.0000       6.676551       181.6782 
 105   0.0000       6.676961       181.6894 
 106   0.0000       6.788647       184.7285 
 107   0.0000       6.817324       185.5088 
 108   0.0000       6.817324       185.5088 
 109   0.0000       7.108641       193.4359 

                 SPIN DOWN ORBITALS
  NO   OCC          E(Eh)            E(eV) 
   0   1.0000     -88.435292     -2406.4466 
   1   1.0000     -88.435288     -2406.4465 
   2   1.0000      -7.788279      -211.9299 
   3   1.0000      -7.788121      -211.9256 
   4   1.0000      -5.769739      -157.0026 
   5   1.0000      -5.768925      -156.9804 
   6   1.0000      -5.762785      -156.8133 
   7   1.0000      -5.762785      -156.8133 
   8   1.0000      -5.762718      -156.8115 
   9   1.0000      -5.762718      -156.8115 
  10   1.0000      -0.760523       -20.6949 
  11   1.0000      -0.537505       -14.6262 
  12   1.0000      -0.349353        -9.5064 
  13   1.0000      -0.308179        -8.3860 
  14   1.0000      -0.308179        -8.3860 
  15   0.0000      -0.162974        -4.4348 
  16   0.0000      -0.162974        -4.4348 
  17   0.0000      -0.025085        -0.6826 
  18   0.0000       0.020344         0.5536 
  19   0.0000       0.041734         1.1357 
  20   0.0000       0.041734         1.1357 
  21   0.0000       0.047133         1.2825 
  22   0.0000       0.052181         1.4199 
  23   0.0000       0.080239         2.1834 
  24   0.0000       0.080239         2.1834 
  25   0.0000       0.113786         3.0963 
  26   0.0000       0.114180         3.1070 
  27   0.0000       0.153952         4.1893 
  28   0.0000       0.153952         4.1893 
  29   0.0000       0.156222         4.2510 
  30   0.0000       0.204851         5.5743 
  31   0.0000       0.229020         6.2319 
  32   0.0000       0.230725         6.2783 
  33   0.0000       0.302772         8.2388 
  34   0.0000       0.302772         8.2388 
  35   0.0000       0.303164         8.2495 
  36   0.0000       0.380479        10.3534 
  37   0.0000       0.380479        10.3534 
  38   0.0000       0.446438        12.1482 
  39   0.0000       0.446438        12.1482 
  40   0.0000       0.461429        12.5561 
  41   0.0000       0.461946        12.5702 
  42   0.0000       0.463513        12.6128 
  43   0.0000       0.487711        13.2713 
  44   0.0000       0.493715        13.4347 
  45   0.0000       0.508706        13.8426 
  46   0.0000       0.508706        13.8426 
  47   0.0000       0.549653        14.9568 
  48   0.0000       0.551533        15.0080 
  49   0.0000       0.563995        15.3471 
  50   0.0000       0.624101        16.9826 
  51   0.0000       0.624101        16.9826 
  52   0.0000       0.624357        16.9896 
  53   0.0000       0.624357        16.9896 
  54   0.0000       0.697033        18.9672 
  55   0.0000       0.698208        18.9992 
  56   0.0000       0.765886        20.8408 
  57   0.0000       0.784296        21.3418 
  58   0.0000       0.784296        21.3418 
  59   0.0000       0.945682        25.7333 
  60   0.0000       0.945682        25.7333 
  61   0.0000       0.979115        26.6431 
  62   0.0000       0.982363        26.7315 
  63   0.0000       1.014746        27.6126 
  64   0.0000       1.108464        30.1628 
  65   0.0000       1.108464        30.1628 
  66   0.0000       1.206285        32.8247 
  67   0.0000       1.323659        36.0186 
  68   0.0000       1.574009        42.8310 
  69   0.0000       1.576659        42.9031 
  70   0.0000       1.618828        44.0506 
  71   0.0000       1.618828        44.0506 
  72   0.0000       1.639718        44.6190 
  73   0.0000       1.659773        45.1647 
  74   0.0000       1.662724        45.2450 
  75   0.0000       1.799837        48.9761 
  76   0.0000       1.799837        48.9761 
  77   0.0000       1.817351        49.4526 
  78   0.0000       1.911702        52.0201 
  79   0.0000       1.925518        52.3960 
  80   0.0000       1.925518        52.3960 
  81   0.0000       1.932421        52.5838 
  82   0.0000       1.934427        52.6384 
  83   0.0000       1.994466        54.2722 
  84   0.0000       1.994466        54.2722 
  85   0.0000       2.024662        55.0939 
  86   0.0000       2.024662        55.0939 
  87   0.0000       2.102155        57.2025 
  88   0.0000       2.102155        57.2025 
  89   0.0000       2.248139        61.1750 
  90   0.0000       2.248139        61.1750 
  91   0.0000       2.257473        61.4290 
  92   0.0000       2.259214        61.4763 
  93   0.0000       2.362460        64.2858 
  94   0.0000       2.551982        69.4430 
  95   0.0000       2.599498        70.7359 
  96   0.0000       2.599498        70.7359 
  97   0.0000       3.538941        96.2995 
  98   0.0000       4.499246       122.4307 
  99   0.0000       5.175188       140.8240 
 100   0.0000       6.654316       181.0732 
 101   0.0000       6.654569       181.0800 
 102   0.0000       6.683596       181.8699 
 103   0.0000       6.683596       181.8699 
 104   0.0000       6.691107       182.0743 
 105   0.0000       6.691456       182.0838 
 106   0.0000       6.796376       184.9388 
 107   0.0000       6.827212       185.7779 
 108   0.0000       6.827212       185.7779 
 109   0.0000       7.117708       193.6827 

                    ********************************
                    * MULLIKEN POPULATION ANALYSIS *
                    ********************************

--------------------------------------------
MULLIKEN ATOMIC CHARGES AND SPIN POPULATIONS
--------------------------------------------
   0 S :   -0.000000    1.000000
   1 S :    0.000000    1.000000
Sum of atomic charges         :   -0.0000000
Sum of atomic spin populations:    2.0000000

-----------------------------------------------------
MULLIKEN REDUCED ORBITAL CHARGES AND SPIN POPULATIONS
-----------------------------------------------------
CHARGE
  0 S s       :     5.989650  s :     5.989650
      pz      :     2.982248  p :     9.856042
      px      :     3.436897
      py      :     3.436897
      dz2     :     0.023964  d :     0.134202
      dxz     :     0.055119
      dyz     :     0.055119
      dx2y2   :     0.000000
      dxy     :     0.000000
      f0      :     0.004138  f :     0.020106
      f+1     :     0.007984
      f-1     :     0.007984
      f+2     :    -0.000000
      f-2     :     0.000000
      f+3     :     0.000000
      f-3     :     0.000000
  1 S s       :     5.989650  s :     5.989650
      pz      :     2.982248  p :     9.856042
      px      :     3.436897
      py      :     3.436897
      dz2     :     0.023964  d :     0.134202
      dxz     :     0.055119
      dyz     :     0.055119
      dx2y2   :     0.000000
      dxy     :     0.000000
      f0      :     0.004138  f :     0.020106
      f+1     :     0.007984
      f-1     :     0.007984
      f+2     :    -0.000000
      f-2     :     0.000000
      f+3     :     0.000000
      f-3     :     0.000000

SPIN
  0 S s       :     0.006803  s :     0.006803
      pz      :    -0.006037  p :     0.967715
      px      :     0.486876
      py      :     0.486876
      dz2     :     0.000295  d :     0.024894
      dxz     :     0.012300
      dyz     :     0.012300
      dx2y2   :     0.000000
      dxy     :    -0.000000
      f0      :    -0.001060  f :     0.000588
      f+1     :     0.000824
      f-1     :     0.000824
      f+2     :     0.000000
      f-2     :    -0.000000
      f+3     :     0.000000
      f-3     :     0.000000
  1 S s       :     0.006803  s :     0.006803
      pz      :    -0.006037  p :     0.967715
      px      :     0.486876
      py      :     0.486876
      dz2     :     0.000295  d :     0.024894
      dxz     :     0.012300
      dyz     :     0.012300
      dx2y2   :    -0.000000
      dxy     :    -0.000000
      f0      :    -0.001060  f :     0.000588
      f+1     :     0.000824
      f-1     :     0.000824
      f+2     :     0.000000
      f-2     :    -0.000000
      f+3     :     0.000000
      f-3     :     0.000000


                     *******************************
                     * LOEWDIN POPULATION ANALYSIS *
                     *******************************

-------------------------------------------
LOEWDIN ATOMIC CHARGES AND SPIN POPULATIONS
-------------------------------------------
   0 S :   -0.000000    1.000000
   1 S :    0.000000    1.000000

----------------------------------------------------
LOEWDIN REDUCED ORBITAL CHARGES AND SPIN POPULATIONS
----------------------------------------------------
CHARGE
  0 S s       :     5.492254  s :     5.492254
      pz      :     3.228703  p :     9.764617
      px      :     3.267957
      py      :     3.267957
      dz2     :     0.209246  d :     0.532601
      dxz     :     0.161677
      dyz     :     0.161677
      dx2y2   :     0.000000
      dxy     :     0.000000
      f0      :     0.069797  f :     0.210528
      f+1     :     0.070366
      f-1     :     0.070366
      f+2     :     0.000000
      f-2     :     0.000000
      f+3     :     0.000000
      f-3     :     0.000000
  1 S s       :     5.492254  s :     5.492254
      pz      :     3.228703  p :     9.764617
      px      :     3.267957
      py      :     3.267957
      dz2     :     0.209246  d :     0.532601
      dxz     :     0.161677
      dyz     :     0.161677
      dx2y2   :     0.000000
      dxy     :     0.000000
      f0      :     0.069797  f :     0.210528
      f+1     :     0.070366
      f-1     :     0.070366
      f+2     :     0.000000
      f-2     :     0.000000
      f+3     :     0.000000
      f-3     :     0.000000

SPIN
  0 S s       :     0.004939  s :     0.004939
      pz      :    -0.007877  p :     0.766727
      px      :     0.387302
      py      :     0.387302
      dz2     :     0.002991  d :     0.171285
      dxz     :     0.084147
      dyz     :     0.084147
      dx2y2   :     0.000000
      dxy     :    -0.000000
      f0      :    -0.000053  f :     0.057048
      f+1     :     0.028551
      f-1     :     0.028551
      f+2     :     0.000000
      f-2     :    -0.000000
      f+3     :     0.000000
      f-3     :     0.000000
  1 S s       :     0.004939  s :     0.004939
      pz      :    -0.007877  p :     0.766727
      px      :     0.387302
      py      :     0.387302
      dz2     :     0.002991  d :     0.171285
      dxz     :     0.084147
      dyz     :     0.084147
      dx2y2   :    -0.000000
      dxy     :    -0.000000
      f0      :    -0.000053  f :     0.057048
      f+1     :     0.028551
      f-1     :     0.028551
      f+2     :     0.000000
      f-2     :    -0.000000
      f+3     :     0.000000
      f-3     :     0.000000


                      *****************************
                      * MAYER POPULATION ANALYSIS *
                      *****************************

  NA   - Mulliken gross atomic population
  ZA   - Total nuclear charge
  QA   - Mulliken gross atomic charge
  VA   - Mayer's total valence
  BVA  - Mayer's bonded valence
  FA   - Mayer's free valence

  ATOM       NA         ZA         QA         VA         BVA        FA
  0 S     16.0000    16.0000    -0.0000     2.4664     1.9004     0.5660
  1 S     16.0000    16.0000     0.0000     2.4664     1.9004     0.5660

  Mayer bond orders larger than 0.100000
B(  0-S ,  1-S ) :   1.9004 

-------
TIMINGS
-------

Total SCF time: 0 days 0 hours 0 min 4 sec 

Total time                  ....       4.087 sec
Sum of individual times     ....       3.691 sec  ( 90.3%)

Fock matrix formation       ....       3.000 sec  ( 73.4%)
  Split-RI-J                ....       1.030 sec  ( 34.3% of F)
  XC integration            ....       1.191 sec  ( 39.7% of F)
    Basis function eval.    ....       0.023 sec  (  2.0% of XC)
    Density eval.           ....       0.032 sec  (  2.7% of XC)
    XC-Functional eval.     ....       0.011 sec  (  0.9% of XC)
    XC-Potential eval.      ....       0.097 sec  (  8.1% of XC)
Diagonalization             ....       0.105 sec  (  2.6%)
Density matrix formation    ....       0.013 sec  (  0.3%)
Population analysis         ....       0.081 sec  (  2.0%)
Initial guess               ....       0.123 sec  (  3.0%)
Orbital Transformation      ....       0.000 sec  (  0.0%)
Orbital Orthonormalization  ....       0.000 sec  (  0.0%)
DIIS solution               ....       0.165 sec  (  4.0%)
Grid generation             ....       0.205 sec  (  5.0%)


-------------------------------------------------------------------------------
                          DFT DISPERSION CORRECTION                            
                                                                               
                              DFTD3 V3.1  Rev 1                                
                          USING Becke-Johnson damping                          
-------------------------------------------------------------------------------
The TPSS functional is recognized
Active option DFTDOPT                   ...         4   

molecular C6(AA) [au] = 523.801743 


            DFT-D V3
 parameters
 s6 scaling factor         :     1.0000 
 a1 scaling factor         :     0.4535 
 s8 scaling factor         :     1.9435 
 a2 scaling factor         :     4.4752 
 ad hoc parameters k1-k3   :    16.0000     1.3333    -4.0000 

 Edisp/kcal,au: -1.071945197943  -0.001708253226 
 E6   /kcal   :  -0.406001183 
 E8   /kcal   :  -0.665944015 
 % E8         :  62.124819134 

-------------------------   ----------------
Dispersion correction           -0.001708253
-------------------------   ----------------


-------------------------   --------------------
FINAL SINGLE POINT ENERGY      -796.460076101381
-------------------------   --------------------



           ************************************************************
           *        Program running with 24 parallel MPI-processes    *
           *              working on a common directory               *
           ************************************************************
------------------------------------------------------------------------------
                         ORCA SCF GRADIENT CALCULATION
------------------------------------------------------------------------------

Gradient of the Kohn-Sham DFT energy:
Kohn-Sham wavefunction type      ... UKS
Hartree-Fock exchange scaling    ...    0.000
Number of operators              ...    2
Number of atoms                  ...    2
Basis set dimensions             ...  110
Integral neglect threshold       ... 2.5e-11
Integral primitive cutoff        ... 2.5e-12

Nuclear repulsion gradient       ... done
One Electron Gradient            ... done
Pre-screening matrix             ... done
RI-J gradient                    ... done
Exchange-correlation gradient    ... done
Dispersion correction            ... done

------------------
CARTESIAN GRADIENT
------------------

   1   S   :    0.000000002    0.000000002    0.012194472
   2   S   :    0.000000002   -0.000000001   -0.012194475

Difference to translation invariance:
           :    0.0000000041    0.0000000015   -0.0000000038

Norm of the cartesian gradient     ...    0.0172455898
RMS gradient                       ...    0.0070404825
MAX gradient                       ...    0.0121944754

-------
TIMINGS
-------

Total SCF gradient time            ...        0.451 sec

One electron gradient       ....       0.007 sec  (  1.6%)
Prescreening matrices       ....       0.064 sec  ( 14.2%)
RI-J Coulomb gradient       ....       0.107 sec  ( 23.8%)
XC gradient                 ....       0.030 sec  (  6.6%)
------------------------------------------------------------------------------
                         ORCA GEOMETRY RELAXATION STEP
------------------------------------------------------------------------------

Reading the OPT-File                    .... done
Getting information on internals        .... done
Copying old internal coords+grads       .... done
Making the new internal coordinates     .... (new redundants).... done
Validating the new internal coordinates .... (new redundants).... done
Calculating the B-matrix                .... done
Calculating the G,G- and P matrices     .... done
Transforming gradient to internals      .... done
Projecting the internal gradient        .... done
Number of atoms                         ....   2
Number of internal coordinates          ....   1
Current Energy                          ....  -796.460076101 Eh
Current gradient norm                   ....     0.017245590 Eh/bohr
Maximum allowed component of the step   ....  0.300
Current trust radius                    ....  0.300
Evaluating the initial hessian          ....  (Almloef) done
Projecting the Hessian                  .... done
Forming the augmented Hessian           .... done
Diagonalizing the augmented Hessian     .... done
Last element of RFO vector              ....  0.999861495
Lowest eigenvalues of augmented Hessian:
 -0.000202981
Length of the computed step             ....  0.016645330
The final length of the internal step   ....  0.016645330
Converting the step to cartesian space:
 Initial RMS(Int)=    0.0166453300
Transforming coordinates:
 Iter   0:  RMS(Cart)=    0.0048050929 RMS(Int)=    0.0166453300
 Iter   1:  RMS(Cart)=    0.0000000000 RMS(Int)=    0.0000000000
done
Storing new coordinates                 .... done

                                .--------------------.
          ----------------------|Geometry convergence|-------------------------
          Item                value                   Tolerance       Converged
          ---------------------------------------------------------------------
          RMS gradient        0.0121944735            0.0001000000      NO
          MAX gradient        0.0121944735            0.0003000000      NO
          RMS step            0.0166453300            0.0020000000      NO
          MAX step            0.0166453300            0.0040000000      NO
          ........................................................
          Max(Bonds)      0.0088      Max(Angles)    0.00
          Max(Dihed)        0.00      Max(Improp)    0.00
          ---------------------------------------------------------------------

The optimization has not yet converged - more geometry cycles are needed


    ---------------------------------------------------------------------------
                         Redundant Internal Coordinates
                            (Angstroem and degrees)

        Definition                    Value    dE/dq     Step     New-Value
    ----------------------------------------------------------------------------
     1. B(S   1,S   0)                1.8867 -0.012194  0.0088    1.8956   
    ----------------------------------------------------------------------------

         *************************************************************
         *                GEOMETRY OPTIMIZATION CYCLE   2            *
         *************************************************************
---------------------------------
CARTESIAN COORDINATES (ANGSTROEM)
---------------------------------
  S      0.000000    0.000000    0.000666
  S      0.000000    0.000000    1.896219

----------------------------
CARTESIAN COORDINATES (A.U.)
----------------------------
  NO LB      ZA    FRAG     MASS         X           Y           Z
   0 S    16.0000    0    32.060    0.000000    0.000000    0.001259
   1 S    16.0000    0    32.060    0.000000    0.000000    3.583334

--------------------------------
INTERNAL COORDINATES (ANGSTROEM)
--------------------------------
 S      0   0   0     0.000000000000     0.00000000     0.00000000
 S      1   0   0     1.895552605255     0.00000000     0.00000000

---------------------------
INTERNAL COORDINATES (A.U.)
---------------------------
 S      0   0   0     0.000000000000     0.00000000     0.00000000
 S      1   0   0     3.582075296373     0.00000000     0.00000000



           ************************************************************
           *        Program running with 24 parallel MPI-processes    *
           *              working on a common directory               *
           ************************************************************
 One Electron integrals                  ... done
 Pre-screening matrix                    ... done


           ************************************************************
           *        Program running with 24 parallel MPI-processes    *
           *              working on a common directory               *
           ************************************************************

Diagonalization of the overlap matrix:
Smallest eigenvalue                        ... 2.155e-04
Time for diagonalization                   ...    0.004 sec
Threshold for overlap eigenvalues          ... 1.000e-08
Number of eigenvalues below threshold      ... 0
Time for construction of square roots      ...    0.009 sec
Total time needed                          ...    0.013 sec

-------------------
DFT GRID GENERATION
-------------------

General Integration Accuracy     IntAcc      ...  4.340
Radial Grid Type                 RadialGrid  ... Gauss-Chebyshev
Angular Grid (max. acc.)         AngularGrid ... Lebedev-110
Angular grid pruning method      GridPruning ... 3 (G Style)
Weight generation scheme         WeightScheme... Becke
Basis function cutoff            BFCut       ...    1.0000e-11
Integration weight cutoff        WCut        ...    1.0000e-14
Grids for H and He will be reduced by one unit

# of grid points (after initial pruning)     ...   3612 (   0.0 sec)
# of grid points (after weights+screening)   ...   3588 (   0.0 sec)
nearest neighbour list constructed           ...    0.0 sec
Grid point re-assignment to atoms done       ...    0.0 sec
Grid point division into batches done        ...    0.0 sec
Reduced shell lists constructed in    0.0 sec

Total number of grid points                  ...     3588
Total number of batches                      ...       58
Average number of points per batch           ...       61
Average number of grid points per atom       ...     1794
Average number of shells per batch           ...    21.00 (61.76%)
Average number of basis functions per batch  ...    67.50 (61.36%)
Average number of large shells per batch     ...    14.25 (67.86%)
Average number of large basis fcns per batch ...    50.75 (75.19%)
Maximum spatial batch extension              ...  29.83, 22.78, 16.59 au
Average spatial batch extension              ...   1.05,  1.06,  0.74 au

Time for grid setup =    0.046 sec

--------------
SCF ITERATIONS
--------------
ITER       Energy         Delta-E        Max-DP      RMS-DP      [F,P]     Damp
               ***  Starting incremental Fock matrix formation  ***
  0   -796.4556415072   0.000000000000 0.00026658  0.00000915  0.0015776 0.7000
  1   -796.4556480482  -0.000006541048 0.00023624  0.00000768  0.0010366 0.7000
                               ***Turning on DIIS***
  2   -796.4556525286  -0.000004480365 0.00063336  0.00002019  0.0007287 0.0000
  3   -796.4556624263  -0.000009897741 0.00009814  0.00000343  0.0002555 0.0000
  4   -796.4556625219  -0.000000095514 0.00004181  0.00000170  0.0001738 0.0000
  5   -796.4556626687  -0.000000146844 0.00000720  0.00000033  0.0000279 0.0000
  6   -796.4556626417   0.000000026969 0.00000128  0.00000004  0.0000028 0.0000
                            ***DIIS convergence achieved***

               *****************************************************
               *                     SUCCESS                       *
               *           SCF CONVERGED AFTER   7 CYCLES          *
               *****************************************************

Setting up the final grid:

General Integration Accuracy     IntAcc      ...  4.670
Radial Grid Type                 RadialGrid  ... Gauss-Chebyshev
Angular Grid (max. acc.)         AngularGrid ... Lebedev-302
Angular grid pruning method      GridPruning ... 3 (G Style)
Weight generation scheme         WeightScheme... Becke
Basis function cutoff            BFCut       ...    1.0000e-11
Integration weight cutoff        WCut        ...    1.0000e-14
Grids for H and He will be reduced by one unit

# of grid points (after initial pruning)     ...  13692 (   0.0 sec)
# of grid points (after weights+screening)   ...  13666 (   0.0 sec)
nearest neighbour list constructed           ...    0.0 sec
Grid point re-assignment to atoms done       ...    0.0 sec
Grid point division into batches done        ...    0.1 sec
Reduced shell lists constructed in    0.1 sec

Total number of grid points                  ...    13666
Total number of batches                      ...      214
Average number of points per batch           ...       63
Average number of grid points per atom       ...     6833
Average number of shells per batch           ...     9.60 (28.24%)
Average number of basis functions per batch  ...    30.60 (27.82%)
Average number of large shells per batch     ...     6.20 (64.58%)
Average number of large basis fcns per batch ...    18.20 (59.48%)
Maximum spatial batch extension              ...  19.50, 19.55, 13.45 au
Average spatial batch extension              ...   0.66,  0.66,  0.47 au

Final grid set up in    0.2 sec
Final integration                            ... done (   0.1 sec)
Change in XC energy                          ...    -0.002859799
Integrated number of electrons               ...    32.000004466
Previous integrated no of electrons          ...    32.000138887
Total Energy       :         -796.45852246 Eh          -21672.73822 eV
  Last Energy change         ...   -2.1298e-08  Tolerance :   1.0000e-08
  Last MAX-Density change    ...    3.0434e-07  Tolerance :   1.0000e-07
             **** THE GBW FILE WAS UPDATED (32_S2.gbw) ****
             **** DENSITY FILE WAS UPDATED (32_S2.scfp) ****
             **** ENERGY FILE WAS UPDATED (32_S2.en.tmp) ****
----------------------
UHF SPIN CONTAMINATION
----------------------

Warning: in a DFT calculation there is little theoretical justification to 
         calculate <S**2> as in Hartree-Fock theory. We will do it anyways
         but you should keep in mind that the values have only limited relevance

Expectation value of <S**2>     :     2.007431
Ideal value S*(S+1) for S=1.0   :     2.000000
Deviation                       :     0.007431

             **** THE GBW FILE WAS UPDATED (32_S2.gbw) ****
             **** DENSITY FILE WAS UPDATED (32_S2.scfp) ****
Total SCF time: 0 days 0 hours 0 min 3 sec 


-------------------------------------------------------------------------------
                          DFT DISPERSION CORRECTION                            
                                                                               
                              DFTD3 V3.1  Rev 1                                
                          USING Becke-Johnson damping                          
-------------------------------------------------------------------------------
-------------------------   ----------------
Dispersion correction           -0.001707979
-------------------------   ----------------


-------------------------   --------------------
FINAL SINGLE POINT ENERGY      -796.460230441375
-------------------------   --------------------



           ************************************************************
           *        Program running with 24 parallel MPI-processes    *
           *              working on a common directory               *
           ************************************************************
------------------------------------------------------------------------------
                         ORCA SCF GRADIENT CALCULATION
------------------------------------------------------------------------------

Gradient of the Kohn-Sham DFT energy:
Kohn-Sham wavefunction type      ... UKS
Hartree-Fock exchange scaling    ...    0.000
Number of operators              ...    2
Number of atoms                  ...    2
Basis set dimensions             ...  110
Integral neglect threshold       ... 2.5e-11
Integral primitive cutoff        ... 2.5e-12

Nuclear repulsion gradient       ... done
One Electron Gradient            ... done
Pre-screening matrix             ... done
RI-J gradient                    ... done
Exchange-correlation gradient    ... done
Dispersion correction            ... done

------------------
CARTESIAN GRADIENT
------------------

   1   S   :    0.000000002    0.000000001    0.006806227
   2   S   :   -0.000000002   -0.000000001   -0.006806232

Difference to translation invariance:
           :   -0.0000000004   -0.0000000001   -0.0000000056

Norm of the cartesian gradient     ...    0.0096254622
RMS gradient                       ...    0.0039295785
MAX gradient                       ...    0.0068062324

-------
TIMINGS
-------

Total SCF gradient time            ...        0.471 sec

One electron gradient       ....       0.019 sec  (  4.0%)
Prescreening matrices       ....       0.065 sec  ( 13.8%)
RI-J Coulomb gradient       ....       0.108 sec  ( 22.9%)
XC gradient                 ....       0.030 sec  (  6.5%)
------------------------------------------------------------------------------
                         ORCA GEOMETRY RELAXATION STEP
------------------------------------------------------------------------------

Reading the OPT-File                    .... done
Getting information on internals        .... done
Copying old internal coords+grads       .... done
Making the new internal coordinates     .... (new redundants).... done
Validating the new internal coordinates .... (new redundants).... done
Calculating the B-matrix                .... done
Calculating the G,G- and P matrices     .... done
Transforming gradient to internals      .... done
Projecting the internal gradient        .... done
Number of atoms                         ....   2
Number of internal coordinates          ....   1
Current Energy                          ....  -796.460230441 Eh
Current gradient norm                   ....     0.009625462 Eh/bohr
Maximum allowed component of the step   ....  0.300
Current trust radius                    ....  0.300
Updating the Hessian (BFGS)             .... done
Forming the augmented Hessian           .... done
Diagonalizing the augmented Hessian     .... done
Last element of RFO vector              ....  0.999779227
Lowest eigenvalues of augmented Hessian:
 -0.000143043
Length of the computed step             ....  0.021016476
The final length of the internal step   ....  0.021016476
Converting the step to cartesian space:
 Initial RMS(Int)=    0.0210164758
Transforming coordinates:
 Iter   0:  RMS(Cart)=    0.0060669340 RMS(Int)=    0.0210164758
 Iter   1:  RMS(Cart)=    0.0000000000 RMS(Int)=    0.0000000000
done
Storing new coordinates                 .... done

                                .--------------------.
          ----------------------|Geometry convergence|-------------------------
          Item                value                   Tolerance       Converged
          ---------------------------------------------------------------------
          Energy change      -0.0001543400            0.0000050000      NO
          RMS gradient        0.0068062296            0.0001000000      NO
          MAX gradient        0.0068062296            0.0003000000      NO
          RMS step            0.0210164758            0.0020000000      NO
          MAX step            0.0210164758            0.0040000000      NO
          ........................................................
          Max(Bonds)      0.0111      Max(Angles)    0.00
          Max(Dihed)        0.00      Max(Improp)    0.00
          ---------------------------------------------------------------------

The optimization has not yet converged - more geometry cycles are needed


    ---------------------------------------------------------------------------
                         Redundant Internal Coordinates
                            (Angstroem and degrees)

        Definition                    Value    dE/dq     Step     New-Value
    ----------------------------------------------------------------------------
     1. B(S   1,S   0)                1.8956 -0.006806  0.0111    1.9067   
    ----------------------------------------------------------------------------

         *************************************************************
         *                GEOMETRY OPTIMIZATION CYCLE   3            *
         *************************************************************
---------------------------------
CARTESIAN COORDINATES (ANGSTROEM)
---------------------------------
  S      0.000000    0.000000   -0.004895
  S      0.000000    0.000000    1.901779

----------------------------
CARTESIAN COORDINATES (A.U.)
----------------------------
  NO LB      ZA    FRAG     MASS         X           Y           Z
   0 S    16.0000    0    32.060    0.000000    0.000000   -0.009250
   1 S    16.0000    0    32.060    0.000000    0.000000    3.593842

--------------------------------
INTERNAL COORDINATES (ANGSTROEM)
--------------------------------
 S      0   0   0     0.000000000000     0.00000000     0.00000000
 S      1   0   0     1.906674045268     0.00000000     0.00000000

---------------------------
INTERNAL COORDINATES (A.U.)
---------------------------
 S      0   0   0     0.000000000000     0.00000000     0.00000000
 S      1   0   0     3.603091772213     0.00000000     0.00000000



           ************************************************************
           *        Program running with 24 parallel MPI-processes    *
           *              working on a common directory               *
           ************************************************************
 One Electron integrals                  ... done
 Pre-screening matrix                    ... done


           ************************************************************
           *        Program running with 24 parallel MPI-processes    *
           *              working on a common directory               *
           ************************************************************

Diagonalization of the overlap matrix:
Smallest eigenvalue                        ... 2.212e-04
Time for diagonalization                   ...    0.004 sec
Threshold for overlap eigenvalues          ... 1.000e-08
Number of eigenvalues below threshold      ... 0
Time for construction of square roots      ...    0.012 sec
Total time needed                          ...    0.016 sec

-------------------
DFT GRID GENERATION
-------------------

General Integration Accuracy     IntAcc      ...  4.340
Radial Grid Type                 RadialGrid  ... Gauss-Chebyshev
Angular Grid (max. acc.)         AngularGrid ... Lebedev-110
Angular grid pruning method      GridPruning ... 3 (G Style)
Weight generation scheme         WeightScheme... Becke
Basis function cutoff            BFCut       ...    1.0000e-11
Integration weight cutoff        WCut        ...    1.0000e-14
Grids for H and He will be reduced by one unit

# of grid points (after initial pruning)     ...   3612 (   0.0 sec)
# of grid points (after weights+screening)   ...   3588 (   0.0 sec)
nearest neighbour list constructed           ...    0.0 sec
Grid point re-assignment to atoms done       ...    0.0 sec
Grid point division into batches done        ...    0.0 sec
Reduced shell lists constructed in    0.0 sec

Total number of grid points                  ...     3588
Total number of batches                      ...       58
Average number of points per batch           ...       61
Average number of grid points per atom       ...     1794
Average number of shells per batch           ...    21.00 (61.76%)
Average number of basis functions per batch  ...    67.50 (61.36%)
Average number of large shells per batch     ...    14.25 (67.86%)
Average number of large basis fcns per batch ...    50.75 (75.19%)
Maximum spatial batch extension              ...  29.83, 22.78, 16.60 au
Average spatial batch extension              ...   1.05,  1.06,  0.74 au

Time for grid setup =    0.041 sec

--------------
SCF ITERATIONS
--------------
ITER       Energy         Delta-E        Max-DP      RMS-DP      [F,P]     Damp
               ***  Starting incremental Fock matrix formation  ***
  0   -796.4556819189   0.000000000000 0.00033252  0.00001141  0.0019698 0.7000
  1   -796.4556920646  -0.000010145713 0.00029452  0.00000957  0.0012947 0.7000
                               ***Turning on DIIS***
  2   -796.4556990332  -0.000006968544 0.00078910  0.00002512  0.0009117 0.0000
  3   -796.4557144646  -0.000015431486 0.00012181  0.00000425  0.0003136 0.0000
  4   -796.4557145994  -0.000000134753 0.00005179  0.00000211  0.0002164 0.0000
  5   -796.4557148055  -0.000000206127 0.00000899  0.00000040  0.0000345 0.0000
  6   -796.4557147760   0.000000029522 0.00000154  0.00000005  0.0000034 0.0000
                            ***DIIS convergence achieved***

               *****************************************************
               *                     SUCCESS                       *
               *           SCF CONVERGED AFTER   7 CYCLES          *
               *****************************************************

Setting up the final grid:

General Integration Accuracy     IntAcc      ...  4.670
Radial Grid Type                 RadialGrid  ... Gauss-Chebyshev
Angular Grid (max. acc.)         AngularGrid ... Lebedev-302
Angular grid pruning method      GridPruning ... 3 (G Style)
Weight generation scheme         WeightScheme... Becke
Basis function cutoff            BFCut       ...    1.0000e-11
Integration weight cutoff        WCut        ...    1.0000e-14
Grids for H and He will be reduced by one unit

# of grid points (after initial pruning)     ...  13692 (   0.0 sec)
# of grid points (after weights+screening)   ...  13666 (   0.0 sec)
nearest neighbour list constructed           ...    0.0 sec
Grid point re-assignment to atoms done       ...    0.0 sec
Grid point division into batches done        ...    0.1 sec
Reduced shell lists constructed in    0.1 sec

Total number of grid points                  ...    13666
Total number of batches                      ...      214
Average number of points per batch           ...       63
Average number of grid points per atom       ...     6833
Average number of shells per batch           ...     9.60 (28.24%)
Average number of basis functions per batch  ...    30.60 (27.82%)
Average number of large shells per batch     ...     6.20 (64.58%)
Average number of large basis fcns per batch ...    18.20 (59.48%)
Maximum spatial batch extension              ...  19.50, 19.55, 13.47 au
Average spatial batch extension              ...   0.66,  0.66,  0.47 au

Final grid set up in    0.2 sec
Final integration                            ... done (   0.1 sec)
Change in XC energy                          ...    -0.002877626
Integrated number of electrons               ...    32.000006959
Previous integrated no of electrons          ...    32.000098161
Total Energy       :         -796.45859243 Eh          -21672.74012 eV
  Last Energy change         ...   -2.8565e-08  Tolerance :   1.0000e-08
  Last MAX-Density change    ...    4.1796e-07  Tolerance :   1.0000e-07
             **** THE GBW FILE WAS UPDATED (32_S2.gbw) ****
             **** DENSITY FILE WAS UPDATED (32_S2.scfp) ****
             **** ENERGY FILE WAS UPDATED (32_S2.en.tmp) ****
----------------------
UHF SPIN CONTAMINATION
----------------------

Warning: in a DFT calculation there is little theoretical justification to 
         calculate <S**2> as in Hartree-Fock theory. We will do it anyways
         but you should keep in mind that the values have only limited relevance

Expectation value of <S**2>     :     2.007407
Ideal value S*(S+1) for S=1.0   :     2.000000
Deviation                       :     0.007407

             **** THE GBW FILE WAS UPDATED (32_S2.gbw) ****
             **** DENSITY FILE WAS UPDATED (32_S2.scfp) ****
Total SCF time: 0 days 0 hours 0 min 3 sec 


-------------------------------------------------------------------------------
                          DFT DISPERSION CORRECTION                            
                                                                               
                              DFTD3 V3.1  Rev 1                                
                          USING Becke-Johnson damping                          
-------------------------------------------------------------------------------
-------------------------   ----------------
Dispersion correction           -0.001707623
-------------------------   ----------------


-------------------------   --------------------
FINAL SINGLE POINT ENERGY      -796.460300053796
-------------------------   --------------------



           ************************************************************
           *        Program running with 24 parallel MPI-processes    *
           *              working on a common directory               *
           ************************************************************
------------------------------------------------------------------------------
                         ORCA SCF GRADIENT CALCULATION
------------------------------------------------------------------------------

Gradient of the Kohn-Sham DFT energy:
Kohn-Sham wavefunction type      ... UKS
Hartree-Fock exchange scaling    ...    0.000
Number of operators              ...    2
Number of atoms                  ...    2
Basis set dimensions             ...  110
Integral neglect threshold       ... 2.5e-11
Integral primitive cutoff        ... 2.5e-12

Nuclear repulsion gradient       ... done
One Electron Gradient            ... done
Pre-screening matrix             ... done
RI-J gradient                    ... done
Exchange-correlation gradient    ... done
Dispersion correction            ... done

------------------
CARTESIAN GRADIENT
------------------

   1   S   :   -0.000000001    0.000000004    0.000322143
   2   S   :    0.000000006   -0.000000009   -0.000322141

Difference to translation invariance:
           :    0.0000000053   -0.0000000046    0.0000000016

Norm of the cartesian gradient     ...    0.0004555775
RMS gradient                       ...    0.0001859887
MAX gradient                       ...    0.0003221427

-------
TIMINGS
-------

Total SCF gradient time            ...        0.449 sec

One electron gradient       ....       0.007 sec  (  1.6%)
Prescreening matrices       ....       0.065 sec  ( 14.4%)
RI-J Coulomb gradient       ....       0.107 sec  ( 23.9%)
XC gradient                 ....       0.030 sec  (  6.7%)
------------------------------------------------------------------------------
                         ORCA GEOMETRY RELAXATION STEP
------------------------------------------------------------------------------

Reading the OPT-File                    .... done
Getting information on internals        .... done
Copying old internal coords+grads       .... done
Making the new internal coordinates     .... (new redundants).... done
Validating the new internal coordinates .... (new redundants).... done
Calculating the B-matrix                .... done
Calculating the G,G- and P matrices     .... done
Transforming gradient to internals      .... done
Projecting the internal gradient        .... done
Number of atoms                         ....   2
Number of internal coordinates          ....   1
Current Energy                          ....  -796.460300054 Eh
Current gradient norm                   ....     0.000455577 Eh/bohr
Maximum allowed component of the step   ....  0.300
Current trust radius                    ....  0.300
Updating the Hessian (BFGS)             .... done
Forming the augmented Hessian           .... done
Diagonalizing the augmented Hessian     .... done
Last element of RFO vector              ....  0.999999455
Lowest eigenvalues of augmented Hessian:
 -0.000000336
Length of the computed step             ....  0.001044138
The final length of the internal step   ....  0.001044138
Converting the step to cartesian space:
 Initial RMS(Int)=    0.0010441377
Transforming coordinates:
 Iter   0:  RMS(Cart)=    0.0003014166 RMS(Int)=    0.0010441377
 Iter   1:  RMS(Cart)=    0.0000000000 RMS(Int)=    0.0000000000
done
Storing new coordinates                 .... done

                                .--------------------.
          ----------------------|Geometry convergence|-------------------------
          Item                value                   Tolerance       Converged
          ---------------------------------------------------------------------
          Energy change      -0.0000696124            0.0000050000      NO
          RMS gradient        0.0003221419            0.0001000000      NO
          MAX gradient        0.0003221419            0.0003000000      NO
          RMS step            0.0010441377            0.0020000000      YES
          MAX step            0.0010441377            0.0040000000      YES
          ........................................................
          Max(Bonds)      0.0006      Max(Angles)    0.00
          Max(Dihed)        0.00      Max(Improp)    0.00
          ---------------------------------------------------------------------

The optimization has not yet converged - more geometry cycles are needed


    ---------------------------------------------------------------------------
                         Redundant Internal Coordinates
                            (Angstroem and degrees)

        Definition                    Value    dE/dq     Step     New-Value
    ----------------------------------------------------------------------------
     1. B(S   1,S   0)                1.9067 -0.000322  0.0006    1.9072   
    ----------------------------------------------------------------------------

         *************************************************************
         *                GEOMETRY OPTIMIZATION CYCLE   4            *
         *************************************************************
---------------------------------
CARTESIAN COORDINATES (ANGSTROEM)
---------------------------------
  S      0.000000    0.000000   -0.005171
  S      0.000000    0.000000    1.902056

----------------------------
CARTESIAN COORDINATES (A.U.)
----------------------------
  NO LB      ZA    FRAG     MASS         X           Y           Z
   0 S    16.0000    0    32.060    0.000000    0.000000   -0.009772
   1 S    16.0000    0    32.060    0.000000    0.000000    3.594364

--------------------------------
INTERNAL COORDINATES (ANGSTROEM)
--------------------------------
 S      0   0   0     0.000000000000     0.00000000     0.00000000
 S      1   0   0     1.907226579126     0.00000000     0.00000000

---------------------------
INTERNAL COORDINATES (A.U.)
---------------------------
 S      0   0   0     0.000000000000     0.00000000     0.00000000
 S      1   0   0     3.604135909883     0.00000000     0.00000000



           ************************************************************
           *        Program running with 24 parallel MPI-processes    *
           *              working on a common directory               *
           ************************************************************
 One Electron integrals                  ... done
 Pre-screening matrix                    ... done


           ************************************************************
           *        Program running with 24 parallel MPI-processes    *
           *              working on a common directory               *
           ************************************************************

Diagonalization of the overlap matrix:
Smallest eigenvalue                        ... 2.215e-04
Time for diagonalization                   ...    0.003 sec
Threshold for overlap eigenvalues          ... 1.000e-08
Number of eigenvalues below threshold      ... 0
Time for construction of square roots      ...    0.011 sec
Total time needed                          ...    0.014 sec

-------------------
DFT GRID GENERATION
-------------------

General Integration Accuracy     IntAcc      ...  4.340
Radial Grid Type                 RadialGrid  ... Gauss-Chebyshev
Angular Grid (max. acc.)         AngularGrid ... Lebedev-110
Angular grid pruning method      GridPruning ... 3 (G Style)
Weight generation scheme         WeightScheme... Becke
Basis function cutoff            BFCut       ...    1.0000e-11
Integration weight cutoff        WCut        ...    1.0000e-14
Grids for H and He will be reduced by one unit

# of grid points (after initial pruning)     ...   3612 (   0.0 sec)
# of grid points (after weights+screening)   ...   3588 (   0.0 sec)
nearest neighbour list constructed           ...    0.0 sec
Grid point re-assignment to atoms done       ...    0.0 sec
Grid point division into batches done        ...    0.0 sec
Reduced shell lists constructed in    0.0 sec

Total number of grid points                  ...     3588
Total number of batches                      ...       58
Average number of points per batch           ...       61
Average number of grid points per atom       ...     1794
Average number of shells per batch           ...    21.00 (61.76%)
Average number of basis functions per batch  ...    67.50 (61.36%)
Average number of large shells per batch     ...    14.25 (67.86%)
Average number of large basis fcns per batch ...    50.75 (75.19%)
Maximum spatial batch extension              ...  29.83, 22.78, 16.61 au
Average spatial batch extension              ...   1.05,  1.06,  0.74 au

Time for grid setup =    0.043 sec

--------------
SCF ITERATIONS
--------------
ITER       Energy         Delta-E        Max-DP      RMS-DP      [F,P]     Damp
[...]
  99   0.0000       5.150713       140.1580 
 100   0.0000       6.653649       181.0550 
 101   0.0000       6.653840       181.0602 
 102   0.0000       6.685977       181.9347 
 103   0.0000       6.685977       181.9347 
 104   0.0000       6.689546       182.0318 
 105   0.0000       6.689824       182.0394 
 106   0.0000       6.807228       185.2341 
 107   0.0000       6.819409       185.5655 
 108   0.0000       6.819409       185.5655 
 109   0.0000       7.066112       192.2787 

                    ********************************
                    * MULLIKEN POPULATION ANALYSIS *
                    ********************************

--------------------------------------------
MULLIKEN ATOMIC CHARGES AND SPIN POPULATIONS
--------------------------------------------
   0 S :   -0.000001    1.000000
   1 S :    0.000001    1.000000
Sum of atomic charges         :   -0.0000000
Sum of atomic spin populations:    2.0000000

-----------------------------------------------------
MULLIKEN REDUCED ORBITAL CHARGES AND SPIN POPULATIONS
-----------------------------------------------------
CHARGE
  0 S s       :     5.991488  s :     5.991488
      pz      :     2.981472  p :     9.861108
      px      :     3.439818
      py      :     3.439818
      dz2     :     0.023036  d :     0.127806
      dxz     :     0.052385
      dyz     :     0.052385
      dx2y2   :     0.000000
      dxy     :     0.000000
      f0      :     0.004004  f :     0.019599
      f+1     :     0.007798
      f-1     :     0.007798
      f+2     :    -0.000000
      f-2     :     0.000000
      f+3     :     0.000000
      f-3     :     0.000000
  1 S s       :     5.991487  s :     5.991487
      pz      :     2.981472  p :     9.861107
      px      :     3.439818
      py      :     3.439818
      dz2     :     0.023036  d :     0.127806
      dxz     :     0.052385
      dyz     :     0.052385
      dx2y2   :     0.000000
      dxy     :     0.000000
      f0      :     0.004004  f :     0.019599
      f+1     :     0.007798
      f-1     :     0.007798
      f+2     :    -0.000000
      f-2     :     0.000000
      f+3     :     0.000000
      f-3     :     0.000000

SPIN
  0 S s       :     0.005946  s :     0.005946
      pz      :    -0.005214  p :     0.970699
      px      :     0.487957
      py      :     0.487957
      dz2     :     0.000349  d :     0.023021
      dxz     :     0.011336
      dyz     :     0.011336
      dx2y2   :     0.000000
      dxy     :    -0.000000
      f0      :    -0.001081  f :     0.000333
      f+1     :     0.000707
      f-1     :     0.000707
      f+2     :     0.000000
      f-2     :    -0.000000
      f+3     :     0.000000
      f-3     :     0.000000
  1 S s       :     0.005946  s :     0.005946
      pz      :    -0.005214  p :     0.970700
      px      :     0.487957
      py      :     0.487957
      dz2     :     0.000349  d :     0.023021
      dxz     :     0.011336
      dyz     :     0.011336
      dx2y2   :    -0.000000
      dxy     :    -0.000000
      f0      :    -0.001081  f :     0.000333
      f+1     :     0.000707
      f-1     :     0.000707
      f+2     :     0.000000
      f-2     :    -0.000000
      f+3     :     0.000000
      f-3     :     0.000000


                     *******************************
                     * LOEWDIN POPULATION ANALYSIS *
                     *******************************

-------------------------------------------
LOEWDIN ATOMIC CHARGES AND SPIN POPULATIONS
-------------------------------------------
   0 S :   -0.000000    1.000000
   1 S :    0.000000    1.000000

----------------------------------------------------
LOEWDIN REDUCED ORBITAL CHARGES AND SPIN POPULATIONS
----------------------------------------------------
CHARGE
  0 S s       :     5.502889  s :     5.502889
      pz      :     3.222327  p :     9.773984
      px      :     3.275828
      py      :     3.275828
      dz2     :     0.205985  d :     0.517489
      dxz     :     0.155752
      dyz     :     0.155752
      dx2y2   :     0.000000
      dxy     :     0.000000
      f0      :     0.068799  f :     0.205638
      f+1     :     0.068420
      f-1     :     0.068420
      f+2     :     0.000000
      f-2     :     0.000000
      f+3     :     0.000000
      f-3     :     0.000000
  1 S s       :     5.502889  s :     5.502889
      pz      :     3.222327  p :     9.773983
      px      :     3.275828
      py      :     3.275828
      dz2     :     0.205985  d :     0.517489
      dxz     :     0.155752
      dyz     :     0.155752
      dx2y2   :     0.000000
      dxy     :     0.000000
      f0      :     0.068799  f :     0.205638
      f+1     :     0.068420
      f-1     :     0.068420
      f+2     :     0.000000
      f-2     :     0.000000
      f+3     :     0.000000
      f-3     :     0.000000

SPIN
  0 S s       :     0.004893  s :     0.004893
      pz      :    -0.007687  p :     0.774953
      px      :     0.391320
      py      :     0.391320
      dz2     :     0.002877  d :     0.164613
      dxz     :     0.080868
      dyz     :     0.080868
      dx2y2   :     0.000000
      dxy     :    -0.000000
      f0      :    -0.000084  f :     0.055541
      f+1     :     0.027812
      f-1     :     0.027812
      f+2     :     0.000000
      f-2     :    -0.000000
      f+3     :     0.000000
      f-3     :     0.000000
  1 S s       :     0.004893  s :     0.004893
      pz      :    -0.007687  p :     0.774954
      px      :     0.391320
      py      :     0.391320
      dz2     :     0.002877  d :     0.164612
      dxz     :     0.080868
      dyz     :     0.080868
      dx2y2   :    -0.000000
      dxy     :    -0.000000
      f0      :    -0.000084  f :     0.055541
      f+1     :     0.027812
      f-1     :     0.027812
      f+2     :     0.000000
      f-2     :    -0.000000
      f+3     :     0.000000
      f-3     :     0.000000


                      *****************************
                      * MAYER POPULATION ANALYSIS *
                      *****************************

  NA   - Mulliken gross atomic population
  ZA   - Total nuclear charge
  QA   - Mulliken gross atomic charge
  VA   - Mayer's total valence
  BVA  - Mayer's bonded valence
  FA   - Mayer's free valence

  ATOM       NA         ZA         QA         VA         BVA        FA
  0 S     16.0000    16.0000    -0.0000     2.4618     1.8974     0.5644
  1 S     16.0000    16.0000     0.0000     2.4618     1.8974     0.5644

  Mayer bond orders larger than 0.100000
B(  0-S ,  1-S ) :   1.8974 

-------
TIMINGS
-------

Total SCF time: 0 days 0 hours 0 min 1 sec 

Total time                  ....       1.689 sec
Sum of individual times     ....       1.380 sec  ( 81.7%)

Fock matrix formation       ....       1.057 sec  ( 62.6%)
  Split-RI-J                ....       0.369 sec  ( 34.9% of F)
  XC integration            ....       0.389 sec  ( 36.8% of F)
    Basis function eval.    ....       0.011 sec  (  2.7% of XC)
    Density eval.           ....       0.016 sec  (  4.2% of XC)
    XC-Functional eval.     ....       0.004 sec  (  1.1% of XC)
    XC-Potential eval.      ....       0.037 sec  (  9.4% of XC)
Diagonalization             ....       0.032 sec  (  1.9%)
Density matrix formation    ....       0.005 sec  (  0.3%)
Population analysis         ....       0.071 sec  (  4.2%)
Initial guess               ....       0.016 sec  (  0.9%)
Orbital Transformation      ....       0.000 sec  (  0.0%)
Orbital Orthonormalization  ....       0.007 sec  (  0.4%)
DIIS solution               ....       0.008 sec  (  0.5%)
Grid generation             ....       0.191 sec  ( 11.3%)


-------------------------------------------------------------------------------
                          DFT DISPERSION CORRECTION                            
                                                                               
                              DFTD3 V3.1  Rev 1                                
                          USING Becke-Johnson damping                          
-------------------------------------------------------------------------------
The TPSS functional is recognized
Active option DFTDOPT                   ...         4   

molecular C6(AA) [au] = 523.802905 


            DFT-D V3
 parameters
 s6 scaling factor         :     1.0000 
 a1 scaling factor         :     0.4535 
 s8 scaling factor         :     1.9435 
 a2 scaling factor         :     4.4752 
 ad hoc parameters k1-k3   :    16.0000     1.3333    -4.0000 

 Edisp/kcal,au: -1.071538100135  -0.001707604475 
 E6   /kcal   :  -0.405726238 
 E8   /kcal   :  -0.665811862 
 % E8         :  62.136088484 

-------------------------   ----------------
Dispersion correction           -0.001707604
-------------------------   ----------------


-------------------------   --------------------
FINAL SINGLE POINT ENERGY      -796.460299012241
-------------------------   --------------------

                                *** OPTIMIZATION RUN DONE ***

                            ***************************************
                            *     ORCA property calculations      *
                            ***************************************

                                    ---------------------
                                    Active property flags
                                    ---------------------
   (+) Dipole Moment


------------------------------------------------------------------------------
                       ORCA ELECTRIC PROPERTIES CALCULATION
------------------------------------------------------------------------------

Dipole Moment Calculation                       ... on
Quadrupole Moment Calculation                   ... off
Polarizability Calculation                      ... off
GBWName                                         ... 32_S2.gbw
Electron density file                           ... 32_S2.scfp
The origin for moment calculation is the CENTER OF MASS  = ( 0.000000,  0.000000  1.792296)

-------------
DIPOLE MOMENT
-------------
                                X             Y             Z
Electronic contribution:     -0.00000      -0.00000       0.00000
Nuclear contribution   :      0.00000       0.00000       0.00000
                        -----------------------------------------
Total Dipole Moment    :     -0.00000      -0.00000       0.00000
                        -----------------------------------------
Magnitude (a.u.)       :      0.00000
Magnitude (Debye)      :      0.00000



--------------------
Rotational spectrum 
--------------------
 
Rotational constants in cm-1:     0.000000     0.289102     0.289102 
Rotational constants in MHz :     0.000000  8667.068929  8667.068929 

 Dipole components along the rotational axes: 
x,y,z [a.u.] :     0.000001    -0.000000    -0.000000 
x,y,z [Debye]:     0.000004    -0.000000    -0.000000 

 

----------------------------------------------------------------------------
                           ORCA NUMERICAL FREQUENCIES
                              (24-process run)
----------------------------------------------------------------------------

Number of atoms                ... 2
Central differences            ... used
Number of displacements        ... 12
Numerical increment            ... 5.000e-03 bohr
IR-spectrum generation         ... on
Raman-spectrum generation      ... off
Surface Crossing Hessian       ... off

 WARNING: There are more processes than displacements to do
  ====> : Reducing number of processes to   6

The output will be reduced. Please look at the following files:
SCF program output             ... >32_S2.lastscf
Integral program output        ... >32_S2.lastint
Gradient program output        ... >32_S2.lastgrad
Dipole moment program output   ... >32_S2.lastmom
AutoCI program output          ... >32_S2.lastautoci


         <<< Energy and Gradient at the input geometry >>>

        <<< Energy and Gradient at displaced geometries >>>
             <<<Displacing   2/coordinate 2 (+)>>>
             <<<Displacing   1/coordinate 2 (+)>>>
             <<<Displacing   2/coordinate 1 (+)>>>
             <<<Displacing   1/coordinate 1 (+)>>>
             <<<Displacing   1/coordinate 3 (+)>>>
             <<<Displacing   2/coordinate 3 (+)>>>
             <<<Displacing   2/coordinate 2 (-)>>>
             <<<Displacing   2/coordinate 1 (-)>>>
             <<<Displacing   1/coordinate 2 (-)>>>
             <<<Displacing   1/coordinate 1 (-)>>>
             <<<Displacing   1/coordinate 3 (-)>>>
             <<<Displacing   2/coordinate 3 (-)>>>
Warning: T+R mode no 5 is zero 

-----------------------
VIBRATIONAL FREQUENCIES
-----------------------

Scaling factor for frequencies =  1.000000000 (already applied!)

   0:         0.00 cm**-1
   1:         0.00 cm**-1
   2:         0.00 cm**-1
   3:         0.00 cm**-1
   4:         0.00 cm**-1
   5:       702.65 cm**-1


------------
NORMAL MODES
------------

These modes are the cartesian displacements weighted by the diagonal matrix
M(i,i)=1/sqrt(m[i]) where m[i] is the mass of the displaced atom
Thus, these vectors are normalized but *not* orthogonal

                  0          1          2          3          4          5    
      0       0.000000   0.000000   0.000000   0.000000   0.000000   0.000000
      1       0.000000   0.000000   0.000000   0.000000   0.000000   0.000000
      2       0.000000   0.000000   0.000000   0.000000   0.000000   0.707107
      3       0.000000   0.000000   0.000000   0.000000   0.000000   0.000000
      4       0.000000   0.000000   0.000000   0.000000   0.000000   0.000000
      5       0.000000   0.000000   0.000000   0.000000   0.000000  -0.707107


-----------
IR SPECTRUM  
-----------

 Mode    freq (cm**-1)   T**2         TX         TY         TZ
-------------------------------------------------------------------
   5:       702.65    0.000018  ( -0.000000   0.000000   0.004188)

The first frequency considered to be a vibration is 5
The total number of vibrations considered is 1


--------------------------
THERMOCHEMISTRY AT 298.15K
--------------------------

Temperature         ... 298.15 K
Pressure            ... 1.00 atm
Total Mass          ... 64.12 AMU
The molecule is recognized as being linear

Throughout the following assumptions are being made:
  (1) The electronic state is orbitally nondegenerate
      but the spin degeneracy is treated
  (2) There are no thermally accessible electronically excited states
  (3) Hindered rotations indicated by low frequency modes are not
      treated as such but are treated as vibrations and this may
      cause some error
  (4) All equations used are the standard statistical mechanics
      equations for an ideal gas
  (5) All vibrations are strictly harmonic

freq.     702.65  E(vib)   ...       0.07 

------------
INNER ENERGY
------------

The inner energy is: U= E(el) + E(ZPE) + E(vib) + E(rot) + E(trans)
    E(el)   - is the total energy from the electronic structure calculation
              = E(kin-el) + E(nuc-el) + E(el-el) + E(nuc-nuc)
    E(ZPE)  - the the zero temperature vibrational energy from the frequency calculation
    E(vib)  - the the finite temperature correction to E(ZPE) due to population
              of excited vibrational states
    E(rot)  - is the rotational thermal energy
    E(trans)- is the translational thermal energy

Summary of contributions to the inner energy U:
Electronic energy                ...   -796.46030058 Eh
Zero point energy                ...      0.00160076 Eh       1.00 kcal/mol
Thermal vibrational correction   ...      0.00011160 Eh       0.07 kcal/mol
Thermal rotational correction    ...      0.00094418 Eh       0.59 kcal/mol
Thermal translational correction ...      0.00141627 Eh       0.89 kcal/mol
-----------------------------------------------------------------------
Total thermal energy                   -796.45622777 Eh


Summary of corrections to the electronic energy:
(perhaps to be used in another calculation)
Total thermal correction                  0.00247206 Eh       1.55 kcal/mol
Non-thermal (ZPE) correction              0.00160076 Eh       1.00 kcal/mol
-----------------------------------------------------------------------
Total correction                          0.00407281 Eh       2.56 kcal/mol


--------
ENTHALPY
--------

The enthalpy is H = U + kB*T
                kB is Boltzmann's constant
Total free energy                 ...   -796.45622777 Eh 
Thermal Enthalpy correction       ...      0.00094421 Eh       0.59 kcal/mol
-----------------------------------------------------------------------
Total Enthalpy                    ...   -796.45528356 Eh


Note: Rotational entropy computed according to Herzberg 
Infrared and Raman Spectra, Chapter V,1, Van Nostrand Reinhold, 1945 
Point Group:  Dinfh, Symmetry Number:   2  
Rotational constants in cm-1:     0.000000     0.289102     0.289102 

Vibrational entropy computed according to the QRRHO of S. Grimme
Chem.Eur.J. 2012 18 9955


-------
ENTROPY
-------

The entropy contributions are T*S = T*(S(el)+S(vib)+S(rot)+S(trans))
     S(el)   - electronic entropy
     S(vib)  - vibrational entropy
     S(rot)  - rotational entropy
     S(trans)- translational entropy
The entropies will be listed as mutliplied by the temperature to get
units of energy

Electronic entropy                ...      0.00103729 Eh      0.65 kcal/mol
Vibrational entropy               ...      0.00014407 Eh      0.09 kcal/mol
Rotational entropy                ...      0.00649751 Eh      4.08 kcal/mol
Translational entropy             ...      0.01824183 Eh     11.45 kcal/mol
-----------------------------------------------------------------------
Final entropy term                ...      0.02592071 Eh     16.27 kcal/mol

In case the symmetry of your molecule has not been determined correctly
or in case you have a reason to use a different symmetry number we print 
out the resulting rotational entropy values for sn=1,12 :
 --------------------------------------------------------
|  sn= 1 | S(rot)=             -inf Eh      -inf kcal/mol|
|  sn= 2 | S(rot)=             -inf Eh      -inf kcal/mol|
|  sn= 3 | S(rot)=             -inf Eh      -inf kcal/mol|
|  sn= 4 | S(rot)=             -inf Eh      -inf kcal/mol|
|  sn= 5 | S(rot)=             -inf Eh      -inf kcal/mol|
|  sn= 6 | S(rot)=             -inf Eh      -inf kcal/mol|
|  sn= 7 | S(rot)=             -inf Eh      -inf kcal/mol|
|  sn= 8 | S(rot)=             -inf Eh      -inf kcal/mol|
|  sn= 9 | S(rot)=             -inf Eh      -inf kcal/mol|
|  sn=10 | S(rot)=             -inf Eh      -inf kcal/mol|
|  sn=11 | S(rot)=             -inf Eh      -inf kcal/mol|
|  sn=12 | S(rot)=             -inf Eh      -inf kcal/mol|
 --------------------------------------------------------


-------------------
GIBBS FREE ENERGY
-------------------

The Gibbs free energy is G = H - T*S

Total enthalpy                    ...   -796.45528356 Eh 
Total entropy correction          ...     -0.02592071 Eh    -16.27 kcal/mol
-----------------------------------------------------------------------
Final Gibbs free energy         ...   -796.48120426 Eh

For completeness - the Gibbs free energy minus the electronic energy
G-E(el)                           ...     -0.02090368 Eh    -13.12 kcal/mol


Total Time for Numerical Frequencies  :        15.819 sec

Timings for individual modules:

Sum of individual times         ...       27.955 sec (=   0.466 min)
GTO integral calculation        ...        4.440 sec (=   0.074 min)  15.9 %
SCF iterations                  ...       19.142 sec (=   0.319 min)  68.5 %
SCF Gradient evaluation         ...        4.189 sec (=   0.070 min)  15.0 %
Geometry relaxation             ...        0.183 sec (=   0.003 min)   0.7 %
                             ****ORCA TERMINATED NORMALLY****
TOTAL RUN TIME: 0 days 0 hours 0 minutes 42 seconds 440 msec
