
                                 *****************
                                 * O   R   C   A *
                                 *****************

           --- An Ab Initio, DFT and Semiempirical electronic structure package ---

                  #######################################################
                  #                        -***-                        #
                  #          Department of theory and spectroscopy      #
                  #               Directorship: Frank Neese             #
                  #        Max Planck Institute fuer Kohlenforschung    #
                  #                Kaiser Wilhelm Platz 1               #
                  #                 D-45470 Muelheim/Ruhr               #
                  #                      Germany                        #
                  #                                                     #
                  #                  All rights reserved                #
                  #                        -***-                        #
                  #######################################################


                         Program Version 4.2.0 -  RELEASE  -


 With contributions from (in alphabetic order):
   Daniel Aravena         : Magnetic Suceptibility
   Michael Atanasov       : Ab Initio Ligand Field Theory (pilot matlab implementation)
   Alexander A. Auer      : GIAO ZORA, VPT2
   Ute Becker             : Parallelization
   Giovanni Bistoni       : ED, misc. LED, open-shell LED, HFLED
   Martin Brehm           : Molecular dynamics
   Dmytro Bykov           : SCF Hessian
   Vijay G. Chilkuri      : MRCI spin determinant printing, contributions to CSF-ICE
   Dipayan Datta          : RHF DLPNO-CCSD density
   Achintya Kumar Dutta   : EOM-CC, STEOM-CC
   Dmitry Ganyushin       : Spin-Orbit,Spin-Spin,Magnetic field MRCI
   Miquel Garcia          : C-PCM Hessian, Gaussian charge scheme
   Yang Guo               : DLPNO-NEVPT2, CIM, IAO-localization
   Andreas Hansen         : Spin unrestricted coupled pair/coupled cluster methods
   Benjamin Helmich-Paris : CASSCF linear response (MC-RPA)
   Lee Huntington         : MR-EOM, pCC
   Robert Izsak           : Overlap fitted RIJCOSX, COSX-SCS-MP3, EOM
   Christian Kollmar      : KDIIS, OOCD, Brueckner-CCSD(T), CCSD density
   Simone Kossmann        : Meta GGA functionals, TD-DFT gradient, OOMP2, MP2 Hessian
   Martin Krupicka        : AUTO-CI
   Lucas Lang             : DCDCAS
   Dagmar Lenk            : GEPOL surface, SMD
   Dimitrios Liakos       : Extrapolation schemes; Compound Job, initial MDCI parallelization
   Dimitrios Manganas     : Further ROCIS development; embedding schemes
   Dimitrios Pantazis     : SARC Basis sets
   Taras Petrenko         : DFT Hessian,TD-DFT gradient, ASA, ECA, R-Raman, ABS, FL, XAS/XES, NRVS
   Peter Pinski           : DLPNO-MP2, DLPNO-MP2 Gradient
   Christoph Reimann      : Effective Core Potentials
   Marius Retegan         : Local ZFS, SOC
   Christoph Riplinger    : Optimizer, TS searches, QM/MM, DLPNO-CCSD(T), (RO)-DLPNO pert. Triples
   Tobias Risthaus        : Range-separated hybrids, TD-DFT gradient, RPA, STAB
   Michael Roemelt        : Original ROCIS implementation
   Masaaki Saitow         : Open-shell DLPNO-CCSD energy and density
   Barbara Sandhoefer     : DKH picture change effects
   Avijit Sen             : IP-ROCIS
   Kantharuban Sivalingam : CASSCF convergence, NEVPT2, FIC-MRCI
   Bernardo de Souza      : ESD, SOC TD-DFT
   Georgi Stoychev        : AutoAux, RI-MP2 NMR
   Willem Van den Heuvel  : Paramagnetic NMR
   Boris Wezisla          : Elementary symmetry handling
   Frank Wennmohs         : Technical directorship


 We gratefully acknowledge several colleagues who have allowed us to
 interface, adapt or use parts of their codes:
   Stefan Grimme, W. Hujo, H. Kruse,             : VdW corrections, initial TS optimization,
                  C. Bannwarth                     DFT functionals, gCP, sTDA/sTD-DF
   Ed Valeev, F. Pavosevic, A. Kumar             : LibInt (2-el integral package), F12 methods
   Garnet Chan, S. Sharma, J. Yang, R. Olivares  : DMRG
   Ulf Ekstrom                                   : XCFun DFT Library
   Mihaly Kallay                                 : mrcc  (arbitrary order and MRCC methods)
   Andreas Klamt, Michael Diedenhofen            : otool_cosmo (COSMO solvation model)
   Jiri Pittner, Ondrej Demel                    : Mk-CCSD
   Frank Weinhold                                : gennbo (NPA and NBO analysis)
   Christopher J. Cramer and Donald G. Truhlar   : smd solvation model
   Lars Goerigk                                  : TD-DFT with DH, B97 family of functionals
   V. Asgeirsson, H. Jonsson                     : NEB implementation
   FAccTs GmbH                                   : IRC, NEB, NEB-TS, Multilevel, MM, QM/MM, CI optimization
   S Lehtola, MJT Oliveira, MAL Marques          : LibXC Library


 Your calculation uses the libint2 library for the computation of 2-el integrals
 For citations please refer to: http://libint.valeyev.net

 Your ORCA version has been built with support for libXC version: 4.2.3
 For citations please refer to: https://tddft.org/programs/libxc/

 This ORCA versions uses:
   CBLAS   interface :  Fast vector & matrix operations
   LAPACKE interface :  Fast linear algebra routines
   SCALAPACK package :  Parallel linear algebra routines


Your calculation utilizes the atom-pairwise dispersion correction
with the Becke-Johnson damping scheme (D3BJ)
Cite in your paper:
S.Grimme, S.Ehrlich, L.Goerigk, J Comput Chem, (2011), 32, 1456–1465 
S.Grimme, J.Antony, S.Ehrlich and H.Krieg, J.Chem.Phys., 132, (2010), 154104 
   

----- Orbital basis set information -----
Your calculation utilizes the basis: aug-cc-pV(T+d)Z 
             Al - Ar: T.H. Dunning, Jr., K. A. Peterson and A. K. Wilson, J. Chem. Phys.
                      114, 9244 (2001)

----- AuxJK basis set information -----
Your calculation utilizes the auxiliary basis: def2/JK
   H-Ba, Hf-Rn: F. Weigend, J. Comput. Chem. 29, 167 (2008).

================================================================================
                                        WARNINGS
                       Please study these warnings very carefully!
================================================================================


WARNING: Geometry Optimization
  ===> : Switching off AutoStart
         For restart on a previous wavefunction, please use MOREAD

INFO   : the flag for use of LIBINT has been found!

================================================================================
                                       INPUT FILE
================================================================================
NAME = 04_CCl2.in
|  1> #
|  2> # 04_CCl2 tpssh/aug-cc-pvt(+d)z
|  3> #
|  4> ! tpssh d3bj aug-cc-pvt(+d)z def2/jk opt xyzfile numfreq
|  5> 
|  6> *xyz 0 1
|  7> C           -0.000001096         -0.034087471          0.023432751
|  8> Cl          -0.000006529          0.957613518         -1.373095207
|  9> Cl           0.000007625          0.959794548          1.418391908
| 10> *
| 11> 
| 12> %pal
| 13> nprocs 24
| 14> end
| 15> 
| 16> 
| 17>                          ****END OF INPUT****
================================================================================

                       *****************************
                       * Geometry Optimization Run *
                       *****************************

Geometry optimization settings:
Update method            Update   .... BFGS
Choice of coordinates    CoordSys .... Z-matrix Internals
Initial Hessian          InHess   .... Almoef's Model

Convergence Tolerances:
Energy Change            TolE     ....  5.0000e-06 Eh
Max. Gradient            TolMAXG  ....  3.0000e-04 Eh/bohr
RMS Gradient             TolRMSG  ....  1.0000e-04 Eh/bohr
Max. Displacement        TolMAXD  ....  4.0000e-03 bohr
RMS Displacement         TolRMSD  ....  2.0000e-03 bohr
Strict Convergence                ....  False
------------------------------------------------------------------------------
                        ORCA OPTIMIZATION COORDINATE SETUP
------------------------------------------------------------------------------

The optimization will be done in new redundant internal coordinates
Making redundant internal coordinates   ...  (new redundants) done
Evaluating the initial hessian          ...  (Almloef) done
Evaluating the coordinates              ...  done
Calculating the B-matrix                .... done
Calculating the G-matrix                .... done
Diagonalizing the G-matrix              .... done
The first mode is                       ....    0
The number of degrees of freedom        ....    3

    -----------------------------------------------------------------
                    Redundant Internal Coordinates


    -----------------------------------------------------------------
         Definition                    Initial Value    Approx d2E/dq
    -----------------------------------------------------------------
      1. B(Cl  1,C   0)                  1.7128         0.428244   
      2. B(Cl  2,C   0)                  1.7128         0.428267   
      3. A(Cl  1,C   0,Cl  2)          109.1516         0.415494   
    -----------------------------------------------------------------

Number of atoms                         .... 3
Number of degrees of freedom            .... 3

         *************************************************************
         *                GEOMETRY OPTIMIZATION CYCLE   1            *
         *************************************************************
---------------------------------
CARTESIAN COORDINATES (ANGSTROEM)
---------------------------------
  C     -0.000001   -0.034087    0.023433
  Cl    -0.000007    0.957614   -1.373095
  Cl     0.000008    0.959795    1.418392

----------------------------
CARTESIAN COORDINATES (A.U.)
----------------------------
  NO LB      ZA    FRAG     MASS         X           Y           Z
   0 C     6.0000    0    12.011   -0.000002   -0.064416    0.044281
   1 Cl   17.0000    0    35.453   -0.000012    1.809627   -2.594774
   2 Cl   17.0000    0    35.453    0.000014    1.813749    2.680372

--------------------------------
INTERNAL COORDINATES (ANGSTROEM)
--------------------------------
 C      0   0   0     0.000000000000     0.00000000     0.00000000
 Cl     1   0   0     1.712822579571     0.00000000     0.00000000
 Cl     1   2   0     1.712808371496   109.15156317     0.00000000

---------------------------
INTERNAL COORDINATES (A.U.)
---------------------------
 C      0   0   0     0.000000000000     0.00000000     0.00000000
 Cl     1   0   0     3.236765591386     0.00000000     0.00000000
 Cl     1   2   0     3.236738742015   109.15156317     0.00000000

---------------------
BASIS SET INFORMATION
---------------------
There are 2 groups of distinct atoms

 Group   1 Type C   : 19s6p3d2f contracted to 5s4p3d2f pattern {88111/3111/111/11}
 Group   2 Type Cl  : 42s17p4d2f contracted to 6s5p4d2f pattern {131313111/77111/1111/11}

Atom   0C    basis set group =>   1
Atom   1Cl   basis set group =>   2
Atom   2Cl   basis set group =>   2
----------------------------------
AUXILIARY/JK BASIS SET INFORMATION
----------------------------------
There are 2 groups of distinct atoms

 Group   1 Type C   : 14s10p6d2f1g contracted to 10s8p5d1f1g pattern {5111111111/31111111/21111/2/1}
 Group   2 Type Cl  : 16s12p10d4f1g contracted to 13s11p9d4f1g pattern {4111111111111/21111111111/211111111/1111/1}

Atom   0C    basis set group =>   1
Atom   1Cl   basis set group =>   2
Atom   2Cl   basis set group =>   2


           ************************************************************
           *        Program running with 24 parallel MPI-processes    *
           *              working on a common directory               *
           ************************************************************
------------------------------------------------------------------------------
                           ORCA GTO INTEGRAL CALCULATION
------------------------------------------------------------------------------

                         BASIS SET STATISTICS AND STARTUP INFO

 # of primitive gaussian shells          ...  160
 # of primitive gaussian functions       ...  320
 # of contracted shells                  ...   48
 # of contracted basis functions         ...  156
 Highest angular momentum                ...    3
 Maximum contraction depth               ...   13
 Integral package used                   ... LIBINT
 Integral threshhold            Thresh   ...  2.500e-11
 Primitive cut-off              TCut     ...  2.500e-12


------------------------------ INTEGRAL EVALUATION ----------------------------


 * One electron integrals 
 Pre-screening matrix                    ... done
 Shell pair data                         ... done (   0.001 sec)



           ************************************************************
           *        Program running with 24 parallel MPI-processes    *
           *              working on a common directory               *
           ************************************************************
-------------------------------------------------------------------------------
                                 ORCA SCF
-------------------------------------------------------------------------------

------------
SCF SETTINGS
------------
Hamiltonian:
 Density Functional     Method          .... DFT(GTOs)
 Exchange Functional    Exchange        .... TPSS
 Correlation Functional Correlation     .... TPSS
 LDA part of GGA corr.  LDAOpt          .... PW91-LDA
 Gradients option       PostSCFGGA      .... off
 Hybrid DFT is turned on
   Fraction HF Exchange ScalHFX         ....  0.100000
   Scaling of DF-GGA-X  ScalDFX         ....  0.900000
   Scaling of DF-GGA-C  ScalDFC         ....  1.000000
   Scaling of DF-LDA-C  ScalLDAC        ....  1.000000
   Perturbative correction              ....  0.000000
   Density functional embedding theory  .... OFF
   NL short-range parameter             ....  5.200000


General Settings:
 Integral files         IntName         .... 04_CCl2
 Hartree-Fock type      HFTyp           .... RHF
 Total Charge           Charge          ....    0
 Multiplicity           Mult            ....    1
 Number of Electrons    NEL             ....   40
 Basis Dimension        Dim             ....  156
 Nuclear Repulsion      ENuc            ....    117.8113366916 Eh

Convergence Acceleration:
 DIIS                   CNVDIIS         .... on
   Start iteration      DIISMaxIt       ....    12
   Startup error        DIISStart       ....  0.200000
   # of expansion vecs  DIISMaxEq       ....     5
   Bias factor          DIISBfac        ....   1.050
   Max. coefficient     DIISMaxC        ....  10.000
 Newton-Raphson         CNVNR           .... off
 SOSCF                  CNVSOSCF        .... on
   Start iteration      SOSCFMaxIt      ....   150
   Startup grad/error   SOSCFStart      ....  0.003300
 Level Shifting         CNVShift        .... on
   Level shift para.    LevelShift      ....    0.2500
   Turn off err/grad.   ShiftErr        ....    0.0010
 Zerner damping         CNVZerner       .... off
 Static damping         CNVDamp         .... on
   Fraction old density DampFac         ....    0.7000
   Max. Damping (<1)    DampMax         ....    0.9800
   Min. Damping (>=0)   DampMin         ....    0.0000
   Turn off err/grad.   DampErr         ....    0.1000
 Fernandez-Rico         CNVRico         .... off

SCF Procedure:
 Maximum # iterations   MaxIter         ....   125
 SCF integral mode      SCFMode         .... Direct
   Integral package                     .... LIBINT
 Reset frequency        DirectResetFreq ....    20
 Integral Threshold     Thresh          ....  2.500e-11 Eh
 Primitive CutOff       TCut            ....  2.500e-12 Eh

Convergence Tolerance:
 Convergence Check Mode ConvCheckMode   .... Total+1el-Energy
 Convergence forced     ConvForced      .... 0
 Energy Change          TolE            ....  1.000e-08 Eh
 1-El. energy change                    ....  1.000e-05 Eh
 Orbital Gradient       TolG            ....  1.000e-05
 Orbital Rotation angle TolX            ....  1.000e-05
 DIIS Error             TolErr          ....  5.000e-07


Diagonalization of the overlap matrix:
Smallest eigenvalue                        ... 2.050e-04
Time for diagonalization                   ...    0.007 sec
Threshold for overlap eigenvalues          ... 1.000e-08
Number of eigenvalues below threshold      ... 0
Time for construction of square roots      ...    0.003 sec
Total time needed                          ...    0.010 sec

-------------------
DFT GRID GENERATION
-------------------

General Integration Accuracy     IntAcc      ...  4.340
Radial Grid Type                 RadialGrid  ... Gauss-Chebyshev
Angular Grid (max. acc.)         AngularGrid ... Lebedev-110
Angular grid pruning method      GridPruning ... 3 (G Style)
Weight generation scheme         WeightScheme... Becke
Basis function cutoff            BFCut       ...    1.0000e-11
Integration weight cutoff        WCut        ...    1.0000e-14
Grids for H and He will be reduced by one unit

# of grid points (after initial pruning)     ...   5344 (   0.0 sec)
# of grid points (after weights+screening)   ...   5315 (   0.0 sec)
nearest neighbour list constructed           ...    0.0 sec
Grid point re-assignment to atoms done       ...    0.0 sec
Grid point division into batches done        ...    0.0 sec
Reduced shell lists constructed in    0.0 sec

Total number of grid points                  ...     5315
Total number of batches                      ...       85
Average number of points per batch           ...       62
Average number of grid points per atom       ...     1772
Average number of shells per batch           ...    26.00 (54.17%)
Average number of basis functions per batch  ...    84.40 (54.10%)
Average number of large shells per batch     ...    19.60 (75.38%)
Average number of large basis fcns per batch ...    64.80 (76.78%)
Maximum spatial batch extension              ...  16.97, 15.68, 17.99 au
Average spatial batch extension              ...   0.63,  0.62,  0.61 au

Time for grid setup =    0.021 sec

------------------------------
INITIAL GUESS: MODEL POTENTIAL
------------------------------
Loading Hartree-Fock densities                     ... done
Calculating cut-offs                               ... done
Setting up the integral package                    ... done
Initializing the effective Hamiltonian             ... done
Starting the Coulomb interaction                   ... done (   0.0 sec)
Reading the grid                                   ... done
Mapping shells                                     ... done
Starting the XC term evaluation                    ... done (   0.0 sec)
  promolecular density results
     # of electrons  =     40.000129868
     EX              =    -59.816563164
     EC              =     -1.523103473
     EX+EC           =    -61.339666637
Transforming the Hamiltonian                       ... done (   0.0 sec)
Diagonalizing the Hamiltonian                      ... done (   0.0 sec)
Back transforming the eigenvectors                 ... done (   0.0 sec)
Now organizing SCF variables                       ... done
                      ------------------
                      INITIAL GUESS DONE (   0.1 sec)
                      ------------------
--------------
SCF ITERATIONS
--------------
ITER       Energy         Delta-E        Max-DP      RMS-DP      [F,P]     Damp
               ***  Starting incremental Fock matrix formation  ***
  0   -958.4805310407   0.000000000000 0.02935256  0.00043869  0.0498489 0.7000
                      *** Initiating the SOSCF procedure ***
                      *** Re-Reading the Fockian *** 
                      *** Removing any level shift *** 
ITER      Energy       Delta-E        Grad      Rot      Max-DP    RMS-DP
  1   -958.48311758  -0.0025865439  0.002381  0.002381  0.068696  0.001103
               *** Restarting incremental Fock matrix formation ***
  2   -958.48740813  -0.0042905415  0.005412  0.015370  0.026297  0.000395
  3   -958.48679580   0.0006123254  0.011058  0.014799  0.008229  0.000221
  4   -958.48784647  -0.0010506708  0.002293  0.004276  0.003995  0.000127
  5   -958.48783243   0.0000140416  0.001735  0.001907  0.001950  0.000061
  6   -958.48792656  -0.0000941317  0.000114  0.000162  0.000258  0.000008
  7   -958.48792670  -0.0000001419  0.000087  0.000074  0.000123  0.000004
  8   -958.48792694  -0.0000002396  0.000011  0.000018  0.000108  0.000001
  9   -958.48792695  -0.0000000023  0.000005  0.000006  0.000038  0.000000
                  ***Gradient check signals convergence***
              ***Rediagonalizing the Fockian in SOSCF/NRSCF***

               *****************************************************
               *                     SUCCESS                       *
               *           SCF CONVERGED AFTER  10 CYCLES          *
               *****************************************************

Setting up the final grid:

General Integration Accuracy     IntAcc      ...  4.670
Radial Grid Type                 RadialGrid  ... Gauss-Chebyshev
Angular Grid (max. acc.)         AngularGrid ... Lebedev-302
Angular grid pruning method      GridPruning ... 3 (G Style)
Weight generation scheme         WeightScheme... Becke
Basis function cutoff            BFCut       ...    1.0000e-11
Integration weight cutoff        WCut        ...    1.0000e-14
Grids for H and He will be reduced by one unit

# of grid points (after initial pruning)     ...  19688 (   0.0 sec)
# of grid points (after weights+screening)   ...  19564 (   0.0 sec)
nearest neighbour list constructed           ...    0.0 sec
Grid point re-assignment to atoms done       ...    0.0 sec
Grid point division into batches done        ...    0.1 sec
Reduced shell lists constructed in    0.1 sec

Total number of grid points                  ...    19564
Total number of batches                      ...      307
Average number of points per batch           ...       63
Average number of grid points per atom       ...     6521
Average number of shells per batch           ...    16.14 (33.63%)
Average number of basis functions per batch  ...    49.86 (31.96%)
Average number of large shells per batch     ...    11.21 (69.47%)
Average number of large basis fcns per batch ...    33.07 (66.33%)
Maximum spatial batch extension              ...  19.52, 12.96, 20.64 au
Average spatial batch extension              ...   0.51,  0.41,  0.51 au

Final grid set up in    0.1 sec
Final integration                            ... done (   0.0 sec)
Change in XC energy                          ...    -0.000266425
Integrated number of electrons               ...    40.000009566
Previous integrated no of electrons          ...    40.000867911

----------------
TOTAL SCF ENERGY
----------------

Total Energy       :         -958.48819337 Eh          -26081.78971 eV

Components:
Nuclear Repulsion  :          117.81133669 Eh            3205.80945 eV
Electronic Energy  :        -1076.29953006 Eh          -29287.59917 eV
One Electron Energy:        -1555.32196270 Eh          -42322.46224 eV
Two Electron Energy:          479.02243263 Eh           13034.86307 eV

Virial components:
Potential Energy   :        -1914.31925106 Eh          -52091.27509 eV
Kinetic Energy     :          955.83105769 Eh           26009.48538 eV
Virial Ratio       :            2.00277992


DFT components:
N(Alpha)           :       20.000004783163 electrons
N(Beta)            :       20.000004783163 electrons
N(Total)           :       40.000009566326 electrons
E(X)               :      -54.273817103513 Eh       
E(C)               :       -1.531627170012 Eh       
E(XC)              :      -55.805444273525 Eh       
DFET-embed. en.    :        0.000000000000 Eh       

---------------
SCF CONVERGENCE
---------------

  Last Energy change         ...   -1.0567e-09  Tolerance :   1.0000e-08
  Last MAX-Density change    ...    1.7645e-06  Tolerance :   1.0000e-07
  Last RMS-Density change    ...    4.2450e-08  Tolerance :   5.0000e-09
  Last Orbital Gradient      ...    5.7451e-07  Tolerance :   1.0000e-05
  Last Orbital Rotation      ...    2.7395e-06  Tolerance :   1.0000e-05

             **** THE GBW FILE WAS UPDATED (04_CCl2.gbw) ****
             **** DENSITY FILE WAS UPDATED (04_CCl2.scfp) ****
             **** ENERGY FILE WAS UPDATED (04_CCl2.en.tmp) ****
             **** THE GBW FILE WAS UPDATED (04_CCl2.gbw) ****
             **** DENSITY FILE WAS UPDATED (04_CCl2.scfp) ****
----------------
ORBITAL ENERGIES
----------------

  NO   OCC          E(Eh)            E(eV) 
   0   2.0000    -101.451975     -2760.6486 
   1   2.0000    -101.451969     -2760.6484 
   2   2.0000     -10.267656      -279.3971 
   3   2.0000      -9.432454      -256.6701 
   4   2.0000      -9.432448      -256.6700 
   5   2.0000      -7.180460      -195.3902 
   6   2.0000      -7.180455      -195.3901 
   7   2.0000      -7.175496      -195.2552 
   8   2.0000      -7.175490      -195.2550 
   9   2.0000      -7.171601      -195.1492 
  10   2.0000      -7.171595      -195.1490 
  11   2.0000      -0.918576       -24.9957 
  12   2.0000      -0.839727       -22.8501 
  13   2.0000      -0.595228       -16.1970 
  14   2.0000      -0.459336       -12.4992 
  15   2.0000      -0.409020       -11.1300 
  16   2.0000      -0.406570       -11.0633 
  17   2.0000      -0.346079        -9.4173 
  18   2.0000      -0.320525        -8.7219 
  19   2.0000      -0.254239        -6.9182 
  20   0.0000      -0.144284        -3.9262 
  21   0.0000      -0.026668        -0.7257 
  22   0.0000       0.010173         0.2768 
  23   0.0000       0.010482         0.2852 
  24   0.0000       0.047556         1.2941 
  25   0.0000       0.048427         1.3178 
  26   0.0000       0.048668         1.3243 
  27   0.0000       0.080830         2.1995 
  28   0.0000       0.080956         2.2029 
  29   0.0000       0.086863         2.3637 
  30   0.0000       0.089328         2.4307 
  31   0.0000       0.094819         2.5802 
  32   0.0000       0.114089         3.1045 
  33   0.0000       0.160933         4.3792 
  34   0.0000       0.162943         4.4339 
  35   0.0000       0.175990         4.7889 
  36   0.0000       0.197371         5.3707 
  37   0.0000       0.197398         5.3715 
  38   0.0000       0.228615         6.2209 
  39   0.0000       0.244938         6.6651 
  40   0.0000       0.284364         7.7379 
  41   0.0000       0.286968         7.8088 
  42   0.0000       0.288699         7.8559 
  43   0.0000       0.301380         8.2010 
  44   0.0000       0.337217         9.1761 
  45   0.0000       0.346515         9.4292 
  46   0.0000       0.347172         9.4470 
  47   0.0000       0.369004        10.0411 
  48   0.0000       0.382315        10.4033 
  49   0.0000       0.398428        10.8418 
  50   0.0000       0.421868        11.4796 
  51   0.0000       0.458065        12.4646 
  52   0.0000       0.550589        14.9823 
  53   0.0000       0.552536        15.0353 
  54   0.0000       0.556161        15.1339 
  55   0.0000       0.569574        15.4989 
  56   0.0000       0.597627        16.2623 
  57   0.0000       0.613302        16.6888 
  58   0.0000       0.618332        16.8257 
  59   0.0000       0.628488        17.1020 
  60   0.0000       0.635731        17.2991 
  61   0.0000       0.647198        17.6112 
  62   0.0000       0.650633        17.7046 
  63   0.0000       0.653377        17.7793 
  64   0.0000       0.657518        17.8920 
  65   0.0000       0.665516        18.1096 
  66   0.0000       0.690567        18.7913 
  67   0.0000       0.705521        19.1982 
  68   0.0000       0.768446        20.9105 
  69   0.0000       0.770697        20.9717 
  70   0.0000       0.858400        23.3583 
  71   0.0000       0.916757        24.9462 
  72   0.0000       0.918522        24.9942 
  73   0.0000       0.934986        25.4423 
  74   0.0000       0.947954        25.7951 
  75   0.0000       0.957934        26.0667 
  76   0.0000       1.018022        27.7018 
  77   0.0000       1.025692        27.9105 
  78   0.0000       1.026032        27.9198 
  79   0.0000       1.045327        28.4448 
  80   0.0000       1.109370        30.1875 
  81   0.0000       1.241278        33.7769 
  82   0.0000       1.252500        34.0823 
  83   0.0000       1.283760        34.9329 
  84   0.0000       1.313161        35.7329 
  85   0.0000       1.332422        36.2570 
  86   0.0000       1.334030        36.3008 
  87   0.0000       1.398739        38.0616 
  88   0.0000       1.400267        38.1032 
  89   0.0000       1.420337        38.6493 
  90   0.0000       1.462664        39.8011 
  91   0.0000       1.490619        40.5618 
  92   0.0000       1.499425        40.8014 
  93   0.0000       1.575330        42.8669 
  94   0.0000       1.575475        42.8709 
  95   0.0000       1.624293        44.1992 
  96   0.0000       1.634336        44.4725 
  97   0.0000       1.695424        46.1348 
  98   0.0000       1.952760        53.1373 
  99   0.0000       1.984876        54.0112 
 100   0.0000       1.996027        54.3147 
 101   0.0000       2.016248        54.8649 
 102   0.0000       2.036768        55.4233 
 103   0.0000       2.057345        55.9832 
 104   0.0000       2.112286        57.4782 
 105   0.0000       2.138638        58.1953 
 106   0.0000       2.172161        59.1075 
 107   0.0000       2.223552        60.5059 
 108   0.0000       2.247360        61.1538 
 109   0.0000       2.355768        64.1037 
 110   0.0000       2.401836        65.3573 
 111   0.0000       2.491672        67.8019 
 112   0.0000       2.499778        68.0224 
 113   0.0000       2.583223        70.2931 
 114   0.0000       2.632267        71.6276 
 115   0.0000       2.654141        72.2229 
 116   0.0000       2.655853        72.2694 
 117   0.0000       2.670457        72.6668 
 118   0.0000       2.687082        73.1192 
 119   0.0000       2.714791        73.8732 
 120   0.0000       2.716962        73.9323 
 121   0.0000       2.750182        74.8363 
 122   0.0000       2.772592        75.4461 
 123   0.0000       2.776736        75.5588 
 124   0.0000       2.791017        75.9474 
 125   0.0000       2.809211        76.4425 
 126   0.0000       2.862665        77.8971 
 127   0.0000       2.936935        79.9181 
 128   0.0000       3.049232        82.9738 
 129   0.0000       3.278937        89.2244 
 130   0.0000       3.312885        90.1482 
 131   0.0000       3.324957        90.4767 
 132   0.0000       3.331465        90.6538 
 133   0.0000       3.349854        91.1542 
 134   0.0000       3.416279        92.9617 
 135   0.0000       3.428832        93.3033 
 136   0.0000       3.569755        97.1380 
 137   0.0000       3.601485        98.0014 
 138   0.0000       3.637302        98.9760 
 139   0.0000       3.772364       102.6513 
 140   0.0000       3.789694       103.1228 
 141   0.0000       3.912118       106.4541 
 142   0.0000       4.342796       118.1735 
 143   0.0000       6.132117       166.8634 
 144   0.0000       6.585667       179.2051 
 145   0.0000       7.645929       208.0563 
 146   0.0000       8.132298       221.2911 
 147   0.0000       8.134373       221.3475 
 148   0.0000       8.137393       221.4297 
 149   0.0000       8.158763       222.0112 
 150   0.0000       8.192255       222.9226 
 151   0.0000       8.198592       223.0950 
 152   0.0000       8.216833       223.5914 
 153   0.0000       8.328815       226.6386 
 154   0.0000       8.467485       230.4120 
 155   0.0000       8.472873       230.5586 

                    ********************************
                    * MULLIKEN POPULATION ANALYSIS *
                    ********************************

-----------------------
MULLIKEN ATOMIC CHARGES
-----------------------
   0 C :   -0.269854
   1 Cl:    0.134946
   2 Cl:    0.134908
Sum of atomic charges:   -0.0000000

--------------------------------
MULLIKEN REDUCED ORBITAL CHARGES
--------------------------------
  0 C s       :     4.028043  s :     4.028043
      pz      :     0.652636  p :     2.083171
      px      :     0.448578
      py      :     0.981957
      dz2     :     0.025399  d :     0.125320
      dxz     :     0.029571
      dyz     :     0.039237
      dx2y2   :     0.008892
      dxy     :     0.022220
      f0      :     0.007775  f :     0.033320
      f+1     :     0.000881
      f-1     :     0.005494
      f+2     :     0.006816
      f-2     :     0.009278
      f+3     :     0.001814
      f-3     :     0.001264
  1 Cls       :     5.941447  s :     5.941447
      pz      :     3.424680  p :    10.850935
      px      :     3.728346
      py      :     3.697909
      dz2     :     0.022668  d :     0.065203
      dxz     :     0.010742
      dyz     :     0.020642
      dx2y2   :     0.008202
      dxy     :     0.002949
      f0      :     0.002245  f :     0.007468
      f+1     :     0.000918
      f-1     :     0.001902
      f+2     :     0.001287
      f-2     :     0.000832
      f+3     :     0.000050
      f-3     :     0.000235
  2 Cls       :     5.941471  s :     5.941471
      pz      :     3.425821  p :    10.850953
      px      :     3.728332
      py      :     3.696799
      dz2     :     0.022687  d :     0.065200
      dxz     :     0.010725
      dyz     :     0.020588
      dx2y2   :     0.008235
      dxy     :     0.002966
      f0      :     0.002240  f :     0.007469
      f+1     :     0.000913
      f-1     :     0.001903
      f+2     :     0.001288
      f-2     :     0.000836
      f+3     :     0.000050
      f-3     :     0.000237


                     *******************************
                     * LOEWDIN POPULATION ANALYSIS *
                     *******************************

----------------------
LOEWDIN ATOMIC CHARGES
----------------------
   0 C :   -1.327344
   1 Cl:    0.663662
   2 Cl:    0.663681

-------------------------------
LOEWDIN REDUCED ORBITAL CHARGES
-------------------------------
  0 C s       :     3.146193  s :     3.146193
      pz      :     0.937926  p :     2.555574
      px      :     0.471072
      py      :     1.146576
      dz2     :     0.352522  d :     1.102112
      dxz     :     0.236556
      dyz     :     0.360508
      dx2y2   :     0.087344
      dxy     :     0.065182
      f0      :     0.138590  f :     0.523465
      f+1     :     0.038585
      f-1     :     0.114571
      f+2     :     0.092490
      f-2     :     0.111305
      f+3     :     0.013167
      f-3     :     0.014757
  1 Cls       :     5.472451  s :     5.472451
      pz      :     3.403539  p :    10.445744
      px      :     3.484212
      py      :     3.557992
      dz2     :     0.108686  d :     0.328573
      dxz     :     0.031408
      dyz     :     0.138807
      dx2y2   :     0.044336
      dxy     :     0.005336
      f0      :     0.031771  f :     0.089570
      f+1     :     0.006517
      f-1     :     0.022864
      f+2     :     0.020866
      f-2     :     0.004247
      f+3     :     0.000353
      f-3     :     0.002953
  2 Cls       :     5.472444  s :     5.472444
      pz      :     3.403982  p :    10.445724
      px      :     3.484200
      py      :     3.557543
      dz2     :     0.108666  d :     0.328578
      dxz     :     0.031369
      dyz     :     0.138609
      dx2y2   :     0.044560
      dxy     :     0.005375
      f0      :     0.031754  f :     0.089572
      f+1     :     0.006492
      f-1     :     0.022804
      f+2     :     0.020915
      f-2     :     0.004267
      f+3     :     0.000358
      f-3     :     0.002981


                      *****************************
                      * MAYER POPULATION ANALYSIS *
                      *****************************

  NA   - Mulliken gross atomic population
  ZA   - Total nuclear charge
  QA   - Mulliken gross atomic charge
  VA   - Mayer's total valence
  BVA  - Mayer's bonded valence
  FA   - Mayer's free valence

  ATOM       NA         ZA         QA         VA         BVA        FA
  0 C      6.2699     6.0000    -0.2699     2.1670     2.1670    -0.0000
  1 Cl    16.8651    17.0000     0.1349     1.2104     1.2104    -0.0000
  2 Cl    16.8651    17.0000     0.1349     1.2103     1.2103     0.0000

  Mayer bond orders larger than 0.100000
B(  0-C ,  1-Cl) :   1.0835 B(  0-C ,  2-Cl) :   1.0835 B(  1-Cl,  2-Cl) :   0.1268 


-------
TIMINGS
-------

Total SCF time: 0 days 0 hours 0 min 5 sec 

Total time                  ....       5.845 sec
Sum of individual times     ....       5.610 sec  ( 96.0%)

Fock matrix formation       ....       5.329 sec  ( 91.2%)
  XC integration            ....       0.163 sec  (  3.1% of F)
    Basis function eval.    ....       0.019 sec  ( 11.5% of XC)
    Density eval.           ....       0.024 sec  ( 14.6% of XC)
    XC-Functional eval.     ....       0.007 sec  (  4.2% of XC)
    XC-Potential eval.      ....       0.055 sec  ( 33.5% of XC)
Diagonalization             ....       0.006 sec  (  0.1%)
Density matrix formation    ....       0.006 sec  (  0.1%)
Population analysis         ....       0.004 sec  (  0.1%)
Initial guess               ....       0.120 sec  (  2.1%)
Orbital Transformation      ....       0.000 sec  (  0.0%)
Orbital Orthonormalization  ....       0.000 sec  (  0.0%)
DIIS solution               ....       0.001 sec  (  0.0%)
SOSCF solution              ....       0.015 sec  (  0.3%)
Grid generation             ....       0.128 sec  (  2.2%)


-------------------------------------------------------------------------------
                          DFT DISPERSION CORRECTION                            
                                                                               
                              DFTD3 V3.1  Rev 1                                
                          USING Becke-Johnson damping                          
-------------------------------------------------------------------------------
The TPSSH functional is recognized
Active option DFTDOPT                   ...         4   

molecular C6(AA) [au] = 597.499907 


            DFT-D V3
 parameters
 s6 scaling factor         :     1.0000 
 a1 scaling factor         :     0.4529 
 s8 scaling factor         :     2.2382 
 a2 scaling factor         :     4.6550 
 ad hoc parameters k1-k3   :    16.0000     1.3333    -4.0000 

 Edisp/kcal,au: -1.752362512051  -0.002792567121 
 E6   /kcal   :  -0.684812274 
 E8   /kcal   :  -1.067550238 
 % E8         :  60.920627485 

-------------------------   ----------------
Dispersion correction           -0.002792567
-------------------------   ----------------


-------------------------   --------------------
FINAL SINGLE POINT ENERGY      -958.490985938613
-------------------------   --------------------



           ************************************************************
           *        Program running with 24 parallel MPI-processes    *
           *              working on a common directory               *
           ************************************************************
------------------------------------------------------------------------------
                         ORCA SCF GRADIENT CALCULATION
------------------------------------------------------------------------------

Gradient of the Kohn-Sham DFT energy:
Kohn-Sham wavefunction type      ... RKS
Hartree-Fock exchange scaling    ...    0.100
Number of operators              ...    1
Number of atoms                  ...    3
Basis set dimensions             ...  156
Integral neglect threshold       ... 2.5e-11
Integral primitive cutoff        ... 2.5e-12

Nuclear repulsion gradient       ... done
One Electron Gradient            ... done
Pre-screening matrix             ... done
Starting the two electron gradient:
Two electron gradient done
Exchange-correlation gradient    ... done
Dispersion correction            ... done

------------------
CARTESIAN GRADIENT
------------------

   1   C   :   -0.000000024    0.006957938    0.000000212
   2   Cl  :   -0.000000029   -0.002832395    0.005549834
   3   Cl  :    0.000000027   -0.002843481   -0.005547917

Difference to translation invariance:
           :   -0.0000000263    0.0012820627    0.0000021292

Norm of the cartesian gradient     ...    0.0112294608
RMS gradient                       ...    0.0037431536
MAX gradient                       ...    0.0069579384

-------
TIMINGS
-------

Total SCF gradient time            ...        2.454 sec

One electron gradient       ....       0.031 sec  (  1.3%)
Prescreening matrices       ....       0.099 sec  (  4.1%)
Two electron gradient       ....       1.951 sec  ( 79.5%)
XC gradient                 ....       0.074 sec  (  3.0%)
------------------------------------------------------------------------------
                         ORCA GEOMETRY RELAXATION STEP
------------------------------------------------------------------------------

Reading the OPT-File                    .... done
Getting information on internals        .... done
Copying old internal coords+grads       .... done
Making the new internal coordinates     .... (new redundants).... done
Validating the new internal coordinates .... (new redundants).... done
Calculating the B-matrix                .... done
Calculating the G,G- and P matrices     .... done
Transforming gradient to internals      .... done
Projecting the internal gradient        .... done
Number of atoms                         ....   3
Number of internal coordinates          ....   3
Current Energy                          ....  -958.490985939 Eh
Current gradient norm                   ....     0.011229461 Eh/bohr
Maximum allowed component of the step   ....  0.300
Current trust radius                    ....  0.300
Evaluating the initial hessian          ....  (Almloef) done
Projecting the Hessian                  .... done
Forming the augmented Hessian           .... done
Diagonalizing the augmented Hessian     .... done
Last element of RFO vector              ....  0.999766604
Lowest eigenvalues of augmented Hessian:
 -0.000199831  0.415502030  0.428254913
Length of the computed step             ....  0.021609167
The final length of the internal step   ....  0.021609167
Converting the step to cartesian space:
 Initial RMS(Int)=    0.0124760582
Transforming coordinates:
 Iter   0:  RMS(Cart)=    0.0077059830 RMS(Int)=    0.0124797891
 Iter   1:  RMS(Cart)=    0.0000102222 RMS(Int)=    0.0000129729
 Iter   2:  RMS(Cart)=    0.0000000414 RMS(Int)=    0.0000000736
done
Storing new coordinates                 .... done

                                .--------------------.
          ----------------------|Geometry convergence|-------------------------
          Item                value                   Tolerance       Converged
          ---------------------------------------------------------------------
          RMS gradient        0.0053391485            0.0001000000      NO
          MAX gradient        0.0064170557            0.0003000000      NO
          RMS step            0.0124760582            0.0020000000      NO
          MAX step            0.0149767940            0.0040000000      NO
          ........................................................
          Max(Bonds)      0.0079      Max(Angles)    0.25
          Max(Dihed)        0.00      Max(Improp)    0.00
          ---------------------------------------------------------------------

The optimization has not yet converged - more geometry cycles are needed


    ---------------------------------------------------------------------------
                         Redundant Internal Coordinates
                            (Angstroem and degrees)

        Definition                    Value    dE/dq     Step     New-Value
    ----------------------------------------------------------------------------
     1. B(Cl  1,C   0)                1.7128 -0.006412  0.0079    1.7207   
     2. B(Cl  2,C   0)                1.7128 -0.006417  0.0079    1.7207   
     3. A(Cl  1,C   0,Cl  2)          109.15 -0.001798    0.25    109.40   
    ----------------------------------------------------------------------------

         *************************************************************
         *                GEOMETRY OPTIMIZATION CYCLE   2            *
         *************************************************************
---------------------------------
CARTESIAN COORDINATES (ANGSTROEM)
---------------------------------
  C     -0.000001   -0.035126    0.023431
  Cl    -0.000007    0.958125   -1.381704
  Cl     0.000008    0.960321    1.427002

----------------------------
CARTESIAN COORDINATES (A.U.)
----------------------------
  NO LB      ZA    FRAG     MASS         X           Y           Z
   0 C     6.0000    0    12.011   -0.000002   -0.066378    0.044279
   1 Cl   17.0000    0    35.453   -0.000012    1.810594   -2.611042
   2 Cl   17.0000    0    35.453    0.000014    1.814744    2.696643

--------------------------------
INTERNAL COORDINATES (ANGSTROEM)
--------------------------------
 C      0   0   0     0.000000000000     0.00000000     0.00000000
 Cl     1   0   0     1.720741643948     0.00000000     0.00000000
 Cl     1   2   0     1.720733749673   109.39936071     0.00000000

---------------------------
INTERNAL COORDINATES (A.U.)
---------------------------
 C      0   0   0     0.000000000000     0.00000000     0.00000000
 Cl     1   0   0     3.251730454296     0.00000000     0.00000000
 Cl     1   2   0     3.251715536278   109.39936071     0.00000000



           ************************************************************
           *        Program running with 24 parallel MPI-processes    *
           *              working on a common directory               *
           ************************************************************


           ************************************************************
           *        Program running with 24 parallel MPI-processes    *
           *              working on a common directory               *
           ************************************************************

Diagonalization of the overlap matrix:
Smallest eigenvalue                        ... 2.093e-04
Time for diagonalization                   ...    0.007 sec
Threshold for overlap eigenvalues          ... 1.000e-08
Number of eigenvalues below threshold      ... 0
Time for construction of square roots      ...    0.003 sec
Total time needed                          ...    0.010 sec

-------------------
DFT GRID GENERATION
-------------------

General Integration Accuracy     IntAcc      ...  4.340
Radial Grid Type                 RadialGrid  ... Gauss-Chebyshev
Angular Grid (max. acc.)         AngularGrid ... Lebedev-110
Angular grid pruning method      GridPruning ... 3 (G Style)
Weight generation scheme         WeightScheme... Becke
Basis function cutoff            BFCut       ...    1.0000e-11
Integration weight cutoff        WCut        ...    1.0000e-14
Grids for H and He will be reduced by one unit

# of grid points (after initial pruning)     ...   5344 (   0.0 sec)
# of grid points (after weights+screening)   ...   5316 (   0.0 sec)
nearest neighbour list constructed           ...    0.0 sec
Grid point re-assignment to atoms done       ...    0.0 sec
Grid point division into batches done        ...    0.0 sec
Reduced shell lists constructed in    0.0 sec

Total number of grid points                  ...     5316
Total number of batches                      ...       85
Average number of points per batch           ...       62
Average number of grid points per atom       ...     1772
Average number of shells per batch           ...    26.00 (54.17%)
Average number of basis functions per batch  ...    84.40 (54.10%)
Average number of large shells per batch     ...    19.00 (73.08%)
Average number of large basis fcns per batch ...    63.00 (74.64%)
Maximum spatial batch extension              ...  16.97, 15.68, 18.03 au
Average spatial batch extension              ...   0.63,  0.62,  0.61 au

Time for grid setup =    0.018 sec

--------------
SCF ITERATIONS
--------------
ITER       Energy         Delta-E        Max-DP      RMS-DP      [F,P]     Damp
               ***  Starting incremental Fock matrix formation  ***
                      *** Initiating the SOSCF procedure ***
                      *** Re-Reading the Fockian *** 
                      *** Removing any level shift *** 
ITER      Energy       Delta-E        Grad      Rot      Max-DP    RMS-DP
  0   -958.48801926 -958.4880192622  0.001346  0.001346  0.002417  0.000073
               *** Restarting incremental Fock matrix formation ***
  1   -958.48805466  -0.0000353963  0.000980  0.002603  0.003275  0.000060
  2   -958.48803926   0.0000154022  0.001943  0.002332  0.001285  0.000034
  3   -958.48806647  -0.0000272151  0.000083  0.000381  0.000991  0.000012
  4   -958.48806656  -0.0000000851  0.000072  0.000067  0.000225  0.000003
  5   -958.48806668  -0.0000001227  0.000009  0.000052  0.000070  0.000001
  6   -958.48806668  -0.0000000019  0.000005  0.000013  0.000019  0.000000
                  ***Gradient check signals convergence***
              ***Rediagonalizing the Fockian in SOSCF/NRSCF***

               *****************************************************
               *                     SUCCESS                       *
               *           SCF CONVERGED AFTER   7 CYCLES          *
               *****************************************************

Setting up the final grid:

General Integration Accuracy     IntAcc      ...  4.670
Radial Grid Type                 RadialGrid  ... Gauss-Chebyshev
Angular Grid (max. acc.)         AngularGrid ... Lebedev-302
Angular grid pruning method      GridPruning ... 3 (G Style)
Weight generation scheme         WeightScheme... Becke
Basis function cutoff            BFCut       ...    1.0000e-11
Integration weight cutoff        WCut        ...    1.0000e-14
Grids for H and He will be reduced by one unit

# of grid points (after initial pruning)     ...  19688 (   0.0 sec)
# of grid points (after weights+screening)   ...  19565 (   0.0 sec)
nearest neighbour list constructed           ...    0.0 sec
Grid point re-assignment to atoms done       ...    0.0 sec
Grid point division into batches done        ...    0.1 sec
Reduced shell lists constructed in    0.1 sec

Total number of grid points                  ...    19565
Total number of batches                      ...      306
Average number of points per batch           ...       63
Average number of grid points per atom       ...     6522
Average number of shells per batch           ...    16.14 (33.63%)
Average number of basis functions per batch  ...    49.86 (31.96%)
Average number of large shells per batch     ...    11.21 (69.47%)
Average number of large basis fcns per batch ...    33.07 (66.33%)
Maximum spatial batch extension              ...  19.52, 12.96, 20.64 au
Average spatial batch extension              ...   0.51,  0.41,  0.51 au

Final grid set up in    0.1 sec
Final integration                            ... done (   0.1 sec)
Change in XC energy                          ...    -0.000241175
Integrated number of electrons               ...    40.000010164
Previous integrated no of electrons          ...    40.000994013
Total Energy       :         -958.48830786 Eh          -26081.79283 eV
  Last Energy change         ...   -9.4485e-10  Tolerance :   1.0000e-08
  Last MAX-Density change    ...    6.3484e-06  Tolerance :   1.0000e-07
             **** THE GBW FILE WAS UPDATED (04_CCl2.gbw) ****
             **** DENSITY FILE WAS UPDATED (04_CCl2.scfp) ****
             **** ENERGY FILE WAS UPDATED (04_CCl2.en.tmp) ****
             **** THE GBW FILE WAS UPDATED (04_CCl2.gbw) ****
             **** DENSITY FILE WAS UPDATED (04_CCl2.scfp) ****
Total SCF time: 0 days 0 hours 0 min 4 sec 


-------------------------------------------------------------------------------
                          DFT DISPERSION CORRECTION                            
                                                                               
                              DFTD3 V3.1  Rev 1                                
                          USING Becke-Johnson damping                          
-------------------------------------------------------------------------------
-------------------------   ----------------
Dispersion correction           -0.002788874
-------------------------   ----------------


-------------------------   --------------------
FINAL SINGLE POINT ENERGY      -958.491096731194
-------------------------   --------------------



           ************************************************************
           *        Program running with 24 parallel MPI-processes    *
           *              working on a common directory               *
           ************************************************************
------------------------------------------------------------------------------
                         ORCA SCF GRADIENT CALCULATION
------------------------------------------------------------------------------

Gradient of the Kohn-Sham DFT energy:
Kohn-Sham wavefunction type      ... RKS
Hartree-Fock exchange scaling    ...    0.100
Number of operators              ...    1
Number of atoms                  ...    3
Basis set dimensions             ...  156
Integral neglect threshold       ... 2.5e-11
Integral primitive cutoff        ... 2.5e-12

Nuclear repulsion gradient       ... done
One Electron Gradient            ... done
Pre-screening matrix             ... done
Starting the two electron gradient:
Two electron gradient done
Exchange-correlation gradient    ... done
Dispersion correction            ... done

------------------
CARTESIAN GRADIENT
------------------

   1   C   :   -0.000000027    0.004305917    0.000000555
   2   Cl  :   -0.000000042   -0.001471587    0.001945024
   3   Cl  :    0.000000044   -0.001475815   -0.001943798

Difference to translation invariance:
           :   -0.0000000240    0.0013585156    0.0000017819

Norm of the cartesian gradient     ...    0.0055177885
RMS gradient                       ...    0.0018392628
MAX gradient                       ...    0.0043059173

-------
TIMINGS
-------

Total SCF gradient time            ...        2.542 sec

One electron gradient       ....       0.009 sec  (  0.3%)
Prescreening matrices       ....       0.099 sec  (  3.9%)
Two electron gradient       ....       1.993 sec  ( 78.4%)
XC gradient                 ....       0.088 sec  (  3.4%)
------------------------------------------------------------------------------
                         ORCA GEOMETRY RELAXATION STEP
------------------------------------------------------------------------------

Reading the OPT-File                    .... done
Getting information on internals        .... done
Copying old internal coords+grads       .... done
Making the new internal coordinates     .... (new redundants).... done
Validating the new internal coordinates .... (new redundants).... done
Calculating the B-matrix                .... done
Calculating the G,G- and P matrices     .... done
Transforming gradient to internals      .... done
Projecting the internal gradient        .... done
Number of atoms                         ....   3
Number of internal coordinates          ....   3
Current Energy                          ....  -958.491096731 Eh
Current gradient norm                   ....     0.005517788 Eh/bohr
Maximum allowed component of the step   ....  0.300
Current trust radius                    ....  0.300
Updating the Hessian (BFGS)             .... done
Forming the augmented Hessian           .... done
Diagonalizing the augmented Hessian     .... done
Last element of RFO vector              ....  0.999838523
Lowest eigenvalues of augmented Hessian:
 -0.000073210  0.225263436  0.428255557
Length of the computed step             ....  0.017973106
The final length of the internal step   ....  0.017973106
Converting the step to cartesian space:
 Initial RMS(Int)=    0.0103767777
Transforming coordinates:
 Iter   0:  RMS(Cart)=    0.0044770482 RMS(Int)=    0.0103816733
 Iter   1:  RMS(Cart)=    0.0000131558 RMS(Int)=    0.0000134518
 Iter   2:  RMS(Cart)=    0.0000000537 RMS(Int)=    0.0000000688
done
Storing new coordinates                 .... done

                                .--------------------.
          ----------------------|Geometry convergence|-------------------------
          Item                value                   Tolerance       Converged
          ---------------------------------------------------------------------
          Energy change      -0.0001107926            0.0000050000      NO
          RMS gradient        0.0023601440            0.0001000000      NO
          MAX gradient        0.0027018864            0.0003000000      NO
          RMS step            0.0103767777            0.0020000000      NO
          MAX step            0.0122192230            0.0040000000      NO
          ........................................................
          Max(Bonds)      0.0065      Max(Angles)    0.29
          Max(Dihed)        0.00      Max(Improp)    0.00
          ---------------------------------------------------------------------

The optimization has not yet converged - more geometry cycles are needed


    ---------------------------------------------------------------------------
                         Redundant Internal Coordinates
                            (Angstroem and degrees)

        Definition                    Value    dE/dq     Step     New-Value
    ----------------------------------------------------------------------------
     1. B(Cl  1,C   0)                1.7207 -0.002698  0.0065    1.7272   
     2. B(Cl  2,C   0)                1.7207 -0.002702  0.0065    1.7272   
     3. A(Cl  1,C   0,Cl  2)          109.40  0.001459   -0.29    109.11   
    ----------------------------------------------------------------------------

         *************************************************************
         *                GEOMETRY OPTIMIZATION CYCLE   3            *
         *************************************************************
---------------------------------
CARTESIAN COORDINATES (ANGSTROEM)
---------------------------------
  C     -0.000001   -0.039951    0.023433
  Cl    -0.000007    0.960535   -1.384491
  Cl     0.000008    0.962737    1.429788

----------------------------
CARTESIAN COORDINATES (A.U.)
----------------------------
  NO LB      ZA    FRAG     MASS         X           Y           Z
   0 C     6.0000    0    12.011   -0.000002   -0.075497    0.044281
   1 Cl   17.0000    0    35.453   -0.000012    1.815148   -2.616309
   2 Cl   17.0000    0    35.453    0.000015    1.819309    2.701908

--------------------------------
INTERNAL COORDINATES (ANGSTROEM)
--------------------------------
 C      0   0   0     0.000000000000     0.00000000     0.00000000
 Cl     1   0   0     1.727200403289     0.00000000     0.00000000
 Cl     1   2   0     1.727199884110   109.11429405     0.00000000

---------------------------
INTERNAL COORDINATES (A.U.)
---------------------------
 C      0   0   0     0.000000000000     0.00000000     0.00000000
 Cl     1   0   0     3.263935740614     0.00000000     0.00000000
 Cl     1   2   0     3.263934759509   109.11429405     0.00000000



           ************************************************************
           *        Program running with 24 parallel MPI-processes    *
           *              working on a common directory               *
           ************************************************************


           ************************************************************
           *        Program running with 24 parallel MPI-processes    *
           *              working on a common directory               *
           ************************************************************

Diagonalization of the overlap matrix:
Smallest eigenvalue                        ... 2.131e-04
Time for diagonalization                   ...    0.006 sec
Threshold for overlap eigenvalues          ... 1.000e-08
Number of eigenvalues below threshold      ... 0
Time for construction of square roots      ...    0.003 sec
Total time needed                          ...    0.010 sec

-------------------
DFT GRID GENERATION
-------------------

General Integration Accuracy     IntAcc      ...  4.340
Radial Grid Type                 RadialGrid  ... Gauss-Chebyshev
Angular Grid (max. acc.)         AngularGrid ... Lebedev-110
Angular grid pruning method      GridPruning ... 3 (G Style)
Weight generation scheme         WeightScheme... Becke
Basis function cutoff            BFCut       ...    1.0000e-11
Integration weight cutoff        WCut        ...    1.0000e-14
Grids for H and He will be reduced by one unit

# of grid points (after initial pruning)     ...   5344 (   0.0 sec)
# of grid points (after weights+screening)   ...   5315 (   0.0 sec)
nearest neighbour list constructed           ...    0.0 sec
Grid point re-assignment to atoms done       ...    0.0 sec
Grid point division into batches done        ...    0.0 sec
Reduced shell lists constructed in    0.0 sec

Total number of grid points                  ...     5315
Total number of batches                      ...       85
Average number of points per batch           ...       62
Average number of grid points per atom       ...     1772
Average number of shells per batch           ...    25.80 (53.75%)
Average number of basis functions per batch  ...    84.20 (53.97%)
Average number of large shells per batch     ...    19.60 (75.97%)
Average number of large basis fcns per batch ...    64.80 (76.96%)
Maximum spatial batch extension              ...  16.97, 15.68, 18.04 au
Average spatial batch extension              ...   0.63,  0.62,  0.61 au

Time for grid setup =    0.017 sec

--------------
SCF ITERATIONS
--------------
ITER       Energy         Delta-E        Max-DP      RMS-DP      [F,P]     Damp
               ***  Starting incremental Fock matrix formation  ***
                      *** Initiating the SOSCF procedure ***
                      *** Re-Reading the Fockian *** 
                      *** Removing any level shift *** 
ITER      Energy       Delta-E        Grad      Rot      Max-DP    RMS-DP
  0   -958.48805667 -958.4880566654  0.000833  0.000833  0.001948  0.000056
               *** Restarting incremental Fock matrix formation ***
  1   -958.48808130  -0.0000246388  0.000666  0.001599  0.002266  0.000044
  2   -958.48807591   0.0000053990  0.001219  0.001504  0.001075  0.000022
  3   -958.48808656  -0.0000106576  0.000071  0.000258  0.000870  0.000010
  4   -958.48808664  -0.0000000776  0.000046  0.000046  0.000151  0.000002
  5   -958.48808669  -0.0000000496  0.000008  0.000035  0.000067  0.000001
  6   -958.48808669  -0.0000000017  0.000004  0.000010  0.000016  0.000000
                  ***Gradient check signals convergence***
              ***Rediagonalizing the Fockian in SOSCF/NRSCF***

               *****************************************************
               *                     SUCCESS                       *
               *           SCF CONVERGED AFTER   7 CYCLES          *
               *****************************************************

Setting up the final grid:

General Integration Accuracy     IntAcc      ...  4.670
Radial Grid Type                 RadialGrid  ... Gauss-Chebyshev
Angular Grid (max. acc.)         AngularGrid ... Lebedev-302
Angular grid pruning method      GridPruning ... 3 (G Style)
Weight generation scheme         WeightScheme... Becke
Basis function cutoff            BFCut       ...    1.0000e-11
Integration weight cutoff        WCut        ...    1.0000e-14
Grids for H and He will be reduced by one unit

# of grid points (after initial pruning)     ...  19688 (   0.0 sec)
# of grid points (after weights+screening)   ...  19564 (   0.0 sec)
nearest neighbour list constructed           ...    0.0 sec
Grid point re-assignment to atoms done       ...    0.0 sec
Grid point division into batches done        ...    0.1 sec
Reduced shell lists constructed in    0.1 sec

Total number of grid points                  ...    19564
Total number of batches                      ...      307
Average number of points per batch           ...       63
Average number of grid points per atom       ...     6521
Average number of shells per batch           ...    16.07 (33.48%)
Average number of basis functions per batch  ...    49.64 (31.82%)
Average number of large shells per batch     ...    11.14 (69.33%)
Average number of large basis fcns per batch ...    32.86 (66.19%)
Maximum spatial batch extension              ...  16.12, 12.96, 20.64 au
Average spatial batch extension              ...   0.50,  0.42,  0.53 au

Final grid set up in    0.1 sec
Final integration                            ... done (   0.1 sec)
Change in XC energy                          ...    -0.000234258
Integrated number of electrons               ...    40.000010108
Previous integrated no of electrons          ...    40.001059097
Total Energy       :         -958.48832095 Eh          -26081.79319 eV
  Last Energy change         ...   -6.2073e-10  Tolerance :   1.0000e-08
  Last MAX-Density change    ...    7.0976e-06  Tolerance :   1.0000e-07
             **** THE GBW FILE WAS UPDATED (04_CCl2.gbw) ****
             **** DENSITY FILE WAS UPDATED (04_CCl2.scfp) ****
             **** ENERGY FILE WAS UPDATED (04_CCl2.en.tmp) ****
             **** THE GBW FILE WAS UPDATED (04_CCl2.gbw) ****
             **** DENSITY FILE WAS UPDATED (04_CCl2.scfp) ****
Total SCF time: 0 days 0 hours 0 min 4 sec 


-------------------------------------------------------------------------------
                          DFT DISPERSION CORRECTION                            
                                                                               
                              DFTD3 V3.1  Rev 1                                
                          USING Becke-Johnson damping                          
-------------------------------------------------------------------------------
-------------------------   ----------------
Dispersion correction           -0.002787582
-------------------------   ----------------


-------------------------   --------------------
FINAL SINGLE POINT ENERGY      -958.491108532468
-------------------------   --------------------



           ************************************************************
           *        Program running with 24 parallel MPI-processes    *
           *              working on a common directory               *
           ************************************************************
------------------------------------------------------------------------------
                         ORCA SCF GRADIENT CALCULATION
------------------------------------------------------------------------------

Gradient of the Kohn-Sham DFT energy:
Kohn-Sham wavefunction type      ... RKS
Hartree-Fock exchange scaling    ...    0.100
Number of operators              ...    1
Number of atoms                  ...    3
Basis set dimensions             ...  156
Integral neglect threshold       ... 2.5e-11
Integral primitive cutoff        ... 2.5e-12

Nuclear repulsion gradient       ... done
One Electron Gradient            ... done
Pre-screening matrix             ... done
Starting the two electron gradient:
Two electron gradient done
Exchange-correlation gradient    ... done
Dispersion correction            ... done

------------------
CARTESIAN GRADIENT
------------------

   1   C   :   -0.000000032    0.001203708    0.000001353
   2   Cl  :   -0.000000050    0.000100445    0.000011557
   3   Cl  :    0.000000070    0.000100701   -0.000011106

Difference to translation invariance:
           :   -0.0000000118    0.0014048537    0.0000018041

Norm of the cartesian gradient     ...    0.0012121887
RMS gradient                       ...    0.0004040629
MAX gradient                       ...    0.0012037079

-------
TIMINGS
-------

Total SCF gradient time            ...        2.465 sec

One electron gradient       ....       0.001 sec  (  0.0%)
Prescreening matrices       ....       0.098 sec  (  4.0%)
Two electron gradient       ....       1.926 sec  ( 78.1%)
XC gradient                 ....       0.090 sec  (  3.7%)
------------------------------------------------------------------------------
                         ORCA GEOMETRY RELAXATION STEP
------------------------------------------------------------------------------

Reading the OPT-File                    .... done
Getting information on internals        .... done
Copying old internal coords+grads       .... done
Making the new internal coordinates     .... (new redundants).... done
Validating the new internal coordinates .... (new redundants).... done
Calculating the B-matrix                .... done
Calculating the G,G- and P matrices     .... done
Transforming gradient to internals      .... done
Projecting the internal gradient        .... done
Number of atoms                         ....   3
Number of internal coordinates          ....   3
Current Energy                          ....  -958.491108532 Eh
Current gradient norm                   ....     0.001212189 Eh/bohr
Maximum allowed component of the step   ....  0.300
Current trust radius                    ....  0.300
Updating the Hessian (BFGS)             .... done
Forming the augmented Hessian           .... done
Diagonalizing the augmented Hessian     .... done
Last element of RFO vector              ....  0.999993289
Lowest eigenvalues of augmented Hessian:
 -0.000003331  0.192669570  0.428255560
Length of the computed step             ....  0.003663732
The final length of the internal step   ....  0.003663732
Converting the step to cartesian space:
 Initial RMS(Int)=    0.0021152566
Transforming coordinates:
 Iter   0:  RMS(Cart)=    0.0013372733 RMS(Int)=    0.0021162661
 Iter   1:  RMS(Cart)=    0.0000017510 RMS(Int)=    0.0000024849
 Iter   2:  RMS(Cart)=    0.0000000012 RMS(Int)=    0.0000000027
done
Storing new coordinates                 .... done

                                .--------------------.
          ----------------------|Geometry convergence|-------------------------
          Item                value                   Tolerance       Converged
          ---------------------------------------------------------------------
          Energy change      -0.0000118013            0.0000050000      NO
          RMS gradient        0.0005812520            0.0001000000      NO
          MAX gradient        0.0009563368            0.0003000000      NO
          RMS step            0.0021152566            0.0020000000      NO
          MAX step            0.0026517682            0.0040000000      YES
          ........................................................
          Max(Bonds)      0.0009      Max(Angles)    0.15
          Max(Dihed)        0.00      Max(Improp)    0.00
          ---------------------------------------------------------------------

The optimization has not yet converged - more geometry cycles are needed


    ---------------------------------------------------------------------------
                         Redundant Internal Coordinates
                            (Angstroem and degrees)

        Definition                    Value    dE/dq     Step     New-Value
    ----------------------------------------------------------------------------
     1. B(Cl  1,C   0)                1.7272 -0.000222  0.0009    1.7281   
     2. B(Cl  2,C   0)                1.7272 -0.000223  0.0009    1.7281   
     3. A(Cl  1,C   0,Cl  2)          109.11  0.000956   -0.15    108.96   
    ----------------------------------------------------------------------------

         *************************************************************
         *                GEOMETRY OPTIMIZATION CYCLE   4            *
         *************************************************************
---------------------------------
CARTESIAN COORDINATES (ANGSTROEM)
---------------------------------
  C     -0.000001   -0.041561    0.023433
  Cl    -0.000007    0.961340   -1.383932
  Cl     0.000008    0.963542    1.429229

----------------------------
CARTESIAN COORDINATES (A.U.)
----------------------------
  NO LB      ZA    FRAG     MASS         X           Y           Z
   0 C     6.0000    0    12.011   -0.000002   -0.078538    0.044282
   1 Cl   17.0000    0    35.453   -0.000012    1.816669   -2.615253
   2 Cl   17.0000    0    35.453    0.000015    1.820830    2.700851

--------------------------------
INTERNAL COORDINATES (ANGSTROEM)
--------------------------------
 C      0   0   0     0.000000000000     0.00000000     0.00000000
 Cl     1   0   0     1.728145126812     0.00000000     0.00000000
 Cl     1   2   0     1.728147077593   108.96235892     0.00000000

---------------------------
INTERNAL COORDINATES (A.U.)
---------------------------
 C      0   0   0     0.000000000000     0.00000000     0.00000000
 Cl     1   0   0     3.265721009346     0.00000000     0.00000000
 Cl     1   2   0     3.265724695786   108.96235892     0.00000000



           ************************************************************
           *        Program running with 24 parallel MPI-processes    *
           *              working on a common directory               *
           ************************************************************


           ************************************************************
           *        Program running with 24 parallel MPI-processes    *
           *              working on a common directory               *
           ************************************************************

Diagonalization of the overlap matrix:
Smallest eigenvalue                        ... 2.137e-04
Time for diagonalization                   ...    0.006 sec
Threshold for overlap eigenvalues          ... 1.000e-08
Number of eigenvalues below threshold      ... 0
Time for construction of square roots      ...    0.003 sec
Total time needed                          ...    0.009 sec

-------------------
DFT GRID GENERATION
-------------------

General Integration Accuracy     IntAcc      ...  4.340
Radial Grid Type                 RadialGrid  ... Gauss-Chebyshev
Angular Grid (max. acc.)         AngularGrid ... Lebedev-110
Angular grid pruning method      GridPruning ... 3 (G Style)
Weight generation scheme         WeightScheme... Becke
Basis function cutoff            BFCut       ...    1.0000e-11
Integration weight cutoff        WCut        ...    1.0000e-14
Grids for H and He will be reduced by one unit

# of grid points (after initial pruning)     ...   5344 (   0.0 sec)
# of grid points (after weights+screening)   ...   5314 (   0.0 sec)
nearest neighbour list constructed           ...    0.0 sec
Grid point re-assignment to atoms done       ...    0.0 sec
Grid point division into batches done        ...    0.0 sec
Reduced shell lists constructed in    0.0 sec

Total number of grid points                  ...     5314
Total number of batches                      ...       85
Average number of points per batch           ...       62
Average number of grid points per atom       ...     1771
Average number of shells per batch           ...    26.00 (54.17%)
Average number of basis functions per batch  ...    84.40 (54.10%)
Average number of large shells per batch     ...    19.60 (75.38%)
Average number of large basis fcns per batch ...    64.80 (76.78%)
Maximum spatial batch extension              ...  16.97, 15.68, 18.04 au
Average spatial batch extension              ...   0.63,  0.62,  0.61 au

Time for grid setup =    0.017 sec

--------------
SCF ITERATIONS
--------------
ITER       Energy         Delta-E        Max-DP      RMS-DP      [F,P]     Damp
               ***  Starting incremental Fock matrix formation  ***
                      *** Initiating the SOSCF procedure ***
                      *** Re-Reading the Fockian *** 
                      *** Removing any level shift *** 
ITER      Energy       Delta-E        Grad      Rot      Max-DP    RMS-DP
  0   -958.48807784 -958.4880778444  0.000346  0.000346  0.000409  0.000012
               *** Restarting incremental Fock matrix formation ***
  1   -958.48807958  -0.0000017406  0.000092  0.000246  0.000369  0.000008
  2   -958.48807975  -0.0000001651  0.000097  0.000227  0.000304  0.000005
  3   -958.48807973   0.0000000208  0.000092  0.000161  0.000266  0.000004
  4   -958.48807982  -0.0000000905  0.000003  0.000005  0.000008  0.000000
                  ***Gradient check signals convergence***
              ***Rediagonalizing the Fockian in SOSCF/NRSCF***

               *****************************************************
               *                     SUCCESS                       *
               *           SCF CONVERGED AFTER   5 CYCLES          *
               *****************************************************

Setting up the final grid:

General Integration Accuracy     IntAcc      ...  4.670
Radial Grid Type                 RadialGrid  ... Gauss-Chebyshev
Angular Grid (max. acc.)         AngularGrid ... Lebedev-302
Angular grid pruning method      GridPruning ... 3 (G Style)
Weight generation scheme         WeightScheme... Becke
Basis function cutoff            BFCut       ...    1.0000e-11
Integration weight cutoff        WCut        ...    1.0000e-14
Grids for H and He will be reduced by one unit

# of grid points (after initial pruning)     ...  19688 (   0.0 sec)
# of grid points (after weights+screening)   ...  19568 (   0.0 sec)
nearest neighbour list constructed           ...    0.0 sec
Grid point re-assignment to atoms done       ...    0.0 sec
Grid point division into batches done        ...    0.1 sec
Reduced shell lists constructed in    0.1 sec

Total number of grid points                  ...    19568
Total number of batches                      ...      308
Average number of points per batch           ...       63
Average number of grid points per atom       ...     6523
Average number of shells per batch           ...    16.07 (33.48%)
Average number of basis functions per batch  ...    49.64 (31.82%)
Average number of large shells per batch     ...    11.14 (69.33%)
Average number of large basis fcns per batch ...    32.86 (66.19%)
Maximum spatial batch extension              ...  16.12, 12.96, 20.64 au
Average spatial batch extension              ...   0.50,  0.42,  0.53 au

Final grid set up in    0.1 sec
Final integration                            ... done (   0.1 sec)
Change in XC energy                          ...    -0.000236375
Integrated number of electrons               ...    40.000010036
Previous integrated no of electrons          ...    40.001059906
Total Energy       :         -958.48831619 Eh          -26081.79306 eV
  Last Energy change         ...   -2.0123e-11  Tolerance :   1.0000e-08
  Last MAX-Density change    ...    3.1721e-06  Tolerance :   1.0000e-07
             **** THE GBW FILE WAS UPDATED (04_CCl2.gbw) ****
             **** DENSITY FILE WAS UPDATED (04_CCl2.scfp) ****
             **** ENERGY FILE WAS UPDATED (04_CCl2.en.tmp) ****
             **** THE GBW FILE WAS UPDATED (04_CCl2.gbw) ****
             **** DENSITY FILE WAS UPDATED (04_CCl2.scfp) ****
Total SCF time: 0 days 0 hours 0 min 3 sec 


[...]
 143   0.0000       6.087990       165.6626 
 144   0.0000       6.546352       178.1353 
 145   0.0000       7.510397       204.3683 
 146   0.0000       8.132873       221.3067 
 147   0.0000       8.134295       221.3454 
 148   0.0000       8.137119       221.4223 
 149   0.0000       8.157367       221.9732 
 150   0.0000       8.190823       222.8836 
 151   0.0000       8.198989       223.1058 
 152   0.0000       8.215324       223.5503 
 153   0.0000       8.322180       226.4580 
 154   0.0000       8.448240       229.8883 
 155   0.0000       8.453908       230.0425 

                    ********************************
                    * MULLIKEN POPULATION ANALYSIS *
                    ********************************

-----------------------
MULLIKEN ATOMIC CHARGES
-----------------------
   0 C :   -0.250069
   1 Cl:    0.125068
   2 Cl:    0.125001
Sum of atomic charges:   -0.0000000

--------------------------------
MULLIKEN REDUCED ORBITAL CHARGES
--------------------------------
  0 C s       :     4.033333  s :     4.033333
      pz      :     0.649437  p :     2.061823
      px      :     0.442989
      py      :     0.969397
      dz2     :     0.024845  d :     0.122169
      dxz     :     0.028517
      dyz     :     0.038236
      dx2y2   :     0.008952
      dxy     :     0.021619
      f0      :     0.007572  f :     0.032745
      f+1     :     0.000925
      f-1     :     0.005401
      f+2     :     0.006718
      f-2     :     0.009077
      f+3     :     0.001801
      f-3     :     0.001250
  1 Cls       :     5.943398  s :     5.943398
      pz      :     3.428500  p :    10.861963
      px      :     3.732578
      py      :     3.700886
      dz2     :     0.021539  d :     0.062221
      dxz     :     0.010301
      dyz     :     0.019773
      dx2y2   :     0.007727
      dxy     :     0.002882
      f0      :     0.002222  f :     0.007349
      f+1     :     0.000893
      f-1     :     0.001857
      f+2     :     0.001262
      f-2     :     0.000831
      f+3     :     0.000053
      f-3     :     0.000231
  2 Cls       :     5.943427  s :     5.943427
      pz      :     3.429635  p :    10.862006
      px      :     3.732574
      py      :     3.699797
      dz2     :     0.021554  d :     0.062216
      dxz     :     0.010284
      dyz     :     0.019723
      dx2y2   :     0.007757
      dxy     :     0.002898
      f0      :     0.002218  f :     0.007349
      f+1     :     0.000889
      f-1     :     0.001858
      f+2     :     0.001263
      f-2     :     0.000835
      f+3     :     0.000054
      f-3     :     0.000233


                     *******************************
                     * LOEWDIN POPULATION ANALYSIS *
                     *******************************

----------------------
LOEWDIN ATOMIC CHARGES
----------------------
   0 C :   -1.291492
   1 Cl:    0.645749
   2 Cl:    0.645743

-------------------------------
LOEWDIN REDUCED ORBITAL CHARGES
-------------------------------
  0 C s       :     3.160282  s :     3.160282
      pz      :     0.930436  p :     2.534885
      px      :     0.466413
      py      :     1.138036
      dz2     :     0.345662  d :     1.082901
      dxz     :     0.230569
      dyz     :     0.355850
      dx2y2   :     0.086325
      dxy     :     0.064495
      f0      :     0.134753  f :     0.513424
      f+1     :     0.037476
      f-1     :     0.113652
      f+2     :     0.091079
      f-2     :     0.108866
      f+3     :     0.013059
      f-3     :     0.014539
  1 Cls       :     5.481708  s :     5.481708
      pz      :     3.406872  p :    10.464838
      px      :     3.493843
      py      :     3.564124
      dz2     :     0.105279  d :     0.320779
      dxz     :     0.029960
      dyz     :     0.137069
      dx2y2   :     0.043251
      dxy     :     0.005221
      f0      :     0.030254  f :     0.086926
      f+1     :     0.006105
      f-1     :     0.022642
      f+2     :     0.020588
      f-2     :     0.004083
      f+3     :     0.000348
      f-3     :     0.002906
  2 Cls       :     5.481711  s :     5.481711
      pz      :     3.407327  p :    10.464844
      px      :     3.493845
      py      :     3.563672
      dz2     :     0.105247  d :     0.320777
      dxz     :     0.029922
      dyz     :     0.136880
      dx2y2   :     0.043469
      dxy     :     0.005260
      f0      :     0.030238  f :     0.086925
      f+1     :     0.006082
      f-1     :     0.022580
      f+2     :     0.020637
      f-2     :     0.004103
      f+3     :     0.000352
      f-3     :     0.002934


                      *****************************
                      * MAYER POPULATION ANALYSIS *
                      *****************************

  NA   - Mulliken gross atomic population
  ZA   - Total nuclear charge
  QA   - Mulliken gross atomic charge
  VA   - Mayer's total valence
  BVA  - Mayer's bonded valence
  FA   - Mayer's free valence

  ATOM       NA         ZA         QA         VA         BVA        FA
  0 C      6.2501     6.0000    -0.2501     2.1654     2.1654    -0.0000
  1 Cl    16.8749    17.0000     0.1251     1.2059     1.2059    -0.0000
  2 Cl    16.8750    17.0000     0.1250     1.2058     1.2058    -0.0000

  Mayer bond orders larger than 0.100000
B(  0-C ,  1-Cl) :   1.0827 B(  0-C ,  2-Cl) :   1.0827 B(  1-Cl,  2-Cl) :   0.1231 


-------
TIMINGS
-------

Total SCF time: 0 days 0 hours 0 min 2 sec 

Total time                  ....       2.881 sec
Sum of individual times     ....       2.613 sec  ( 90.7%)

Fock matrix formation       ....       2.460 sec  ( 85.4%)
  XC integration            ....       0.085 sec  (  3.5% of F)
    Basis function eval.    ....       0.010 sec  ( 12.3% of XC)
    Density eval.           ....       0.013 sec  ( 15.5% of XC)
    XC-Functional eval.     ....       0.004 sec  (  4.6% of XC)
    XC-Potential eval.      ....       0.032 sec  ( 37.9% of XC)
Diagonalization             ....       0.003 sec  (  0.1%)
Density matrix formation    ....       0.003 sec  (  0.1%)
Population analysis         ....       0.005 sec  (  0.2%)
Initial guess               ....       0.009 sec  (  0.3%)
Orbital Transformation      ....       0.000 sec  (  0.0%)
Orbital Orthonormalization  ....       0.005 sec  (  0.2%)
DIIS solution               ....       0.000 sec  (  0.0%)
SOSCF solution              ....       0.007 sec  (  0.2%)
Grid generation             ....       0.125 sec  (  4.4%)


-------------------------------------------------------------------------------
                          DFT DISPERSION CORRECTION                            
                                                                               
                              DFTD3 V3.1  Rev 1                                
                          USING Becke-Johnson damping                          
-------------------------------------------------------------------------------
The TPSSH functional is recognized
Active option DFTDOPT                   ...         4   

molecular C6(AA) [au] = 597.517720 


            DFT-D V3
 parameters
 s6 scaling factor         :     1.0000 
 a1 scaling factor         :     0.4529 
 s8 scaling factor         :     2.2382 
 a2 scaling factor         :     4.6550 
 ad hoc parameters k1-k3   :    16.0000     1.3333    -4.0000 

 Edisp/kcal,au: -1.749435077230  -0.002787901957 
 E6   /kcal   :  -0.683404181 
 E8   /kcal   :  -1.066030896 
 % E8         :  60.935722051 

-------------------------   ----------------
Dispersion correction           -0.002787902
-------------------------   ----------------


-------------------------   --------------------
FINAL SINGLE POINT ENERGY      -958.491103601249
-------------------------   --------------------

                                *** OPTIMIZATION RUN DONE ***

                            ***************************************
                            *     ORCA property calculations      *
                            ***************************************

                                    ---------------------
                                    Active property flags
                                    ---------------------
   (+) Dipole Moment


------------------------------------------------------------------------------
                       ORCA ELECTRIC PROPERTIES CALCULATION
------------------------------------------------------------------------------

Dipole Moment Calculation                       ... on
Quadrupole Moment Calculation                   ... off
Polarizability Calculation                      ... off
GBWName                                         ... 04_CCl2.gbw
Electron density file                           ... 04_CCl2.scfp
The origin for moment calculation is the CENTER OF MASS  = ( 0.000001,  1.544030  0.043014)

-------------
DIPOLE MOMENT
-------------
                                X             Y             Z
Electronic contribution:      0.00000       0.79810      -0.00063
Nuclear contribution   :     -0.00000      -0.39053       0.00031
                        -----------------------------------------
Total Dipole Moment    :      0.00000       0.40756      -0.00032
                        -----------------------------------------
Magnitude (a.u.)       :      0.40756
Magnitude (Debye)      :      1.03594



--------------------
Rotational spectrum 
--------------------
 
Rotational constants in cm-1:     1.627173     0.120208     0.111938 
Rotational constants in MHz : 48781.428419  3603.744435  3355.831271 

 Dipole components along the rotational axes: 
x,y,z [a.u.] :    -0.000004     0.407564     0.000000 
x,y,z [Debye]:    -0.000009     1.035945     0.000000 

 

----------------------------------------------------------------------------
                           ORCA NUMERICAL FREQUENCIES
                              (24-process run)
----------------------------------------------------------------------------

Number of atoms                ... 3
Central differences            ... used
Number of displacements        ... 18
Numerical increment            ... 5.000e-03 bohr
IR-spectrum generation         ... on
Raman-spectrum generation      ... off
Surface Crossing Hessian       ... off

 WARNING: There are more processes than displacements to do
  ====> : Reducing number of processes to   9

The output will be reduced. Please look at the following files:
SCF program output             ... >04_CCl2.lastscf
Integral program output        ... >04_CCl2.lastint
Gradient program output        ... >04_CCl2.lastgrad
Dipole moment program output   ... >04_CCl2.lastmom
AutoCI program output          ... >04_CCl2.lastautoci


         <<< Energy and Gradient at the input geometry >>>

        <<< Energy and Gradient at displaced geometries >>>
             <<<Displacing   1/coordinate 1 (+)>>>
             <<<Displacing   1/coordinate 2 (+)>>>
             <<<Displacing   1/coordinate 3 (+)>>>
             <<<Displacing   2/coordinate 1 (+)>>>
             <<<Displacing   2/coordinate 2 (+)>>>
             <<<Displacing   3/coordinate 1 (+)>>>
             <<<Displacing   3/coordinate 2 (+)>>>
             <<<Displacing   3/coordinate 3 (+)>>>
             <<<Displacing   2/coordinate 3 (+)>>>
             <<<Displacing   2/coordinate 1 (-)>>>
             <<<Displacing   3/coordinate 1 (-)>>>
             <<<Displacing   1/coordinate 2 (-)>>>
             <<<Displacing   1/coordinate 3 (-)>>>
             <<<Displacing   2/coordinate 2 (-)>>>
             <<<Displacing   3/coordinate 2 (-)>>>
             <<<Displacing   1/coordinate 1 (-)>>>
             <<<Displacing   3/coordinate 3 (-)>>>
             <<<Displacing   2/coordinate 3 (-)>>>

-----------------------
VIBRATIONAL FREQUENCIES
-----------------------

Scaling factor for frequencies =  1.000000000 (already applied!)

   0:         0.00 cm**-1
   1:         0.00 cm**-1
   2:         0.00 cm**-1
   3:         0.00 cm**-1
   4:         0.00 cm**-1
   5:         0.00 cm**-1
   6:       327.38 cm**-1
   7:       706.58 cm**-1
   8:       724.02 cm**-1


------------
NORMAL MODES
------------

These modes are the cartesian displacements weighted by the diagonal matrix
M(i,i)=1/sqrt(m[i]) where m[i] is the mass of the displaced atom
Thus, these vectors are normalized but *not* orthogonal

                  0          1          2          3          4          5    
      0       0.000000   0.000000   0.000000   0.000000   0.000000   0.000000
      1       0.000000   0.000000   0.000000   0.000000   0.000000   0.000000
      2       0.000000   0.000000   0.000000   0.000000   0.000000   0.000000
      3       0.000000   0.000000   0.000000   0.000000   0.000000   0.000000
      4       0.000000   0.000000   0.000000   0.000000   0.000000   0.000000
      5       0.000000   0.000000   0.000000   0.000000   0.000000   0.000000
      6       0.000000   0.000000   0.000000   0.000000   0.000000   0.000000
      7       0.000000   0.000000   0.000000   0.000000   0.000000   0.000000
      8       0.000000   0.000000   0.000000   0.000000   0.000000   0.000000
                   6          7          8    
      0      -0.000001   0.000002  -0.000005
      1      -0.473845   0.951905  -0.001325
      2       0.000364  -0.001339  -0.959298
      3       0.000003   0.000000   0.000001
      4       0.080749  -0.161205  -0.115822
      5       0.617427   0.144923   0.162500
      6      -0.000003  -0.000001   0.000001
      7       0.079784  -0.161288   0.116271
      8      -0.617550  -0.144470   0.162497


-----------
IR SPECTRUM  
-----------

 Mode    freq (cm**-1)   T**2         TX         TY         TZ
-------------------------------------------------------------------
   6:       327.38    0.516336  (  0.000001   0.718565  -0.000064)
   7:       706.58   25.019498  (  0.000008   5.001920  -0.017066)
   8:       724.02  353.940243  ( -0.000090  -0.015212 -18.813293)

The first frequency considered to be a vibration is 6
The total number of vibrations considered is 3


--------------------------
THERMOCHEMISTRY AT 298.15K
--------------------------

Temperature         ... 298.15 K
Pressure            ... 1.00 atm
Total Mass          ... 82.92 AMU

Throughout the following assumptions are being made:
  (1) The electronic state is orbitally nondegenerate
  (2) There are no thermally accessible electronically excited states
  (3) Hindered rotations indicated by low frequency modes are not
      treated as such but are treated as vibrations and this may
      cause some error
  (4) All equations used are the standard statistical mechanics
      equations for an ideal gas
  (5) All vibrations are strictly harmonic

freq.     327.38  E(vib)   ...       0.24 
freq.     706.58  E(vib)   ...       0.07 
freq.     724.02  E(vib)   ...       0.06 

------------
INNER ENERGY
------------

The inner energy is: U= E(el) + E(ZPE) + E(vib) + E(rot) + E(trans)
    E(el)   - is the total energy from the electronic structure calculation
              = E(kin-el) + E(nuc-el) + E(el-el) + E(nuc-nuc)
    E(ZPE)  - the the zero temperature vibrational energy from the frequency calculation
    E(vib)  - the the finite temperature correction to E(ZPE) due to population
              of excited vibrational states
    E(rot)  - is the rotational thermal energy
    E(trans)- is the translational thermal energy

Summary of contributions to the inner energy U:
Electronic energy                ...   -958.49110360 Eh
Zero point energy                ...      0.00400496 Eh       2.51 kcal/mol
Thermal vibrational correction   ...      0.00060048 Eh       0.38 kcal/mol
Thermal rotational correction    ...      0.00141627 Eh       0.89 kcal/mol
Thermal translational correction ...      0.00141627 Eh       0.89 kcal/mol
-----------------------------------------------------------------------
Total thermal energy                   -958.48366562 Eh


Summary of corrections to the electronic energy:
(perhaps to be used in another calculation)
Total thermal correction                  0.00343302 Eh       2.15 kcal/mol
Non-thermal (ZPE) correction              0.00400496 Eh       2.51 kcal/mol
-----------------------------------------------------------------------
Total correction                          0.00743798 Eh       4.67 kcal/mol


--------
ENTHALPY
--------

The enthalpy is H = U + kB*T
                kB is Boltzmann's constant
Total free energy                 ...   -958.48366562 Eh 
Thermal Enthalpy correction       ...      0.00094421 Eh       0.59 kcal/mol
-----------------------------------------------------------------------
Total Enthalpy                    ...   -958.48272141 Eh


Note: Rotational entropy computed according to Herzberg 
Infrared and Raman Spectra, Chapter V,1, Van Nostrand Reinhold, 1945 
Point Group:  Cs, Symmetry Number:   1  
Rotational constants in cm-1:     1.627173     0.120208     0.111938 

Vibrational entropy computed according to the QRRHO of S. Grimme
Chem.Eur.J. 2012 18 9955


-------
ENTROPY
-------

The entropy contributions are T*S = T*(S(el)+S(vib)+S(rot)+S(trans))
     S(el)   - electronic entropy
     S(vib)  - vibrational entropy
     S(rot)  - rotational entropy
     S(trans)- translational entropy
The entropies will be listed as mutliplied by the temperature to get
units of energy

Electronic entropy                ...      0.00000000 Eh      0.00 kcal/mol
Vibrational entropy               ...      0.00088103 Eh      0.55 kcal/mol
Rotational entropy                ...      0.01131490 Eh      7.10 kcal/mol
Translational entropy             ...      0.01860593 Eh     11.68 kcal/mol
-----------------------------------------------------------------------
Final entropy term                ...      0.03080186 Eh     19.33 kcal/mol

In case the symmetry of your molecule has not been determined correctly
or in case you have a reason to use a different symmetry number we print 
out the resulting rotational entropy values for sn=1,12 :
 --------------------------------------------------------
|  sn= 1 | S(rot)=       0.01131490 Eh      7.10 kcal/mol|
|  sn= 2 | S(rot)=       0.01066044 Eh      6.69 kcal/mol|
|  sn= 3 | S(rot)=       0.01027761 Eh      6.45 kcal/mol|
|  sn= 4 | S(rot)=       0.01000599 Eh      6.28 kcal/mol|
|  sn= 5 | S(rot)=       0.00979530 Eh      6.15 kcal/mol|
|  sn= 6 | S(rot)=       0.00962316 Eh      6.04 kcal/mol|
|  sn= 7 | S(rot)=       0.00947761 Eh      5.95 kcal/mol|
|  sn= 8 | S(rot)=       0.00935153 Eh      5.87 kcal/mol|
|  sn= 9 | S(rot)=       0.00924032 Eh      5.80 kcal/mol|
|  sn=10 | S(rot)=       0.00914084 Eh      5.74 kcal/mol|
|  sn=11 | S(rot)=       0.00905085 Eh      5.68 kcal/mol|
|  sn=12 | S(rot)=       0.00896870 Eh      5.63 kcal/mol|
 --------------------------------------------------------


-------------------
GIBBS FREE ENERGY
-------------------

The Gibbs free energy is G = H - T*S

Total enthalpy                    ...   -958.48272141 Eh 
Total entropy correction          ...     -0.03080186 Eh    -19.33 kcal/mol
-----------------------------------------------------------------------
Final Gibbs free energy         ...   -958.51352327 Eh

For completeness - the Gibbs free energy minus the electronic energy
G-E(el)                           ...     -0.02241967 Eh    -14.07 kcal/mol


Total Time for Numerical Frequencies  :       203.502 sec

Timings for individual modules:

Sum of individual times         ...       43.908 sec (=   0.732 min)
GTO integral calculation        ...        5.023 sec (=   0.084 min)  11.4 %
SCF iterations                  ...       24.506 sec (=   0.408 min)  55.8 %
SCF Gradient evaluation         ...       14.213 sec (=   0.237 min)  32.4 %
Geometry relaxation             ...        0.165 sec (=   0.003 min)   0.4 %
                             ****ORCA TERMINATED NORMALLY****
TOTAL RUN TIME: 0 days 0 hours 4 minutes 2 seconds 791 msec
