
                                 *****************
                                 * O   R   C   A *
                                 *****************

           --- An Ab Initio, DFT and Semiempirical electronic structure package ---

                  #######################################################
                  #                        -***-                        #
                  #          Department of theory and spectroscopy      #
                  #               Directorship: Frank Neese             #
                  #        Max Planck Institute fuer Kohlenforschung    #
                  #                Kaiser Wilhelm Platz 1               #
                  #                 D-45470 Muelheim/Ruhr               #
                  #                      Germany                        #
                  #                                                     #
                  #                  All rights reserved                #
                  #                        -***-                        #
                  #######################################################


                         Program Version 4.2.0 -  RELEASE  -


 With contributions from (in alphabetic order):
   Daniel Aravena         : Magnetic Suceptibility
   Michael Atanasov       : Ab Initio Ligand Field Theory (pilot matlab implementation)
   Alexander A. Auer      : GIAO ZORA, VPT2
   Ute Becker             : Parallelization
   Giovanni Bistoni       : ED, misc. LED, open-shell LED, HFLED
   Martin Brehm           : Molecular dynamics
   Dmytro Bykov           : SCF Hessian
   Vijay G. Chilkuri      : MRCI spin determinant printing, contributions to CSF-ICE
   Dipayan Datta          : RHF DLPNO-CCSD density
   Achintya Kumar Dutta   : EOM-CC, STEOM-CC
   Dmitry Ganyushin       : Spin-Orbit,Spin-Spin,Magnetic field MRCI
   Miquel Garcia          : C-PCM Hessian, Gaussian charge scheme
   Yang Guo               : DLPNO-NEVPT2, CIM, IAO-localization
   Andreas Hansen         : Spin unrestricted coupled pair/coupled cluster methods
   Benjamin Helmich-Paris : CASSCF linear response (MC-RPA)
   Lee Huntington         : MR-EOM, pCC
   Robert Izsak           : Overlap fitted RIJCOSX, COSX-SCS-MP3, EOM
   Christian Kollmar      : KDIIS, OOCD, Brueckner-CCSD(T), CCSD density
   Simone Kossmann        : Meta GGA functionals, TD-DFT gradient, OOMP2, MP2 Hessian
   Martin Krupicka        : AUTO-CI
   Lucas Lang             : DCDCAS
   Dagmar Lenk            : GEPOL surface, SMD
   Dimitrios Liakos       : Extrapolation schemes; Compound Job, initial MDCI parallelization
   Dimitrios Manganas     : Further ROCIS development; embedding schemes
   Dimitrios Pantazis     : SARC Basis sets
   Taras Petrenko         : DFT Hessian,TD-DFT gradient, ASA, ECA, R-Raman, ABS, FL, XAS/XES, NRVS
   Peter Pinski           : DLPNO-MP2, DLPNO-MP2 Gradient
   Christoph Reimann      : Effective Core Potentials
   Marius Retegan         : Local ZFS, SOC
   Christoph Riplinger    : Optimizer, TS searches, QM/MM, DLPNO-CCSD(T), (RO)-DLPNO pert. Triples
   Tobias Risthaus        : Range-separated hybrids, TD-DFT gradient, RPA, STAB
   Michael Roemelt        : Original ROCIS implementation
   Masaaki Saitow         : Open-shell DLPNO-CCSD energy and density
   Barbara Sandhoefer     : DKH picture change effects
   Avijit Sen             : IP-ROCIS
   Kantharuban Sivalingam : CASSCF convergence, NEVPT2, FIC-MRCI
   Bernardo de Souza      : ESD, SOC TD-DFT
   Georgi Stoychev        : AutoAux, RI-MP2 NMR
   Willem Van den Heuvel  : Paramagnetic NMR
   Boris Wezisla          : Elementary symmetry handling
   Frank Wennmohs         : Technical directorship


 We gratefully acknowledge several colleagues who have allowed us to
 interface, adapt or use parts of their codes:
   Stefan Grimme, W. Hujo, H. Kruse,             : VdW corrections, initial TS optimization,
                  C. Bannwarth                     DFT functionals, gCP, sTDA/sTD-DF
   Ed Valeev, F. Pavosevic, A. Kumar             : LibInt (2-el integral package), F12 methods
   Garnet Chan, S. Sharma, J. Yang, R. Olivares  : DMRG
   Ulf Ekstrom                                   : XCFun DFT Library
   Mihaly Kallay                                 : mrcc  (arbitrary order and MRCC methods)
   Andreas Klamt, Michael Diedenhofen            : otool_cosmo (COSMO solvation model)
   Jiri Pittner, Ondrej Demel                    : Mk-CCSD
   Frank Weinhold                                : gennbo (NPA and NBO analysis)
   Christopher J. Cramer and Donald G. Truhlar   : smd solvation model
   Lars Goerigk                                  : TD-DFT with DH, B97 family of functionals
   V. Asgeirsson, H. Jonsson                     : NEB implementation
   FAccTs GmbH                                   : IRC, NEB, NEB-TS, Multilevel, MM, QM/MM, CI optimization
   S Lehtola, MJT Oliveira, MAL Marques          : LibXC Library


 Your calculation uses the libint2 library for the computation of 2-el integrals
 For citations please refer to: http://libint.valeyev.net

 Your ORCA version has been built with support for libXC version: 4.2.3
 For citations please refer to: https://tddft.org/programs/libxc/

 This ORCA versions uses:
   CBLAS   interface :  Fast vector & matrix operations
   LAPACKE interface :  Fast linear algebra routines
   SCALAPACK package :  Parallel linear algebra routines


Your calculation utilizes the atom-pairwise dispersion correction
with the Becke-Johnson damping scheme (D3BJ)
Cite in your paper:
S.Grimme, S.Ehrlich, L.Goerigk, J Comput Chem, (2011), 32, 1456–1465 
S.Grimme, J.Antony, S.Ehrlich and H.Krieg, J.Chem.Phys., 132, (2010), 154104 
   

----- Orbital basis set information -----
Your calculation utilizes the basis: aug-cc-pV(T+d)Z 
             Al - Ar: T.H. Dunning, Jr., K. A. Peterson and A. K. Wilson, J. Chem. Phys.
                      114, 9244 (2001)

----- AuxJK basis set information -----
Your calculation utilizes the auxiliary basis: def2/JK
   H-Ba, Hf-Rn: F. Weigend, J. Comput. Chem. 29, 167 (2008).

================================================================================
                                        WARNINGS
                       Please study these warnings very carefully!
================================================================================


WARNING: Geometry Optimization
  ===> : Switching off AutoStart
         For restart on a previous wavefunction, please use MOREAD

INFO   : the flag for use of LIBINT has been found!

================================================================================
                                       INPUT FILE
================================================================================
NAME = 14_F2.in
|  1> #
|  2> # 14_F2 tpssh/aug-cc-pvt(+d)z
|  3> #
|  4> ! tpssh d3bj aug-cc-pvt(+d)z def2/jk opt xyzfile numfreq
|  5> 
|  6> *xyz 0 1
|  7> F           -0.000000102         -0.000000195         -0.694208668
|  8> F            0.000000102          0.000000195          0.694208668
|  9> *
| 10> 
| 11> %pal
| 12> nprocs 24
| 13> end
| 14> 
| 15> 
| 16>                          ****END OF INPUT****
================================================================================

                       *****************************
                       * Geometry Optimization Run *
                       *****************************

Geometry optimization settings:
Update method            Update   .... BFGS
Choice of coordinates    CoordSys .... Z-matrix Internals
Initial Hessian          InHess   .... Almoef's Model

Convergence Tolerances:
Energy Change            TolE     ....  5.0000e-06 Eh
Max. Gradient            TolMAXG  ....  3.0000e-04 Eh/bohr
RMS Gradient             TolRMSG  ....  1.0000e-04 Eh/bohr
Max. Displacement        TolMAXD  ....  4.0000e-03 bohr
RMS Displacement         TolRMSD  ....  2.0000e-03 bohr
Strict Convergence                ....  False
------------------------------------------------------------------------------
                        ORCA OPTIMIZATION COORDINATE SETUP
------------------------------------------------------------------------------

The optimization will be done in new redundant internal coordinates
Making redundant internal coordinates   ...  (new redundants) done
Evaluating the initial hessian          ...  (Almloef) done
Evaluating the coordinates              ...  done
Calculating the B-matrix                .... done
Calculating the G-matrix                .... done
Diagonalizing the G-matrix              .... done
The first mode is                       ....    0
The number of degrees of freedom        ....    1

    -----------------------------------------------------------------
                    Redundant Internal Coordinates


    -----------------------------------------------------------------
         Definition                    Initial Value    Approx d2E/dq
    -----------------------------------------------------------------
      1. B(F   1,F   0)                  1.3884         0.435231   
    -----------------------------------------------------------------

Number of atoms                         .... 2
Number of degrees of freedom            .... 1

         *************************************************************
         *                GEOMETRY OPTIMIZATION CYCLE   1            *
         *************************************************************
---------------------------------
CARTESIAN COORDINATES (ANGSTROEM)
---------------------------------
  F     -0.000000   -0.000000   -0.694209
  F      0.000000    0.000000    0.694209

----------------------------
CARTESIAN COORDINATES (A.U.)
----------------------------
  NO LB      ZA    FRAG     MASS         X           Y           Z
   0 F     9.0000    0    18.998   -0.000000   -0.000000   -1.311864
   1 F     9.0000    0    18.998    0.000000    0.000000    1.311864

--------------------------------
INTERNAL COORDINATES (ANGSTROEM)
--------------------------------
 F      0   0   0     0.000000000000     0.00000000     0.00000000
 F      1   0   0     1.388417336000     0.00000000     0.00000000

---------------------------
INTERNAL COORDINATES (A.U.)
---------------------------
 F      0   0   0     0.000000000000     0.00000000     0.00000000
 F      1   0   0     2.623728524629     0.00000000     0.00000000

---------------------
BASIS SET INFORMATION
---------------------
There are 1 groups of distinct atoms

 Group   1 Type F   : 19s6p3d2f contracted to 5s4p3d2f pattern {88111/3111/111/11}

Atom   0F    basis set group =>   1
Atom   1F    basis set group =>   1
----------------------------------
AUXILIARY/JK BASIS SET INFORMATION
----------------------------------
There are 1 groups of distinct atoms

 Group   1 Type F   : 14s10p6d2f1g contracted to 10s8p4d2f1g pattern {5111111111/31111111/3111/11/1}

Atom   0F    basis set group =>   1
Atom   1F    basis set group =>   1


           ************************************************************
           *        Program running with 24 parallel MPI-processes    *
           *              working on a common directory               *
           ************************************************************
------------------------------------------------------------------------------
                           ORCA GTO INTEGRAL CALCULATION
------------------------------------------------------------------------------

                         BASIS SET STATISTICS AND STARTUP INFO

 # of primitive gaussian shells          ...   60
 # of primitive gaussian functions       ...  132
 # of contracted shells                  ...   28
 # of contracted basis functions         ...   92
 Highest angular momentum                ...    3
 Maximum contraction depth               ...    8
 Integral package used                   ... LIBINT
 Integral threshhold            Thresh   ...  2.500e-11
 Primitive cut-off              TCut     ...  2.500e-12


------------------------------ INTEGRAL EVALUATION ----------------------------


 * One electron integrals 
 Pre-screening matrix                    ... done
 Shell pair data                         ... done (   0.000 sec)



           ************************************************************
           *        Program running with 24 parallel MPI-processes    *
           *              working on a common directory               *
           ************************************************************
-------------------------------------------------------------------------------
                                 ORCA SCF
-------------------------------------------------------------------------------

------------
SCF SETTINGS
------------
Hamiltonian:
 Density Functional     Method          .... DFT(GTOs)
 Exchange Functional    Exchange        .... TPSS
 Correlation Functional Correlation     .... TPSS
 LDA part of GGA corr.  LDAOpt          .... PW91-LDA
 Gradients option       PostSCFGGA      .... off
 Hybrid DFT is turned on
   Fraction HF Exchange ScalHFX         ....  0.100000
   Scaling of DF-GGA-X  ScalDFX         ....  0.900000
   Scaling of DF-GGA-C  ScalDFC         ....  1.000000
   Scaling of DF-LDA-C  ScalLDAC        ....  1.000000
   Perturbative correction              ....  0.000000
   Density functional embedding theory  .... OFF
   NL short-range parameter             ....  5.200000


General Settings:
 Integral files         IntName         .... 14_F2
 Hartree-Fock type      HFTyp           .... RHF
 Total Charge           Charge          ....    0
 Multiplicity           Mult            ....    1
 Number of Electrons    NEL             ....   18
 Basis Dimension        Dim             ....   92
 Nuclear Repulsion      ENuc            ....     30.8720964230 Eh

Convergence Acceleration:
 DIIS                   CNVDIIS         .... on
   Start iteration      DIISMaxIt       ....    12
   Startup error        DIISStart       ....  0.200000
   # of expansion vecs  DIISMaxEq       ....     5
   Bias factor          DIISBfac        ....   1.050
   Max. coefficient     DIISMaxC        ....  10.000
 Newton-Raphson         CNVNR           .... off
 SOSCF                  CNVSOSCF        .... on
   Start iteration      SOSCFMaxIt      ....   150
   Startup grad/error   SOSCFStart      ....  0.003300
 Level Shifting         CNVShift        .... on
   Level shift para.    LevelShift      ....    0.2500
   Turn off err/grad.   ShiftErr        ....    0.0010
 Zerner damping         CNVZerner       .... off
 Static damping         CNVDamp         .... on
   Fraction old density DampFac         ....    0.7000
   Max. Damping (<1)    DampMax         ....    0.9800
   Min. Damping (>=0)   DampMin         ....    0.0000
   Turn off err/grad.   DampErr         ....    0.1000
 Fernandez-Rico         CNVRico         .... off

SCF Procedure:
 Maximum # iterations   MaxIter         ....   125
 SCF integral mode      SCFMode         .... Direct
   Integral package                     .... LIBINT
 Reset frequency        DirectResetFreq ....    20
 Integral Threshold     Thresh          ....  2.500e-11 Eh
 Primitive CutOff       TCut            ....  2.500e-12 Eh

Convergence Tolerance:
 Convergence Check Mode ConvCheckMode   .... Total+1el-Energy
 Convergence forced     ConvForced      .... 0
 Energy Change          TolE            ....  1.000e-08 Eh
 1-El. energy change                    ....  1.000e-05 Eh
 Orbital Gradient       TolG            ....  1.000e-05
 Orbital Rotation angle TolX            ....  1.000e-05
 DIIS Error             TolErr          ....  5.000e-07


Diagonalization of the overlap matrix:
Smallest eigenvalue                        ... 7.560e-04
Time for diagonalization                   ...    0.002 sec
Threshold for overlap eigenvalues          ... 1.000e-08
Number of eigenvalues below threshold      ... 0
Time for construction of square roots      ...    0.001 sec
Total time needed                          ...    0.003 sec

-------------------
DFT GRID GENERATION
-------------------

General Integration Accuracy     IntAcc      ...  4.340
Radial Grid Type                 RadialGrid  ... Gauss-Chebyshev
Angular Grid (max. acc.)         AngularGrid ... Lebedev-110
Angular grid pruning method      GridPruning ... 3 (G Style)
Weight generation scheme         WeightScheme... Becke
Basis function cutoff            BFCut       ...    1.0000e-11
Integration weight cutoff        WCut        ...    1.0000e-14
Grids for H and He will be reduced by one unit

# of grid points (after initial pruning)     ...   3480 (   0.0 sec)
# of grid points (after weights+screening)   ...   3456 (   0.0 sec)
nearest neighbour list constructed           ...    0.0 sec
Grid point re-assignment to atoms done       ...    0.0 sec
Grid point division into batches done        ...    0.0 sec
Reduced shell lists constructed in    0.0 sec

Total number of grid points                  ...     3456
Total number of batches                      ...       56
Average number of points per batch           ...       61
Average number of grid points per atom       ...     1728
Average number of shells per batch           ...    13.75 (49.11%)
Average number of basis functions per batch  ...    43.75 (47.55%)
Average number of large shells per batch     ...     9.25 (67.27%)
Average number of large basis fcns per batch ...    31.25 (71.43%)
Maximum spatial batch extension              ...  15.77, 25.65, 13.96 au
Average spatial batch extension              ...   0.77,  1.17,  0.75 au

Time for grid setup =    0.017 sec

------------------------------
INITIAL GUESS: MODEL POTENTIAL
------------------------------
Loading Hartree-Fock densities                     ... done
Calculating cut-offs                               ... done
Setting up the integral package                    ... done
Initializing the effective Hamiltonian             ... done
Starting the Coulomb interaction                   ... done (   0.0 sec)
Reading the grid                                   ... done
Mapping shells                                     ... done
Starting the XC term evaluation                    ... done (   0.0 sec)
  promolecular density results
     # of electrons  =     17.999923039
     EX              =    -19.916009784
     EC              =     -0.619136866
     EX+EC           =    -20.535146650
Transforming the Hamiltonian                       ... done (   0.0 sec)
Diagonalizing the Hamiltonian                      ... done (   0.0 sec)
Back transforming the eigenvectors                 ... done (   0.0 sec)
Now organizing SCF variables                       ... done
                      ------------------
                      INITIAL GUESS DONE (   0.1 sec)
                      ------------------
--------------
SCF ITERATIONS
--------------
ITER       Energy         Delta-E        Max-DP      RMS-DP      [F,P]     Damp
               ***  Starting incremental Fock matrix formation  ***
  0   -199.5759064647   0.000000000000 0.00629237  0.00031967  0.0689977 0.7000
  1   -199.5796963764  -0.003789911766 0.00424906  0.00023845  0.0380719 0.7000
                               ***Turning on DIIS***
  2   -199.5817230738  -0.002026697372 0.00836761  0.00048470  0.0220752 0.0000
  3   -199.5853384168  -0.003615342996 0.00280260  0.00014932  0.0137953 0.0000
                      *** Initiating the SOSCF procedure ***
                           *** Shutting down DIIS ***
                      *** Re-Reading the Fockian *** 
                      *** Removing any level shift *** 
ITER      Energy       Delta-E        Grad      Rot      Max-DP    RMS-DP
  4   -199.58567955  -0.0003411372  0.000950  0.000950  0.001119  0.000039
               *** Restarting incremental Fock matrix formation ***
  5   -199.58568750  -0.0000079464  0.000397  0.000214  0.000392  0.000017
  6   -199.58568770  -0.0000001972  0.000298  0.000115  0.000159  0.000008
  7   -199.58568832  -0.0000006268  0.000041  0.000044  0.000021  0.000001
  8   -199.58568833  -0.0000000031  0.000028  0.000018  0.000009  0.000000
                 **** Energy Check signals convergence ****
              ***Rediagonalizing the Fockian in SOSCF/NRSCF***

               *****************************************************
               *                     SUCCESS                       *
               *           SCF CONVERGED AFTER   9 CYCLES          *
               *****************************************************

Setting up the final grid:

General Integration Accuracy     IntAcc      ...  4.670
Radial Grid Type                 RadialGrid  ... Gauss-Chebyshev
Angular Grid (max. acc.)         AngularGrid ... Lebedev-302
Angular grid pruning method      GridPruning ... 3 (G Style)
Weight generation scheme         WeightScheme... Becke
Basis function cutoff            BFCut       ...    1.0000e-11
Integration weight cutoff        WCut        ...    1.0000e-14
Grids for H and He will be reduced by one unit

# of grid points (after initial pruning)     ...  12544 (   0.0 sec)
# of grid points (after weights+screening)   ...  12518 (   0.0 sec)
nearest neighbour list constructed           ...    0.0 sec
Grid point re-assignment to atoms done       ...    0.0 sec
Grid point division into batches done        ...    0.1 sec
Reduced shell lists constructed in    0.1 sec

Total number of grid points                  ...    12518
Total number of batches                      ...      196
Average number of points per batch           ...       63
Average number of grid points per atom       ...     6259
Average number of shells per batch           ...     5.40 (19.29%)
Average number of basis functions per batch  ...    13.80 (15.00%)
Average number of large shells per batch     ...     3.50 (64.81%)
Average number of large basis fcns per batch ...     7.10 (51.45%)
Maximum spatial batch extension              ...  19.94, 19.94, 11.40 au
Average spatial batch extension              ...   0.68,  0.67,  0.45 au

Final grid set up in    0.1 sec
Final integration                            ... done (   0.0 sec)
Change in XC energy                          ...    -0.000497937
Integrated number of electrons               ...    18.000004436
Previous integrated no of electrons          ...    17.999861949

----------------
TOTAL SCF ENERGY
----------------

Total Energy       :         -199.58618627 Eh           -5431.01624 eV

Components:
Nuclear Repulsion  :           30.87209642 Eh             840.07245 eV
Electronic Energy  :         -230.45828269 Eh           -6271.08869 eV
One Electron Energy:         -339.59809120 Eh           -9240.93386 eV
Two Electron Energy:          109.13980851 Eh            2969.84517 eV

Virial components:
Potential Energy   :         -398.34128875 Eh          -10839.41753 eV
Kinetic Energy     :          198.75510248 Eh            5408.40130 eV
Virial Ratio       :            2.00418145


DFT components:
N(Alpha)           :        9.000002218156 electrons
N(Beta)            :        9.000002218156 electrons
N(Total)           :       18.000004436311 electrons
E(X)               :      -18.150614331312 Eh       
E(C)               :       -0.620181055160 Eh       
E(XC)              :      -18.770795386472 Eh       
DFET-embed. en.    :        0.000000000000 Eh       

---------------
SCF CONVERGENCE
---------------

  Last Energy change         ...   -2.8525e-09  Tolerance :   1.0000e-08
  Last MAX-Density change    ...    5.6094e-08  Tolerance :   1.0000e-07
  Last RMS-Density change    ...    2.7150e-09  Tolerance :   5.0000e-09
  Last Orbital Gradient      ...    1.3291e-07  Tolerance :   1.0000e-05
  Last Orbital Rotation      ...    3.9174e-08  Tolerance :   1.0000e-05

             **** THE GBW FILE WAS UPDATED (14_F2.gbw) ****
             **** DENSITY FILE WAS UPDATED (14_F2.scfp) ****
             **** ENERGY FILE WAS UPDATED (14_F2.en.tmp) ****
             **** THE GBW FILE WAS UPDATED (14_F2.gbw) ****
             **** DENSITY FILE WAS UPDATED (14_F2.scfp) ****
----------------
ORBITAL ENERGIES
----------------

  NO   OCC          E(Eh)            E(eV) 
   0   2.0000     -24.712818      -672.4700 
   1   2.0000     -24.712799      -672.4695 
   2   2.0000      -1.335554       -36.3423 
   3   2.0000      -1.085141       -29.5282 
   4   2.0000      -0.592004       -16.1092 
   5   2.0000      -0.519969       -14.1491 
   6   2.0000      -0.519969       -14.1491 
   7   2.0000      -0.384219       -10.4551 
   8   2.0000      -0.384219       -10.4551 
   9   0.0000      -0.163311        -4.4439 
  10   0.0000       0.087360         2.3772 
  11   0.0000       0.090171         2.4537 
  12   0.0000       0.121118         3.2958 
  13   0.0000       0.121118         3.2958 
  14   0.0000       0.183802         5.0015 
  15   0.0000       0.183802         5.0015 
  16   0.0000       0.185518         5.0482 
  17   0.0000       0.342857         9.3296 
  18   0.0000       0.612882        16.6774 
  19   0.0000       0.613952        16.7065 
  20   0.0000       0.755954        20.5705 
  21   0.0000       0.755954        20.5705 
  22   0.0000       0.790221        21.5030 
  23   0.0000       0.860289        23.4097 
  24   0.0000       0.860380        23.4121 
  25   0.0000       0.860929        23.4271 
  26   0.0000       0.869597        23.6629 
  27   0.0000       0.869597        23.6629 
  28   0.0000       0.886053        24.1107 
  29   0.0000       0.886053        24.1107 
  30   0.0000       1.026907        27.9436 
  31   0.0000       1.169036        31.8111 
  32   0.0000       1.276551        34.7367 
  33   0.0000       1.276551        34.7367 
  34   0.0000       1.503705        40.9179 
  35   0.0000       2.155392        58.6512 
  36   0.0000       2.155392        58.6512 
  37   0.0000       2.285246        62.1847 
  38   0.0000       2.285944        62.2037 
  39   0.0000       2.337871        63.6167 
  40   0.0000       2.460349        66.9495 
  41   0.0000       2.460349        66.9495 
  42   0.0000       2.539341        69.0990 
  43   0.0000       2.540566        69.1323 
  44   0.0000       2.564085        69.7723 
  45   0.0000       2.565147        69.8012 
  46   0.0000       2.658192        72.3331 
  47   0.0000       2.704262        73.5867 
  48   0.0000       2.704262        73.5867 
  49   0.0000       2.753981        74.9396 
  50   0.0000       2.753981        74.9396 
  51   0.0000       2.946913        80.1896 
  52   0.0000       3.083702        83.9118 
  53   0.0000       3.083702        83.9118 
  54   0.0000       3.267635        88.9169 
  55   0.0000       3.267696        88.9185 
  56   0.0000       3.432039        93.3905 
  57   0.0000       3.508038        95.4586 
  58   0.0000       3.894089       105.9635 
  59   0.0000       3.894089       105.9635 
  60   0.0000       4.622776       125.7921 
  61   0.0000       4.622776       125.7921 
  62   0.0000       4.820597       131.1751 
  63   0.0000       4.832465       131.4981 
  64   0.0000       4.832465       131.4981 
  65   0.0000       6.315648       171.8575 
  66   0.0000       8.009466       217.9487 
  67   0.0000       8.246029       224.3858 
  68   0.0000       8.246029       224.3858 
  69   0.0000       8.280410       225.3214 
  70   0.0000       8.281308       225.3458 
  71   0.0000       8.364904       227.6206 
  72   0.0000       8.364904       227.6206 
  73   0.0000       8.423636       229.2188 
  74   0.0000       8.423636       229.2188 
  75   0.0000       8.493629       231.1234 
  76   0.0000       8.494089       231.1359 
  77   0.0000       8.572619       233.2728 
  78   0.0000       8.574857       233.3337 
  79   0.0000       8.576174       233.3696 
  80   0.0000       8.576174       233.3696 
  81   0.0000       8.677937       236.1387 
  82   0.0000       8.697830       236.6800 
  83   0.0000       8.700593       236.7552 
  84   0.0000       8.749024       238.0731 
  85   0.0000       8.749024       238.0731 
  86   0.0000       8.943834       243.3741 
  87   0.0000       9.109516       247.8825 
  88   0.0000       9.109516       247.8825 
  89   0.0000       9.783267       266.2162 
  90   0.0000      11.881594       323.3146 
  91   0.0000      14.812298       403.0631 

                    ********************************
                    * MULLIKEN POPULATION ANALYSIS *
                    ********************************

-----------------------
MULLIKEN ATOMIC CHARGES
-----------------------
   0 F :    0.000000
   1 F :   -0.000000
Sum of atomic charges:    0.0000000

--------------------------------
MULLIKEN REDUCED ORBITAL CHARGES
--------------------------------
  0 F s       :     4.012500  s :     4.012500
      pz      :     0.982314  p :     4.962776
      px      :     1.990231
      py      :     1.990231
      dz2     :     0.003398  d :     0.018501
      dxz     :     0.007552
      dyz     :     0.007552
      dx2y2   :     0.000000
      dxy     :     0.000000
      f0      :     0.001788  f :     0.006222
      f+1     :     0.002217
      f-1     :     0.002217
      f+2     :     0.000000
      f-2     :     0.000000
      f+3     :     0.000000
      f-3     :     0.000000
  1 F s       :     4.012500  s :     4.012500
      pz      :     0.982314  p :     4.962776
      px      :     1.990231
      py      :     1.990231
      dz2     :     0.003398  d :     0.018501
      dxz     :     0.007552
      dyz     :     0.007552
      dx2y2   :     0.000000
      dxy     :     0.000000
      f0      :     0.001788  f :     0.006222
      f+1     :     0.002217
      f-1     :     0.002217
      f+2     :     0.000000
      f-2     :     0.000000
      f+3     :     0.000000
      f-3     :     0.000000


                     *******************************
                     * LOEWDIN POPULATION ANALYSIS *
                     *******************************

----------------------
LOEWDIN ATOMIC CHARGES
----------------------
   0 F :   -0.000000
   1 F :    0.000000

-------------------------------
LOEWDIN REDUCED ORBITAL CHARGES
-------------------------------
  0 F s       :     3.709603  s :     3.709603
      pz      :     1.138565  p :     4.932951
      px      :     1.897193
      py      :     1.897193
      dz2     :     0.121968  d :     0.278805
      dxz     :     0.078419
      dyz     :     0.078419
      dx2y2   :     0.000000
      dxy     :     0.000000
      f0      :     0.029864  f :     0.078641
      f+1     :     0.024388
      f-1     :     0.024388
      f+2     :     0.000000
      f-2     :     0.000000
      f+3     :     0.000000
      f-3     :     0.000000
  1 F s       :     3.709603  s :     3.709603
      pz      :     1.138565  p :     4.932951
      px      :     1.897193
      py      :     1.897193
      dz2     :     0.121968  d :     0.278805
      dxz     :     0.078419
      dyz     :     0.078419
      dx2y2   :     0.000000
      dxy     :     0.000000
      f0      :     0.029864  f :     0.078641
      f+1     :     0.024388
      f-1     :     0.024388
      f+2     :     0.000000
      f-2     :     0.000000
      f+3     :     0.000000
      f-3     :     0.000000


                      *****************************
                      * MAYER POPULATION ANALYSIS *
                      *****************************

  NA   - Mulliken gross atomic population
  ZA   - Total nuclear charge
  QA   - Mulliken gross atomic charge
  VA   - Mayer's total valence
  BVA  - Mayer's bonded valence
  FA   - Mayer's free valence

  ATOM       NA         ZA         QA         VA         BVA        FA
  0 F      9.0000     9.0000     0.0000     0.8234     0.8234     0.0000
  1 F      9.0000     9.0000    -0.0000     0.8234     0.8234     0.0000

  Mayer bond orders larger than 0.100000
B(  0-F ,  1-F ) :   0.8234 

-------
TIMINGS
-------

Total SCF time: 0 days 0 hours 0 min 1 sec 

Total time                  ....       1.551 sec
Sum of individual times     ....       1.358 sec  ( 87.6%)

Fock matrix formation       ....       1.137 sec  ( 73.3%)
  XC integration            ....       0.080 sec  (  7.0% of F)
    Basis function eval.    ....       0.006 sec  (  6.9% of XC)
    Density eval.           ....       0.008 sec  (  9.5% of XC)
    XC-Functional eval.     ....       0.004 sec  (  5.4% of XC)
    XC-Potential eval.      ....       0.015 sec  ( 19.1% of XC)
Diagonalization             ....       0.006 sec  (  0.4%)
Density matrix formation    ....       0.002 sec  (  0.2%)
Population analysis         ....       0.003 sec  (  0.2%)
Initial guess               ....       0.107 sec  (  6.9%)
Orbital Transformation      ....       0.000 sec  (  0.0%)
Orbital Orthonormalization  ....       0.000 sec  (  0.0%)
DIIS solution               ....       0.002 sec  (  0.1%)
SOSCF solution              ....       0.003 sec  (  0.2%)
Grid generation             ....       0.098 sec  (  6.3%)


-------------------------------------------------------------------------------
                          DFT DISPERSION CORRECTION                            
                                                                               
                              DFTD3 V3.1  Rev 1                                
                          USING Becke-Johnson damping                          
-------------------------------------------------------------------------------
The TPSSH functional is recognized
Active option DFTDOPT                   ...         4   

molecular C6(AA) [au] = 28.736237 


            DFT-D V3
 parameters
 s6 scaling factor         :     1.0000 
 a1 scaling factor         :     0.4529 
 s8 scaling factor         :     2.2382 
 a2 scaling factor         :     4.6550 
 ad hoc parameters k1-k3   :    16.0000     1.3333    -4.0000 

 Edisp/kcal,au: -0.110269972961  -0.000175726369 
 E6   /kcal   :  -0.057983149 
 E8   /kcal   :  -0.052286824 
 % E8         :  47.417100706 

-------------------------   ----------------
Dispersion correction           -0.000175726
-------------------------   ----------------


-------------------------   --------------------
FINAL SINGLE POINT ENERGY      -199.586361993434
-------------------------   --------------------



           ************************************************************
           *        Program running with 24 parallel MPI-processes    *
           *              working on a common directory               *
           ************************************************************
------------------------------------------------------------------------------
                         ORCA SCF GRADIENT CALCULATION
------------------------------------------------------------------------------

Gradient of the Kohn-Sham DFT energy:
Kohn-Sham wavefunction type      ... RKS
Hartree-Fock exchange scaling    ...    0.100
Number of operators              ...    1
Number of atoms                  ...    2
Basis set dimensions             ...   92
Integral neglect threshold       ... 2.5e-11
Integral primitive cutoff        ... 2.5e-12

Nuclear repulsion gradient       ... done
One Electron Gradient            ... done
Pre-screening matrix             ... done
Starting the two electron gradient:
Two electron gradient done
Exchange-correlation gradient    ... done
Dispersion correction            ... done

------------------
CARTESIAN GRADIENT
------------------

   1   F   :   -0.000000006   -0.000000003    0.007762023
   2   F   :    0.000000006    0.000000003   -0.007762022

Difference to translation invariance:
           :   -0.0000000004    0.0000000007    0.0000000005

Norm of the cartesian gradient     ...    0.0109771576
RMS gradient                       ...    0.0044814058
MAX gradient                       ...    0.0077620228

-------
TIMINGS
-------

Total SCF gradient time            ...        0.396 sec

One electron gradient       ....       0.017 sec  (  4.3%)
Prescreening matrices       ....       0.015 sec  (  3.7%)
Two electron gradient       ....       0.151 sec  ( 38.0%)
XC gradient                 ....       0.012 sec  (  3.0%)
------------------------------------------------------------------------------
                         ORCA GEOMETRY RELAXATION STEP
------------------------------------------------------------------------------

Reading the OPT-File                    .... done
Getting information on internals        .... done
Copying old internal coords+grads       .... done
Making the new internal coordinates     .... (new redundants).... done
Validating the new internal coordinates .... (new redundants).... done
Calculating the B-matrix                .... done
Calculating the G,G- and P matrices     .... done
Transforming gradient to internals      .... done
Projecting the internal gradient        .... done
Number of atoms                         ....   2
Number of internal coordinates          ....   1
Current Energy                          ....  -199.586361993 Eh
Current gradient norm                   ....     0.010977158 Eh/bohr
Maximum allowed component of the step   ....  0.300
Current trust radius                    ....  0.300
Evaluating the initial hessian          ....  (Almloef) done
Projecting the Hessian                  .... done
Forming the augmented Hessian           .... done
Diagonalizing the augmented Hessian     .... done
Last element of RFO vector              ....  0.999841109
Lowest eigenvalues of augmented Hessian:
 -0.000138386
Length of the computed step             ....  0.017828585
The final length of the internal step   ....  0.017828585
Converting the step to cartesian space:
 Initial RMS(Int)=    0.0178285846
Transforming coordinates:
 Iter   0:  RMS(Cart)=    0.0051466691 RMS(Int)=    0.0178285846
 Iter   1:  RMS(Cart)=    0.0000000000 RMS(Int)=    0.0000000000
done
Storing new coordinates                 .... done

                                .--------------------.
          ----------------------|Geometry convergence|-------------------------
          Item                value                   Tolerance       Converged
          ---------------------------------------------------------------------
          RMS gradient        0.0077620226            0.0001000000      NO
          MAX gradient        0.0077620226            0.0003000000      NO
          RMS step            0.0178285846            0.0020000000      NO
          MAX step            0.0178285846            0.0040000000      NO
          ........................................................
          Max(Bonds)      0.0094      Max(Angles)    0.00
          Max(Dihed)        0.00      Max(Improp)    0.00
          ---------------------------------------------------------------------

The optimization has not yet converged - more geometry cycles are needed


    ---------------------------------------------------------------------------
                         Redundant Internal Coordinates
                            (Angstroem and degrees)

        Definition                    Value    dE/dq     Step     New-Value
    ----------------------------------------------------------------------------
     1. B(F   1,F   0)                1.3884 -0.007762  0.0094    1.3979   
    ----------------------------------------------------------------------------

         *************************************************************
         *                GEOMETRY OPTIMIZATION CYCLE   2            *
         *************************************************************
---------------------------------
CARTESIAN COORDINATES (ANGSTROEM)
---------------------------------
  F     -0.000000   -0.000000   -0.698926
  F      0.000000    0.000000    0.698926

----------------------------
CARTESIAN COORDINATES (A.U.)
----------------------------
  NO LB      ZA    FRAG     MASS         X           Y           Z
   0 F     9.0000    0    18.998   -0.000000   -0.000000   -1.320779
   1 F     9.0000    0    18.998    0.000000    0.000000    1.320779

--------------------------------
INTERNAL COORDINATES (ANGSTROEM)
--------------------------------
 F      0   0   0     0.000000000000     0.00000000     0.00000000
 F      1   0   0     1.397851816632     0.00000000     0.00000000

---------------------------
INTERNAL COORDINATES (A.U.)
---------------------------
 F      0   0   0     0.000000000000     0.00000000     0.00000000
 F      1   0   0     2.641557109239     0.00000000     0.00000000



           ************************************************************
           *        Program running with 24 parallel MPI-processes    *
           *              working on a common directory               *
           ************************************************************


           ************************************************************
           *        Program running with 24 parallel MPI-processes    *
           *              working on a common directory               *
           ************************************************************

Diagonalization of the overlap matrix:
Smallest eigenvalue                        ... 7.791e-04
Time for diagonalization                   ...    0.003 sec
Threshold for overlap eigenvalues          ... 1.000e-08
Number of eigenvalues below threshold      ... 0
Time for construction of square roots      ...    0.001 sec
Total time needed                          ...    0.005 sec

-------------------
DFT GRID GENERATION
-------------------

General Integration Accuracy     IntAcc      ...  4.340
Radial Grid Type                 RadialGrid  ... Gauss-Chebyshev
Angular Grid (max. acc.)         AngularGrid ... Lebedev-110
Angular grid pruning method      GridPruning ... 3 (G Style)
Weight generation scheme         WeightScheme... Becke
Basis function cutoff            BFCut       ...    1.0000e-11
Integration weight cutoff        WCut        ...    1.0000e-14
Grids for H and He will be reduced by one unit

# of grid points (after initial pruning)     ...   3480 (   0.0 sec)
# of grid points (after weights+screening)   ...   3456 (   0.0 sec)
nearest neighbour list constructed           ...    0.0 sec
Grid point re-assignment to atoms done       ...    0.0 sec
Grid point division into batches done        ...    0.0 sec
Reduced shell lists constructed in    0.0 sec

Total number of grid points                  ...     3456
Total number of batches                      ...       56
Average number of points per batch           ...       61
Average number of grid points per atom       ...     1728
Average number of shells per batch           ...    13.75 (49.11%)
Average number of basis functions per batch  ...    43.75 (47.55%)
Average number of large shells per batch     ...     9.25 (67.27%)
Average number of large basis fcns per batch ...    31.25 (71.43%)
Maximum spatial batch extension              ...  15.77, 25.65, 13.98 au
Average spatial batch extension              ...   0.77,  1.17,  0.75 au

Time for grid setup =    0.012 sec

--------------
SCF ITERATIONS
--------------
ITER       Energy         Delta-E        Max-DP      RMS-DP      [F,P]     Damp
               ***  Starting incremental Fock matrix formation  ***
                      *** Initiating the SOSCF procedure ***
                      *** Re-Reading the Fockian *** 
                      *** Removing any level shift *** 
ITER      Energy       Delta-E        Grad      Rot      Max-DP    RMS-DP
  0   -199.58574957 -199.5857495739  0.001729  0.001729  0.001807  0.000070
               *** Restarting incremental Fock matrix formation ***
  1   -199.58577910  -0.0000295276  0.000469  0.000511  0.000286  0.000013
  2   -199.58578026  -0.0000011630  0.000062  0.000040  0.000034  0.000001
  3   -199.58578027  -0.0000000097  0.000036  0.000017  0.000011  0.000001
  4   -199.58578028  -0.0000000095  0.000005  0.000004  0.000005  0.000000
  5   -199.58578028  -0.0000000000  0.000004  0.000002  0.000002  0.000000
                 **** Energy Check signals convergence ****
              ***Rediagonalizing the Fockian in SOSCF/NRSCF***

               *****************************************************
               *                     SUCCESS                       *
               *           SCF CONVERGED AFTER   6 CYCLES          *
               *****************************************************

Setting up the final grid:

General Integration Accuracy     IntAcc      ...  4.670
Radial Grid Type                 RadialGrid  ... Gauss-Chebyshev
Angular Grid (max. acc.)         AngularGrid ... Lebedev-302
Angular grid pruning method      GridPruning ... 3 (G Style)
Weight generation scheme         WeightScheme... Becke
Basis function cutoff            BFCut       ...    1.0000e-11
Integration weight cutoff        WCut        ...    1.0000e-14
Grids for H and He will be reduced by one unit

# of grid points (after initial pruning)     ...  12544 (   0.0 sec)
# of grid points (after weights+screening)   ...  12518 (   0.0 sec)
nearest neighbour list constructed           ...    0.0 sec
Grid point re-assignment to atoms done       ...    0.0 sec
Grid point division into batches done        ...    0.1 sec
Reduced shell lists constructed in    0.1 sec

Total number of grid points                  ...    12518
Total number of batches                      ...      196
Average number of points per batch           ...       63
Average number of grid points per atom       ...     6259
Average number of shells per batch           ...     5.40 (19.29%)
Average number of basis functions per batch  ...    13.80 (15.00%)
Average number of large shells per batch     ...     3.50 (64.81%)
Average number of large basis fcns per batch ...     7.10 (51.45%)
Maximum spatial batch extension              ...  19.94, 19.94, 11.41 au
Average spatial batch extension              ...   0.68,  0.67,  0.46 au

Final grid set up in    0.1 sec
Final integration                            ... done (   0.1 sec)
Change in XC energy                          ...    -0.000495416
Integrated number of electrons               ...    18.000004278
Previous integrated no of electrons          ...    17.999865105
Total Energy       :         -199.58627570 Eh           -5431.01867 eV
  Last Energy change         ...   -1.5694e-10  Tolerance :   1.0000e-08
  Last MAX-Density change    ...    5.3106e-09  Tolerance :   1.0000e-07
             **** THE GBW FILE WAS UPDATED (14_F2.gbw) ****
             **** DENSITY FILE WAS UPDATED (14_F2.scfp) ****
             **** ENERGY FILE WAS UPDATED (14_F2.en.tmp) ****
             **** THE GBW FILE WAS UPDATED (14_F2.gbw) ****
             **** DENSITY FILE WAS UPDATED (14_F2.scfp) ****
Total SCF time: 0 days 0 hours 0 min 1 sec 


-------------------------------------------------------------------------------
                          DFT DISPERSION CORRECTION                            
                                                                               
                              DFTD3 V3.1  Rev 1                                
                          USING Becke-Johnson damping                          
-------------------------------------------------------------------------------
-------------------------   ----------------
Dispersion correction           -0.000175740
-------------------------   ----------------


-------------------------   --------------------
FINAL SINGLE POINT ENERGY      -199.586451440704
-------------------------   --------------------



           ************************************************************
           *        Program running with 24 parallel MPI-processes    *
           *              working on a common directory               *
           ************************************************************
------------------------------------------------------------------------------
                         ORCA SCF GRADIENT CALCULATION
------------------------------------------------------------------------------

Gradient of the Kohn-Sham DFT energy:
Kohn-Sham wavefunction type      ... RKS
Hartree-Fock exchange scaling    ...    0.100
Number of operators              ...    1
Number of atoms                  ...    2
Basis set dimensions             ...   92
Integral neglect threshold       ... 2.5e-11
Integral primitive cutoff        ... 2.5e-12

Nuclear repulsion gradient       ... done
One Electron Gradient            ... done
Pre-screening matrix             ... done
Starting the two electron gradient:
Two electron gradient done
Exchange-correlation gradient    ... done
Dispersion correction            ... done

------------------
CARTESIAN GRADIENT
------------------

   1   F   :   -0.000000008   -0.000000007    0.000454989
   2   F   :    0.000000008    0.000000005   -0.000454990

Difference to translation invariance:
           :   -0.0000000000   -0.0000000015   -0.0000000003

Norm of the cartesian gradient     ...    0.0006434522
RMS gradient                       ...    0.0002626882
MAX gradient                       ...    0.0004549896

-------
TIMINGS
-------

Total SCF gradient time            ...        0.377 sec

One electron gradient       ....       0.006 sec  (  1.6%)
Prescreening matrices       ....       0.015 sec  (  4.0%)
Two electron gradient       ....       0.159 sec  ( 42.1%)
XC gradient                 ....       0.012 sec  (  3.2%)
------------------------------------------------------------------------------
                         ORCA GEOMETRY RELAXATION STEP
------------------------------------------------------------------------------

Reading the OPT-File                    .... done
Getting information on internals        .... done
Copying old internal coords+grads       .... done
Making the new internal coordinates     .... (new redundants).... done
Validating the new internal coordinates .... (new redundants).... done
Calculating the B-matrix                .... done
Calculating the G,G- and P matrices     .... done
Transforming gradient to internals      .... done
Projecting the internal gradient        .... done
Number of atoms                         ....   2
Number of internal coordinates          ....   1
Current Energy                          ....  -199.586451441 Eh
Current gradient norm                   ....     0.000643452 Eh/bohr
Maximum allowed component of the step   ....  0.300
Current trust radius                    ....  0.300
Updating the Hessian (BFGS)             .... done
Forming the augmented Hessian           .... done
Diagonalizing the augmented Hessian     .... done
Last element of RFO vector              ....  0.999999384
Lowest eigenvalues of augmented Hessian:
 -0.000000505
Length of the computed step             ....  0.001110137
The final length of the internal step   ....  0.001110137
Converting the step to cartesian space:
 Initial RMS(Int)=    0.0011101368
Transforming coordinates:
 Iter   0:  RMS(Cart)=    0.0003204689 RMS(Int)=    0.0011101368
 Iter   1:  RMS(Cart)=    0.0000000000 RMS(Int)=    0.0000000000
done
Storing new coordinates                 .... done

                                .--------------------.
          ----------------------|Geometry convergence|-------------------------
          Item                value                   Tolerance       Converged
          ---------------------------------------------------------------------
          Energy change      -0.0000894473            0.0000050000      NO
          RMS gradient        0.0004549894            0.0001000000      NO
          MAX gradient        0.0004549894            0.0003000000      NO
          RMS step            0.0011101368            0.0020000000      YES
          MAX step            0.0011101368            0.0040000000      YES
          ........................................................
          Max(Bonds)      0.0006      Max(Angles)    0.00
          Max(Dihed)        0.00      Max(Improp)    0.00
          ---------------------------------------------------------------------

The optimization has not yet converged - more geometry cycles are needed


    ---------------------------------------------------------------------------
                         Redundant Internal Coordinates
                            (Angstroem and degrees)

        Definition                    Value    dE/dq     Step     New-Value
    ----------------------------------------------------------------------------
     1. B(F   1,F   0)                1.3979 -0.000455  0.0006    1.3984   
    ----------------------------------------------------------------------------

         *************************************************************
         *                GEOMETRY OPTIMIZATION CYCLE   3            *
         *************************************************************
---------------------------------
CARTESIAN COORDINATES (ANGSTROEM)
---------------------------------
  F     -0.000000   -0.000000   -0.699220
  F      0.000000    0.000000    0.699220

----------------------------
CARTESIAN COORDINATES (A.U.)
----------------------------
  NO LB      ZA    FRAG     MASS         X           Y           Z
   0 F     9.0000    0    18.998   -0.000000   -0.000000   -1.321334
   1 F     9.0000    0    18.998    0.000000    0.000000    1.321334

--------------------------------
INTERNAL COORDINATES (ANGSTROEM)
--------------------------------
 F      0   0   0     0.000000000000     0.00000000     0.00000000
 F      1   0   0     1.398439275749     0.00000000     0.00000000

---------------------------
INTERNAL COORDINATES (A.U.)
---------------------------
 F      0   0   0     0.000000000000     0.00000000     0.00000000
 F      1   0   0     2.642667246085     0.00000000     0.00000000



           ************************************************************
           *        Program running with 24 parallel MPI-processes    *
           *              working on a common directory               *
           ************************************************************


           ************************************************************
           *        Program running with 24 parallel MPI-processes    *
           *              working on a common directory               *
           ************************************************************

Diagonalization of the overlap matrix:
Smallest eigenvalue                        ... 7.805e-04
Time for diagonalization                   ...    0.003 sec
Threshold for overlap eigenvalues          ... 1.000e-08
Number of eigenvalues below threshold      ... 0
Time for construction of square roots      ...    0.001 sec
Total time needed                          ...    0.004 sec

-------------------
DFT GRID GENERATION
-------------------

General Integration Accuracy     IntAcc      ...  4.340
Radial Grid Type                 RadialGrid  ... Gauss-Chebyshev
Angular Grid (max. acc.)         AngularGrid ... Lebedev-110
Angular grid pruning method      GridPruning ... 3 (G Style)
Weight generation scheme         WeightScheme... Becke
Basis function cutoff            BFCut       ...    1.0000e-11
Integration weight cutoff        WCut        ...    1.0000e-14
Grids for H and He will be reduced by one unit

# of grid points (after initial pruning)     ...   3480 (   0.0 sec)
# of grid points (after weights+screening)   ...   3456 (   0.0 sec)
nearest neighbour list constructed           ...    0.0 sec
Grid point re-assignment to atoms done       ...    0.0 sec
Grid point division into batches done        ...    0.0 sec
Reduced shell lists constructed in    0.0 sec

Total number of grid points                  ...     3456
Total number of batches                      ...       56
Average number of points per batch           ...       61
Average number of grid points per atom       ...     1728
Average number of shells per batch           ...    13.75 (49.11%)
Average number of basis functions per batch  ...    43.75 (47.55%)
Average number of large shells per batch     ...     9.25 (67.27%)
Average number of large basis fcns per batch ...    31.25 (71.43%)
Maximum spatial batch extension              ...  15.77, 25.65, 13.98 au
Average spatial batch extension              ...   0.77,  1.17,  0.75 au

Time for grid setup =    0.012 sec

--------------
SCF ITERATIONS
--------------
ITER       Energy         Delta-E        Max-DP      RMS-DP      [F,P]     Damp
               ***  Starting incremental Fock matrix formation  ***
                      *** Initiating the SOSCF procedure ***
                      *** Re-Reading the Fockian *** 
                      *** Removing any level shift *** 
ITER      Energy       Delta-E        Grad      Rot      Max-DP    RMS-DP
  0   -199.58578160 -199.5857815997  0.000106  0.000106  0.000111  0.000004
               *** Restarting incremental Fock matrix formation ***
  1   -199.58578171  -0.0000001118  0.000029  0.000032  0.000018  0.000001
  2   -199.58578172  -0.0000000044  0.000004  0.000003  0.000002  0.000000
                  ***Gradient check signals convergence***
              ***Rediagonalizing the Fockian in SOSCF/NRSCF***

               *****************************************************
               *                     SUCCESS                       *
               *           SCF CONVERGED AFTER   3 CYCLES          *
               *****************************************************

Setting up the final grid:

General Integration Accuracy     IntAcc      ...  4.670
Radial Grid Type                 RadialGrid  ... Gauss-Chebyshev
Angular Grid (max. acc.)         AngularGrid ... Lebedev-302
Angular grid pruning method      GridPruning ... 3 (G Style)
Weight generation scheme         WeightScheme... Becke
Basis function cutoff            BFCut       ...    1.0000e-11
Integration weight cutoff        WCut        ...    1.0000e-14
Grids for H and He will be reduced by one unit

# of grid points (after initial pruning)     ...  12544 (   0.0 sec)
# of grid points (after weights+screening)   ...  12518 (   0.0 sec)
nearest neighbour list constructed           ...    0.0 sec
Grid point re-assignment to atoms done       ...    0.0 sec
Grid point division into batches done        ...    0.1 sec
Reduced shell lists constructed in    0.1 sec

Total number of grid points                  ...    12518
Total number of batches                      ...      196
Average number of points per batch           ...       63
Average number of grid points per atom       ...     6259
Average number of shells per batch           ...     5.40 (19.29%)
Average number of basis functions per batch  ...    13.80 (15.00%)
Average number of large shells per batch     ...     3.50 (64.81%)
Average number of large basis fcns per batch ...     7.10 (51.45%)
Maximum spatial batch extension              ...  19.94, 19.94, 11.42 au
Average spatial batch extension              ...   0.67,  0.68,  0.46 au

Final grid set up in    0.1 sec
Final integration                            ... done (   0.0 sec)
Change in XC energy                          ...    -0.000495275
Integrated number of electrons               ...    18.000004267
Previous integrated no of electrons          ...    17.999865262
Total Energy       :         -199.58627699 Eh           -5431.01870 eV
  Last Energy change         ...    1.2278e-11  Tolerance :   1.0000e-08
  Last MAX-Density change    ...    6.9906e-07  Tolerance :   1.0000e-07
             **** THE GBW FILE WAS UPDATED (14_F2.gbw) ****
             **** DENSITY FILE WAS UPDATED (14_F2.scfp) ****
             **** ENERGY FILE WAS UPDATED (14_F2.en.tmp) ****
             **** THE GBW FILE WAS UPDATED (14_F2.gbw) ****
             **** DENSITY FILE WAS UPDATED (14_F2.scfp) ****
Total SCF time: 0 days 0 hours 0 min 0 sec 


-------------------------------------------------------------------------------
                          DFT DISPERSION CORRECTION                            
                                                                               
                              DFTD3 V3.1  Rev 1                                
                          USING Becke-Johnson damping                          
-------------------------------------------------------------------------------
-------------------------   ----------------
Dispersion correction           -0.000175741
-------------------------   ----------------


-------------------------   --------------------
FINAL SINGLE POINT ENERGY      -199.586452732389
-------------------------   --------------------



           ************************************************************
           *        Program running with 24 parallel MPI-processes    *
           *              working on a common directory               *
           ************************************************************
------------------------------------------------------------------------------
                         ORCA SCF GRADIENT CALCULATION
------------------------------------------------------------------------------

Gradient of the Kohn-Sham DFT energy:
Kohn-Sham wavefunction type      ... RKS
Hartree-Fock exchange scaling    ...    0.100
Number of operators              ...    1
Number of atoms                  ...    2
Basis set dimensions             ...   92
Integral neglect threshold       ... 2.5e-11
Integral primitive cutoff        ... 2.5e-12

Nuclear repulsion gradient       ... done
One Electron Gradient            ... done
Pre-screening matrix             ... done
Starting the two electron gradient:
Two electron gradient done
Exchange-correlation gradient    ... done
Dispersion correction            ... done

------------------
CARTESIAN GRADIENT
------------------

   1   F   :   -0.000000008   -0.000000007    0.000014461
   2   F   :    0.000000009    0.000000006   -0.000014462

Difference to translation invariance:
           :    0.0000000006   -0.0000000011   -0.0000000011

Norm of the cartesian gradient     ...    0.0000204514
RMS gradient                       ...    0.0000083493
MAX gradient                       ...    0.0000144619

-------
TIMINGS
-------

Total SCF gradient time            ...        0.384 sec

One electron gradient       ....       0.019 sec  (  4.8%)
Prescreening matrices       ....       0.014 sec  (  3.8%)
Two electron gradient       ....       0.159 sec  ( 41.3%)
XC gradient                 ....       0.012 sec  (  3.1%)
------------------------------------------------------------------------------
                         ORCA GEOMETRY RELAXATION STEP
------------------------------------------------------------------------------

Reading the OPT-File                    .... done
Getting information on internals        .... done
Copying old internal coords+grads       .... done
Making the new internal coordinates     .... (new redundants).... done
Validating the new internal coordinates .... (new redundants).... done
Calculating the B-matrix                .... done
Calculating the G,G- and P matrices     .... done
Transforming gradient to internals      .... done
Projecting the internal gradient        .... done
Number of atoms                         ....   2
Number of internal coordinates          ....   1
Current Energy                          ....  -199.586452732 Eh
Current gradient norm                   ....     0.000020451 Eh/bohr
Maximum allowed component of the step   ....  0.300
Current trust radius                    ....  0.300
Updating the Hessian (BFGS)             .... done
Forming the augmented Hessian           .... done
Diagonalizing the augmented Hessian     .... done
Last element of RFO vector              ....  0.999999999
Lowest eigenvalues of augmented Hessian:
 -0.000000001
Length of the computed step             ....  0.000036443
The final length of the internal step   ....  0.000036443
Converting the step to cartesian space:
 Initial RMS(Int)=    0.0000364428
Transforming coordinates:
 Iter   0:  RMS(Cart)=    0.0000105201 RMS(Int)=    0.0000364428
 Iter   1:  RMS(Cart)=    0.0000000000 RMS(Int)=    0.0000000000
done
Storing new coordinates                 .... done

                                .--------------------.
          ----------------------|Geometry convergence|-------------------------
          Item                value                   Tolerance       Converged
          ---------------------------------------------------------------------
          Energy change      -0.0000012917            0.0000050000      YES
          RMS gradient        0.0000144613            0.0001000000      YES
          MAX gradient        0.0000144613            0.0003000000      YES
          RMS step            0.0000364428            0.0020000000      YES
          MAX step            0.0000364428            0.0040000000      YES
          ........................................................
          Max(Bonds)      0.0000      Max(Angles)    0.00
          Max(Dihed)        0.00      Max(Improp)    0.00
          ---------------------------------------------------------------------

                    ***********************HURRAY********************
                    ***        THE OPTIMIZATION HAS CONVERGED     ***
                    *************************************************


    ---------------------------------------------------------------------------
                         Redundant Internal Coordinates

                          --- Optimized Parameters ---  
                            (Angstroem and degrees)

        Definition                    OldVal   dE/dq     Step     FinalVal
    ----------------------------------------------------------------------------
     1. B(F   1,F   0)                1.3984 -0.000014  0.0000    1.3985   
    ----------------------------------------------------------------------------
                 *******************************************************
                 *** FINAL ENERGY EVALUATION AT THE STATIONARY POINT ***
                 ***               (AFTER    3 CYCLES)               ***
                 *******************************************************
---------------------------------
CARTESIAN COORDINATES (ANGSTROEM)
---------------------------------
  F     -0.000000   -0.000000   -0.699229
  F      0.000000    0.000000    0.699229

----------------------------
CARTESIAN COORDINATES (A.U.)
----------------------------
  NO LB      ZA    FRAG     MASS         X           Y           Z
   0 F     9.0000    0    18.998   -0.000000   -0.000000   -1.321352
   1 F     9.0000    0    18.998    0.000000    0.000000    1.321352

--------------------------------
INTERNAL COORDINATES (ANGSTROEM)
--------------------------------
 F      0   0   0     0.000000000000     0.00000000     0.00000000
 F      1   0   0     1.398458560448     0.00000000     0.00000000

---------------------------
INTERNAL COORDINATES (A.U.)
---------------------------
 F      0   0   0     0.000000000000     0.00000000     0.00000000
 F      1   0   0     2.642703688884     0.00000000     0.00000000

---------------------
BASIS SET INFORMATION
---------------------
There are 1 groups of distinct atoms

 Group   1 Type F   : 19s6p3d2f contracted to 5s4p3d2f pattern {88111/3111/111/11}

Atom   0F    basis set group =>   1
Atom   1F    basis set group =>   1
----------------------------------
AUXILIARY/JK BASIS SET INFORMATION
----------------------------------
There are 1 groups of distinct atoms

 Group   1 Type F   : 14s10p6d2f1g contracted to 10s8p4d2f1g pattern {5111111111/31111111/3111/11/1}

Atom   0F    basis set group =>   1
Atom   1F    basis set group =>   1


           ************************************************************
           *        Program running with 24 parallel MPI-processes    *
           *              working on a common directory               *
           ************************************************************
------------------------------------------------------------------------------
                           ORCA GTO INTEGRAL CALCULATION
------------------------------------------------------------------------------

                         BASIS SET STATISTICS AND STARTUP INFO

 # of primitive gaussian shells          ...   60
 # of primitive gaussian functions       ...  132
 # of contracted shells                  ...   28
 # of contracted basis functions         ...   92
 Highest angular momentum                ...    3
 Maximum contraction depth               ...    8
 Integral package used                   ... LIBINT
 Integral threshhold            Thresh   ...  2.500e-11
 Primitive cut-off              TCut     ...  2.500e-12


------------------------------ INTEGRAL EVALUATION ----------------------------


 * One electron integrals 
 Pre-screening matrix                    ... done
 Shell pair data                         ... done (   0.000 sec)



           ************************************************************
           *        Program running with 24 parallel MPI-processes    *
           *              working on a common directory               *
           ************************************************************
-------------------------------------------------------------------------------
                                 ORCA SCF
-------------------------------------------------------------------------------

------------
SCF SETTINGS
------------
Hamiltonian:
 Density Functional     Method          .... DFT(GTOs)
 Exchange Functional    Exchange        .... TPSS
 Correlation Functional Correlation     .... TPSS
 LDA part of GGA corr.  LDAOpt          .... PW91-LDA
 Gradients option       PostSCFGGA      .... off
 Hybrid DFT is turned on
   Fraction HF Exchange ScalHFX         ....  0.100000
   Scaling of DF-GGA-X  ScalDFX         ....  0.900000
   Scaling of DF-GGA-C  ScalDFC         ....  1.000000
   Scaling of DF-LDA-C  ScalLDAC        ....  1.000000
   Perturbative correction              ....  0.000000
   Density functional embedding theory  .... OFF
   NL short-range parameter             ....  5.200000


General Settings:
 Integral files         IntName         .... 14_F2
 Hartree-Fock type      HFTyp           .... RHF
 Total Charge           Charge          ....    0
 Multiplicity           Mult            ....    1
 Number of Electrons    NEL             ....   18
 Basis Dimension        Dim             ....   92
 Nuclear Repulsion      ENuc            ....     30.6504283249 Eh

Convergence Acceleration:
 DIIS                   CNVDIIS         .... on
   Start iteration      DIISMaxIt       ....    12
   Startup error        DIISStart       ....  0.200000
   # of expansion vecs  DIISMaxEq       ....     5
   Bias factor          DIISBfac        ....   1.050
   Max. coefficient     DIISMaxC        ....  10.000
 Newton-Raphson         CNVNR           .... off
 SOSCF                  CNVSOSCF        .... on
   Start iteration      SOSCFMaxIt      ....   150
   Startup grad/error   SOSCFStart      ....  0.003300
 Level Shifting         CNVShift        .... on
   Level shift para.    LevelShift      ....    0.2500
   Turn off err/grad.   ShiftErr        ....    0.0010
 Zerner damping         CNVZerner       .... off
 Static damping         CNVDamp         .... on
   Fraction old density DampFac         ....    0.7000
   Max. Damping (<1)    DampMax         ....    0.9800
   Min. Damping (>=0)   DampMin         ....    0.0000
   Turn off err/grad.   DampErr         ....    0.1000
 Fernandez-Rico         CNVRico         .... off

SCF Procedure:
 Maximum # iterations   MaxIter         ....   125
 SCF integral mode      SCFMode         .... Direct
   Integral package                     .... LIBINT
 Reset frequency        DirectResetFreq ....    20
 Integral Threshold     Thresh          ....  2.500e-11 Eh
 Primitive CutOff       TCut            ....  2.500e-12 Eh

Convergence Tolerance:
 Convergence Check Mode ConvCheckMode   .... Total+1el-Energy
 Convergence forced     ConvForced      .... 0
 Energy Change          TolE            ....  1.000e-08 Eh
 1-El. energy change                    ....  1.000e-05 Eh
 Orbital Gradient       TolG            ....  1.000e-05
 Orbital Rotation angle TolX            ....  1.000e-05
 DIIS Error             TolErr          ....  5.000e-07


Diagonalization of the overlap matrix:
Smallest eigenvalue                        ... 7.806e-04
Time for diagonalization                   ...    0.004 sec
Threshold for overlap eigenvalues          ... 1.000e-08
Number of eigenvalues below threshold      ... 0
Time for construction of square roots      ...    0.001 sec
Total time needed                          ...    0.005 sec

---------------------
INITIAL GUESS: MOREAD
---------------------
Guess MOs are being read from file: 14_F2.gbw
Input Geometry matches current geometry (good)
Input basis set matches current basis set (good)
MOs were renormalized
MOs were reorthogonalized (Cholesky)
                      ------------------
                      INITIAL GUESS DONE (   0.0 sec)
                      ------------------
-------------------
DFT GRID GENERATION
-------------------

General Integration Accuracy     IntAcc      ...  4.340
Radial Grid Type                 RadialGrid  ... Gauss-Chebyshev
Angular Grid (max. acc.)         AngularGrid ... Lebedev-110
Angular grid pruning method      GridPruning ... 3 (G Style)
Weight generation scheme         WeightScheme... Becke
Basis function cutoff            BFCut       ...    1.0000e-11
Integration weight cutoff        WCut        ...    1.0000e-14
Grids for H and He will be reduced by one unit

# of grid points (after initial pruning)     ...   3480 (   0.0 sec)
# of grid points (after weights+screening)   ...   3456 (   0.0 sec)
nearest neighbour list constructed           ...    0.0 sec
Grid point re-assignment to atoms done       ...    0.0 sec
Grid point division into batches done        ...    0.0 sec
Reduced shell lists constructed in    0.0 sec

Total number of grid points                  ...     3456
Total number of batches                      ...       56
Average number of points per batch           ...       61
Average number of grid points per atom       ...     1728
Average number of shells per batch           ...    13.75 (49.11%)
Average number of basis functions per batch  ...    43.75 (47.55%)
Average number of large shells per batch     ...     9.25 (67.27%)
Average number of large basis fcns per batch ...    31.25 (71.43%)
Maximum spatial batch extension              ...  15.77, 25.65, 13.98 au
Average spatial batch extension              ...   0.77,  1.17,  0.75 au

Time for grid setup =    0.015 sec

--------------
SCF ITERATIONS
--------------
ITER       Energy         Delta-E        Max-DP      RMS-DP      [F,P]     Damp
               ***  Starting incremental Fock matrix formation  ***
                      *** Initiating the SOSCF procedure ***
                      *** Re-Reading the Fockian *** 
                      *** Removing any level shift *** 
ITER      Energy       Delta-E        Grad      Rot      Max-DP    RMS-DP
  0   -199.58578175 -199.5857817542  0.000006  0.000006  0.000004  0.000000
               *** Restarting incremental Fock matrix formation ***
                  ***Gradient check signals convergence***
              ***Rediagonalizing the Fockian in SOSCF/NRSCF***

               *****************************************************
               *                     SUCCESS                       *
               *           SCF CONVERGED AFTER   1 CYCLES          *
               *****************************************************

Setting up the final grid:

General Integration Accuracy     IntAcc      ...  4.670
Radial Grid Type                 RadialGrid  ... Gauss-Chebyshev
Angular Grid (max. acc.)         AngularGrid ... Lebedev-302
Angular grid pruning method      GridPruning ... 3 (G Style)
Weight generation scheme         WeightScheme... Becke
Basis function cutoff            BFCut       ...    1.0000e-11
Integration weight cutoff        WCut        ...    1.0000e-14
Grids for H and He will be reduced by one unit

# of grid points (after initial pruning)     ...  12544 (   0.0 sec)
# of grid points (after weights+screening)   ...  12518 (   0.0 sec)
nearest neighbour list constructed           ...    0.0 sec
Grid point re-assignment to atoms done       ...    0.0 sec
Grid point division into batches done        ...    0.1 sec
Reduced shell lists constructed in    0.1 sec

Total number of grid points                  ...    12518
Total number of batches                      ...      196
Average number of points per batch           ...       63
Average number of grid points per atom       ...     6259
Average number of shells per batch           ...     5.40 (19.29%)
Average number of basis functions per batch  ...    13.80 (15.00%)
Average number of large shells per batch     ...     3.50 (64.81%)
Average number of large basis fcns per batch ...     7.10 (51.45%)
Maximum spatial batch extension              ...  19.94, 19.94, 11.42 au
Average spatial batch extension              ...   0.67,  0.68,  0.45 au

Final grid set up in    0.1 sec
Final integration                            ... done (   0.0 sec)
Change in XC energy                          ...    -0.000495270
Integrated number of electrons               ...    18.000004264
Previous integrated no of electrons          ...    17.999865266

----------------
TOTAL SCF ENERGY
----------------

Total Energy       :         -199.58627702 Eh           -5431.01871 eV

Components:
Nuclear Repulsion  :           30.65042832 Eh             834.04056 eV
Electronic Energy  :         -230.23670535 Eh           -6265.05926 eV
One Electron Energy:         -339.16488294 Eh           -9229.14567 eV
Two Electron Energy:          108.92817759 Eh            2964.08640 eV

Virial components:
Potential Energy   :         -398.32182945 Eh          -10838.88802 eV
Kinetic Energy     :          198.73555242 Eh            5407.86931 eV
Virial Ratio       :            2.00428069


DFT components:
N(Alpha)           :        9.000002131959 electrons
N(Beta)            :        9.000002131959 electrons
N(Total)           :       18.000004263917 electrons
E(X)               :      -18.146267208041 Eh       
E(C)               :       -0.619603861034 Eh       
E(XC)              :      -18.765871069075 Eh       
DFET-embed. en.    :        0.000000000000 Eh       

---------------
SCF CONVERGENCE
---------------

  Last Energy change         ...   -1.1377e-10  Tolerance :   1.0000e-08
  Last MAX-Density change    ...    1.0266e-06  Tolerance :   1.0000e-07
  Last RMS-Density change    ...    5.1990e-08  Tolerance :   5.0000e-09
  Last Orbital Gradient      ...    1.3545e-06  Tolerance :   1.0000e-05
  Last Orbital Rotation      ...    1.0471e-06  Tolerance :   1.0000e-05

             **** THE GBW FILE WAS UPDATED (14_F2.gbw) ****
             **** DENSITY FILE WAS UPDATED (14_F2.scfp) ****
             **** ENERGY FILE WAS UPDATED (14_F2.en.tmp) ****
             **** THE GBW FILE WAS UPDATED (14_F2.gbw) ****
             **** DENSITY FILE WAS UPDATED (14_F2.scfp) ****
----------------
ORBITAL ENERGIES
----------------

  NO   OCC          E(Eh)            E(eV) 
   0   2.0000     -24.713449      -672.4871 
   1   2.0000     -24.713431      -672.4866 
   2   2.0000      -1.330666       -36.2093 
   3   2.0000      -1.087747       -29.5991 
   4   2.0000      -0.590212       -16.0605 
   5   2.0000      -0.517985       -14.0951 
   6   2.0000      -0.517985       -14.0951 
   7   2.0000      -0.385941       -10.5020 
   8   2.0000      -0.385941       -10.5020 
   9   0.0000      -0.170167        -4.6305 
  10   0.0000       0.087322         2.3762 
  11   0.0000       0.089887         2.4459 
  12   0.0000       0.121166         3.2971 
[...]
  23   0.0000       0.858796        23.3690 
  24   0.0000       0.858854        23.3706 
  25   0.0000       0.858867        23.3710 
  26   0.0000       0.869649        23.6644 
  27   0.0000       0.869649        23.6644 
  28   0.0000       0.885673        24.1004 
  29   0.0000       0.885673        24.1004 
  30   0.0000       1.028724        27.9930 
  31   0.0000       1.174325        31.9550 
  32   0.0000       1.275024        34.6952 
  33   0.0000       1.275024        34.6952 
  34   0.0000       1.492007        40.5996 
  35   0.0000       2.155796        58.6622 
  36   0.0000       2.155796        58.6622 
  37   0.0000       2.287861        62.2559 
  38   0.0000       2.288513        62.2736 
  39   0.0000       2.332248        63.4637 
  40   0.0000       2.463297        67.0297 
  41   0.0000       2.463297        67.0297 
  42   0.0000       2.535136        68.9846 
  43   0.0000       2.536392        69.0187 
  44   0.0000       2.562569        69.7310 
  45   0.0000       2.563568        69.7582 
  46   0.0000       2.648287        72.0636 
  47   0.0000       2.700303        73.4790 
  48   0.0000       2.700303        73.4790 
  49   0.0000       2.750566        74.8467 
  50   0.0000       2.750566        74.8467 
  51   0.0000       2.934738        79.8583 
  52   0.0000       3.073851        83.6437 
  53   0.0000       3.073851        83.6437 
  54   0.0000       3.257928        88.6527 
  55   0.0000       3.258109        88.6577 
  56   0.0000       3.411864        92.8415 
  57   0.0000       3.524564        95.9083 
  58   0.0000       3.895485       106.0015 
  59   0.0000       3.895485       106.0015 
  60   0.0000       4.622762       125.7918 
  61   0.0000       4.622762       125.7918 
  62   0.0000       4.815320       131.0315 
  63   0.0000       4.815320       131.0315 
  64   0.0000       4.838687       131.6674 
  65   0.0000       6.261258       170.3775 
  66   0.0000       8.025715       218.3908 
  67   0.0000       8.246630       224.4022 
  68   0.0000       8.246630       224.4022 
  69   0.0000       8.279514       225.2970 
  70   0.0000       8.280921       225.3353 
  71   0.0000       8.364304       227.6043 
  72   0.0000       8.364304       227.6043 
  73   0.0000       8.445040       229.8012 
  74   0.0000       8.445040       229.8012 
  75   0.0000       8.491122       231.0552 
  76   0.0000       8.492036       231.0800 
  77   0.0000       8.569631       233.1915 
  78   0.0000       8.569631       233.1915 
  79   0.0000       8.573757       233.3038 
  80   0.0000       8.575843       233.3605 
  81   0.0000       8.664656       235.7773 
  82   0.0000       8.695777       236.6241 
  83   0.0000       8.698417       236.6960 
  84   0.0000       8.732448       237.6220 
  85   0.0000       8.732448       237.6220 
  86   0.0000       8.926327       242.8977 
  87   0.0000       9.099523       247.6106 
  88   0.0000       9.099523       247.6106 
  89   0.0000       9.762774       265.6586 
  90   0.0000      11.815291       321.5104 
  91   0.0000      14.818547       403.2332 

                    ********************************
                    * MULLIKEN POPULATION ANALYSIS *
                    ********************************

-----------------------
MULLIKEN ATOMIC CHARGES
-----------------------
   0 F :   -0.000000
   1 F :    0.000000
Sum of atomic charges:   -0.0000000

--------------------------------
MULLIKEN REDUCED ORBITAL CHARGES
--------------------------------
  0 F s       :     4.012069  s :     4.012069
      pz      :     0.982778  p :     4.963976
      px      :     1.990599
      py      :     1.990599
      dz2     :     0.003382  d :     0.017900
      dxz     :     0.007259
      dyz     :     0.007259
      dx2y2   :     0.000000
      dxy     :     0.000000
      f0      :     0.001771  f :     0.006055
      f+1     :     0.002142
      f-1     :     0.002142
      f+2     :     0.000000
      f-2     :     0.000000
      f+3     :     0.000000
      f-3     :     0.000000
  1 F s       :     4.012069  s :     4.012069
      pz      :     0.982778  p :     4.963976
      px      :     1.990599
      py      :     1.990599
      dz2     :     0.003382  d :     0.017900
      dxz     :     0.007259
      dyz     :     0.007259
      dx2y2   :     0.000000
      dxy     :     0.000000
      f0      :     0.001771  f :     0.006055
      f+1     :     0.002142
      f-1     :     0.002142
      f+2     :     0.000000
      f-2     :     0.000000
      f+3     :     0.000000
      f-3     :     0.000000


                     *******************************
                     * LOEWDIN POPULATION ANALYSIS *
                     *******************************

----------------------
LOEWDIN ATOMIC CHARGES
----------------------
   0 F :   -0.000000
   1 F :    0.000000

-------------------------------
LOEWDIN REDUCED ORBITAL CHARGES
-------------------------------
  0 F s       :     3.716016  s :     3.716016
      pz      :     1.134918  p :     4.936459
      px      :     1.900771
      py      :     1.900771
      dz2     :     0.119907  d :     0.271771
      dxz     :     0.075932
      dyz     :     0.075932
      dx2y2   :     0.000000
      dxy     :     0.000000
      f0      :     0.029159  f :     0.075753
      f+1     :     0.023297
      f-1     :     0.023297
      f+2     :     0.000000
      f-2     :     0.000000
      f+3     :     0.000000
      f-3     :     0.000000
  1 F s       :     3.716016  s :     3.716016
      pz      :     1.134918  p :     4.936459
      px      :     1.900771
      py      :     1.900771
      dz2     :     0.119907  d :     0.271771
      dxz     :     0.075932
      dyz     :     0.075932
      dx2y2   :     0.000000
      dxy     :     0.000000
      f0      :     0.029159  f :     0.075753
      f+1     :     0.023297
      f-1     :     0.023297
      f+2     :     0.000000
      f-2     :     0.000000
      f+3     :     0.000000
      f-3     :     0.000000


                      *****************************
                      * MAYER POPULATION ANALYSIS *
                      *****************************

  NA   - Mulliken gross atomic population
  ZA   - Total nuclear charge
  QA   - Mulliken gross atomic charge
  VA   - Mayer's total valence
  BVA  - Mayer's bonded valence
  FA   - Mayer's free valence

  ATOM       NA         ZA         QA         VA         BVA        FA
  0 F      9.0000     9.0000    -0.0000     0.8306     0.8306    -0.0000
  1 F      9.0000     9.0000     0.0000     0.8306     0.8306    -0.0000

  Mayer bond orders larger than 0.100000
B(  0-F ,  1-F ) :   0.8306 

-------
TIMINGS
-------

Total SCF time: 0 days 0 hours 0 min 0 sec 

Total time                  ....       0.609 sec
Sum of individual times     ....       0.379 sec  ( 62.2%)

Fock matrix formation       ....       0.288 sec  ( 47.3%)
  XC integration            ....       0.021 sec  (  7.2% of F)
    Basis function eval.    ....       0.002 sec  ( 10.2% of XC)
    Density eval.           ....       0.003 sec  ( 12.4% of XC)
    XC-Functional eval.     ....       0.002 sec  (  8.1% of XC)
    XC-Potential eval.      ....       0.006 sec  ( 27.9% of XC)
Diagonalization             ....       0.001 sec  (  0.2%)
Density matrix formation    ....       0.001 sec  (  0.1%)
Population analysis         ....       0.003 sec  (  0.4%)
Initial guess               ....       0.006 sec  (  0.9%)
Orbital Transformation      ....       0.000 sec  (  0.0%)
Orbital Orthonormalization  ....       0.002 sec  (  0.3%)
DIIS solution               ....       0.000 sec  (  0.0%)
SOSCF solution              ....       0.001 sec  (  0.1%)
Grid generation             ....       0.080 sec  ( 13.1%)


-------------------------------------------------------------------------------
                          DFT DISPERSION CORRECTION                            
                                                                               
                              DFTD3 V3.1  Rev 1                                
                          USING Becke-Johnson damping                          
-------------------------------------------------------------------------------
The TPSSH functional is recognized
Active option DFTDOPT                   ...         4   

molecular C6(AA) [au] = 28.742062 


            DFT-D V3
 parameters
 s6 scaling factor         :     1.0000 
 a1 scaling factor         :     0.4529 
 s8 scaling factor         :     2.2382 
 a2 scaling factor         :     4.6550 
 ad hoc parameters k1-k3   :    16.0000     1.3333    -4.0000 

 Edisp/kcal,au: -0.110279463483  -0.000175741493 
 E6   /kcal   :  -0.057984152 
 E8   /kcal   :  -0.052295312 
 % E8         :  47.420716549 

-------------------------   ----------------
Dispersion correction           -0.000175741
-------------------------   ----------------


-------------------------   --------------------
FINAL SINGLE POINT ENERGY      -199.586452766190
-------------------------   --------------------

                                *** OPTIMIZATION RUN DONE ***

                            ***************************************
                            *     ORCA property calculations      *
                            ***************************************

                                    ---------------------
                                    Active property flags
                                    ---------------------
   (+) Dipole Moment


------------------------------------------------------------------------------
                       ORCA ELECTRIC PROPERTIES CALCULATION
------------------------------------------------------------------------------

Dipole Moment Calculation                       ... on
Quadrupole Moment Calculation                   ... off
Polarizability Calculation                      ... off
GBWName                                         ... 14_F2.gbw
Electron density file                           ... 14_F2.scfp
The origin for moment calculation is the CENTER OF MASS  = ( 0.000000,  0.000000  0.000000)

-------------
DIPOLE MOMENT
-------------
                                X             Y             Z
Electronic contribution:      0.00000      -0.00000       0.00000
Nuclear contribution   :      0.00000       0.00000       0.00000
                        -----------------------------------------
Total Dipole Moment    :      0.00000      -0.00000       0.00000
                        -----------------------------------------
Magnitude (a.u.)       :      0.00000
Magnitude (Debye)      :      0.00000



--------------------
Rotational spectrum 
--------------------
 
Rotational constants in cm-1:     0.000000     0.907444     0.907444 
Rotational constants in MHz :     0.000000 27204.485248 27204.485248 

 Dipole components along the rotational axes: 
x,y,z [a.u.] :    -0.000000     0.000000     0.000000 
x,y,z [Debye]:    -0.000000     0.000000     0.000000 

 

----------------------------------------------------------------------------
                           ORCA NUMERICAL FREQUENCIES
                              (24-process run)
----------------------------------------------------------------------------

Number of atoms                ... 2
Central differences            ... used
Number of displacements        ... 12
Numerical increment            ... 5.000e-03 bohr
IR-spectrum generation         ... on
Raman-spectrum generation      ... off
Surface Crossing Hessian       ... off

 WARNING: There are more processes than displacements to do
  ====> : Reducing number of processes to   6

The output will be reduced. Please look at the following files:
SCF program output             ... >14_F2.lastscf
Integral program output        ... >14_F2.lastint
Gradient program output        ... >14_F2.lastgrad
Dipole moment program output   ... >14_F2.lastmom
AutoCI program output          ... >14_F2.lastautoci


         <<< Energy and Gradient at the input geometry >>>

        <<< Energy and Gradient at displaced geometries >>>
             <<<Displacing   1/coordinate 2 (+)>>>
             <<<Displacing   1/coordinate 1 (+)>>>
             <<<Displacing   2/coordinate 1 (+)>>>
             <<<Displacing   1/coordinate 3 (+)>>>
             <<<Displacing   2/coordinate 2 (+)>>>
             <<<Displacing   2/coordinate 3 (+)>>>
             <<<Displacing   1/coordinate 3 (-)>>>
             <<<Displacing   2/coordinate 3 (-)>>>
             <<<Displacing   1/coordinate 2 (-)>>>
             <<<Displacing   2/coordinate 1 (-)>>>
             <<<Displacing   1/coordinate 1 (-)>>>
             <<<Displacing   2/coordinate 2 (-)>>>

-----------------------
VIBRATIONAL FREQUENCIES
-----------------------

Scaling factor for frequencies =  1.000000000 (already applied!)

   0:         0.00 cm**-1
   1:         0.00 cm**-1
   2:         0.00 cm**-1
   3:         0.00 cm**-1
   4:         0.00 cm**-1
   5:      1051.03 cm**-1


------------
NORMAL MODES
------------

These modes are the cartesian displacements weighted by the diagonal matrix
M(i,i)=1/sqrt(m[i]) where m[i] is the mass of the displaced atom
Thus, these vectors are normalized but *not* orthogonal

                  0          1          2          3          4          5    
      0       0.000000   0.000000   0.000000   0.000000   0.000000   0.000000
      1       0.000000   0.000000   0.000000   0.000000   0.000000   0.000000
      2       0.000000   0.000000   0.000000   0.000000   0.000000   0.707107
      3       0.000000   0.000000   0.000000   0.000000   0.000000  -0.000000
      4       0.000000   0.000000   0.000000   0.000000   0.000000  -0.000000
      5       0.000000   0.000000   0.000000   0.000000   0.000000  -0.707107


-----------
IR SPECTRUM  
-----------

 Mode    freq (cm**-1)   T**2         TX         TY         TZ
-------------------------------------------------------------------
   5:      1051.03    0.000000  ( -0.000000   0.000000  -0.000057)

The first frequency considered to be a vibration is 5
The total number of vibrations considered is 1


--------------------------
THERMOCHEMISTRY AT 298.15K
--------------------------

Temperature         ... 298.15 K
Pressure            ... 1.00 atm
Total Mass          ... 38.00 AMU
The molecule is recognized as being linear

Throughout the following assumptions are being made:
  (1) The electronic state is orbitally nondegenerate
  (2) There are no thermally accessible electronically excited states
  (3) Hindered rotations indicated by low frequency modes are not
      treated as such but are treated as vibrations and this may
      cause some error
  (4) All equations used are the standard statistical mechanics
      equations for an ideal gas
  (5) All vibrations are strictly harmonic

freq.    1051.03  E(vib)   ...       0.02 

------------
INNER ENERGY
------------

The inner energy is: U= E(el) + E(ZPE) + E(vib) + E(rot) + E(trans)
    E(el)   - is the total energy from the electronic structure calculation
              = E(kin-el) + E(nuc-el) + E(el-el) + E(nuc-nuc)
    E(ZPE)  - the the zero temperature vibrational energy from the frequency calculation
    E(vib)  - the the finite temperature correction to E(ZPE) due to population
              of excited vibrational states
    E(rot)  - is the rotational thermal energy
    E(trans)- is the translational thermal energy

Summary of contributions to the inner energy U:
Electronic energy                ...   -199.58645276 Eh
Zero point energy                ...      0.00239443 Eh       1.50 kcal/mol
Thermal vibrational correction   ...      0.00003022 Eh       0.02 kcal/mol
Thermal rotational correction    ...      0.00094418 Eh       0.59 kcal/mol
Thermal translational correction ...      0.00141627 Eh       0.89 kcal/mol
-----------------------------------------------------------------------
Total thermal energy                   -199.58166766 Eh


Summary of corrections to the electronic energy:
(perhaps to be used in another calculation)
Total thermal correction                  0.00239067 Eh       1.50 kcal/mol
Non-thermal (ZPE) correction              0.00239443 Eh       1.50 kcal/mol
-----------------------------------------------------------------------
Total correction                          0.00478510 Eh       3.00 kcal/mol


--------
ENTHALPY
--------

The enthalpy is H = U + kB*T
                kB is Boltzmann's constant
Total free energy                 ...   -199.58166766 Eh 
Thermal Enthalpy correction       ...      0.00094421 Eh       0.59 kcal/mol
-----------------------------------------------------------------------
Total Enthalpy                    ...   -199.58072345 Eh


Note: Rotational entropy computed according to Herzberg 
Infrared and Raman Spectra, Chapter V,1, Van Nostrand Reinhold, 1945 
Point Group:  Dinfh, Symmetry Number:   2  
Rotational constants in cm-1:     0.000000     0.907444     0.907444 

Vibrational entropy computed according to the QRRHO of S. Grimme
Chem.Eur.J. 2012 18 9955


-------
ENTROPY
-------

The entropy contributions are T*S = T*(S(el)+S(vib)+S(rot)+S(trans))
     S(el)   - electronic entropy
     S(vib)  - vibrational entropy
     S(rot)  - rotational entropy
     S(trans)- translational entropy
The entropies will be listed as mutliplied by the temperature to get
units of energy

Electronic entropy                ...      0.00000000 Eh      0.00 kcal/mol
Vibrational entropy               ...      0.00003618 Eh      0.02 kcal/mol
Rotational entropy                ...      0.00541751 Eh      3.40 kcal/mol
Translational entropy             ...      0.01750073 Eh     10.98 kcal/mol
-----------------------------------------------------------------------
Final entropy term                ...      0.02295442 Eh     14.40 kcal/mol

In case the symmetry of your molecule has not been determined correctly
or in case you have a reason to use a different symmetry number we print 
out the resulting rotational entropy values for sn=1,12 :
 --------------------------------------------------------
|  sn= 1 | S(rot)=      -0.02145527 Eh    -13.46 kcal/mol|
|  sn= 2 | S(rot)=      -0.02210972 Eh    -13.87 kcal/mol|
|  sn= 3 | S(rot)=      -0.02249255 Eh    -14.11 kcal/mol|
|  sn= 4 | S(rot)=      -0.02276418 Eh    -14.28 kcal/mol|
|  sn= 5 | S(rot)=      -0.02297487 Eh    -14.42 kcal/mol|
|  sn= 6 | S(rot)=      -0.02314701 Eh    -14.52 kcal/mol|
|  sn= 7 | S(rot)=      -0.02329256 Eh    -14.62 kcal/mol|
|  sn= 8 | S(rot)=      -0.02341863 Eh    -14.70 kcal/mol|
|  sn= 9 | S(rot)=      -0.02352984 Eh    -14.77 kcal/mol|
|  sn=10 | S(rot)=      -0.02362932 Eh    -14.83 kcal/mol|
|  sn=11 | S(rot)=      -0.02371931 Eh    -14.88 kcal/mol|
|  sn=12 | S(rot)=      -0.02380147 Eh    -14.94 kcal/mol|
 --------------------------------------------------------


-------------------
GIBBS FREE ENERGY
-------------------

The Gibbs free energy is G = H - T*S

Total enthalpy                    ...   -199.58072345 Eh 
Total entropy correction          ...     -0.02295442 Eh    -14.40 kcal/mol
-----------------------------------------------------------------------
Final Gibbs free energy         ...   -199.60367787 Eh

For completeness - the Gibbs free energy minus the electronic energy
G-E(el)                           ...     -0.01722511 Eh    -10.81 kcal/mol


Total Time for Numerical Frequencies  :        16.945 sec

Timings for individual modules:

Sum of individual times         ...       12.915 sec (=   0.215 min)
GTO integral calculation        ...        3.200 sec (=   0.053 min)  24.8 %
SCF iterations                  ...        6.704 sec (=   0.112 min)  51.9 %
SCF Gradient evaluation         ...        2.883 sec (=   0.048 min)  22.3 %
Geometry relaxation             ...        0.127 sec (=   0.002 min)   1.0 %
                             ****ORCA TERMINATED NORMALLY****
TOTAL RUN TIME: 0 days 0 hours 0 minutes 28 seconds 152 msec
