
                                 *****************
                                 * O   R   C   A *
                                 *****************

           --- An Ab Initio, DFT and Semiempirical electronic structure package ---

                  #######################################################
                  #                        -***-                        #
                  #          Department of theory and spectroscopy      #
                  #               Directorship: Frank Neese             #
                  #        Max Planck Institute fuer Kohlenforschung    #
                  #                Kaiser Wilhelm Platz 1               #
                  #                 D-45470 Muelheim/Ruhr               #
                  #                      Germany                        #
                  #                                                     #
                  #                  All rights reserved                #
                  #                        -***-                        #
                  #######################################################


                         Program Version 4.2.0 -  RELEASE  -


 With contributions from (in alphabetic order):
   Daniel Aravena         : Magnetic Suceptibility
   Michael Atanasov       : Ab Initio Ligand Field Theory (pilot matlab implementation)
   Alexander A. Auer      : GIAO ZORA, VPT2
   Ute Becker             : Parallelization
   Giovanni Bistoni       : ED, misc. LED, open-shell LED, HFLED
   Martin Brehm           : Molecular dynamics
   Dmytro Bykov           : SCF Hessian
   Vijay G. Chilkuri      : MRCI spin determinant printing, contributions to CSF-ICE
   Dipayan Datta          : RHF DLPNO-CCSD density
   Achintya Kumar Dutta   : EOM-CC, STEOM-CC
   Dmitry Ganyushin       : Spin-Orbit,Spin-Spin,Magnetic field MRCI
   Miquel Garcia          : C-PCM Hessian, Gaussian charge scheme
   Yang Guo               : DLPNO-NEVPT2, CIM, IAO-localization
   Andreas Hansen         : Spin unrestricted coupled pair/coupled cluster methods
   Benjamin Helmich-Paris : CASSCF linear response (MC-RPA)
   Lee Huntington         : MR-EOM, pCC
   Robert Izsak           : Overlap fitted RIJCOSX, COSX-SCS-MP3, EOM
   Christian Kollmar      : KDIIS, OOCD, Brueckner-CCSD(T), CCSD density
   Simone Kossmann        : Meta GGA functionals, TD-DFT gradient, OOMP2, MP2 Hessian
   Martin Krupicka        : AUTO-CI
   Lucas Lang             : DCDCAS
   Dagmar Lenk            : GEPOL surface, SMD
   Dimitrios Liakos       : Extrapolation schemes; Compound Job, initial MDCI parallelization
   Dimitrios Manganas     : Further ROCIS development; embedding schemes
   Dimitrios Pantazis     : SARC Basis sets
   Taras Petrenko         : DFT Hessian,TD-DFT gradient, ASA, ECA, R-Raman, ABS, FL, XAS/XES, NRVS
   Peter Pinski           : DLPNO-MP2, DLPNO-MP2 Gradient
   Christoph Reimann      : Effective Core Potentials
   Marius Retegan         : Local ZFS, SOC
   Christoph Riplinger    : Optimizer, TS searches, QM/MM, DLPNO-CCSD(T), (RO)-DLPNO pert. Triples
   Tobias Risthaus        : Range-separated hybrids, TD-DFT gradient, RPA, STAB
   Michael Roemelt        : Original ROCIS implementation
   Masaaki Saitow         : Open-shell DLPNO-CCSD energy and density
   Barbara Sandhoefer     : DKH picture change effects
   Avijit Sen             : IP-ROCIS
   Kantharuban Sivalingam : CASSCF convergence, NEVPT2, FIC-MRCI
   Bernardo de Souza      : ESD, SOC TD-DFT
   Georgi Stoychev        : AutoAux, RI-MP2 NMR
   Willem Van den Heuvel  : Paramagnetic NMR
   Boris Wezisla          : Elementary symmetry handling
   Frank Wennmohs         : Technical directorship


 We gratefully acknowledge several colleagues who have allowed us to
 interface, adapt or use parts of their codes:
   Stefan Grimme, W. Hujo, H. Kruse,             : VdW corrections, initial TS optimization,
                  C. Bannwarth                     DFT functionals, gCP, sTDA/sTD-DF
   Ed Valeev, F. Pavosevic, A. Kumar             : LibInt (2-el integral package), F12 methods
   Garnet Chan, S. Sharma, J. Yang, R. Olivares  : DMRG
   Ulf Ekstrom                                   : XCFun DFT Library
   Mihaly Kallay                                 : mrcc  (arbitrary order and MRCC methods)
   Andreas Klamt, Michael Diedenhofen            : otool_cosmo (COSMO solvation model)
   Jiri Pittner, Ondrej Demel                    : Mk-CCSD
   Frank Weinhold                                : gennbo (NPA and NBO analysis)
   Christopher J. Cramer and Donald G. Truhlar   : smd solvation model
   Lars Goerigk                                  : TD-DFT with DH, B97 family of functionals
   V. Asgeirsson, H. Jonsson                     : NEB implementation
   FAccTs GmbH                                   : IRC, NEB, NEB-TS, Multilevel, MM, QM/MM, CI optimization
   S Lehtola, MJT Oliveira, MAL Marques          : LibXC Library


 Your calculation uses the libint2 library for the computation of 2-el integrals
 For citations please refer to: http://libint.valeyev.net

 Your ORCA version has been built with support for libXC version: 4.2.3
 For citations please refer to: https://tddft.org/programs/libxc/

 This ORCA versions uses:
   CBLAS   interface :  Fast vector & matrix operations
   LAPACKE interface :  Fast linear algebra routines
   SCALAPACK package :  Parallel linear algebra routines


Your calculation utilizes the atom-pairwise dispersion correction
with the Becke-Johnson damping scheme (D3BJ)
Cite in your paper:
S.Grimme, S.Ehrlich, L.Goerigk, J Comput Chem, (2011), 32, 1456–1465 
S.Grimme, J.Antony, S.Ehrlich and H.Krieg, J.Chem.Phys., 132, (2010), 154104 
   

----- Orbital basis set information -----
Your calculation utilizes the basis: aug-cc-pV(T+d)Z 
             Al - Ar: T.H. Dunning, Jr., K. A. Peterson and A. K. Wilson, J. Chem. Phys.
                      114, 9244 (2001)

----- AuxJK basis set information -----
Your calculation utilizes the auxiliary basis: def2/JK
   H-Ba, Hf-Rn: F. Weigend, J. Comput. Chem. 29, 167 (2008).

================================================================================
                                        WARNINGS
                       Please study these warnings very carefully!
================================================================================


WARNING: Geometry Optimization
  ===> : Switching off AutoStart
         For restart on a previous wavefunction, please use MOREAD

INFO   : the flag for use of LIBINT has been found!

================================================================================
                                       INPUT FILE
================================================================================
NAME = 24_N2.in
|  1> #
|  2> # 24_N2 tpssh/aug-cc-pvt(+d)z
|  3> #
|  4> ! tpssh d3bj aug-cc-pvt(+d)z def2/jk opt xyzfile numfreq
|  5> 
|  6> *xyz 0 1
|  7> N            0.546600014         -0.000000000         -0.000000000
|  8> N           -0.546600014          0.000000000          0.000000000
|  9> *
| 10> 
| 11> %pal
| 12> nprocs 24
| 13> end
| 14> 
| 15> 
| 16>                          ****END OF INPUT****
================================================================================

                       *****************************
                       * Geometry Optimization Run *
                       *****************************

Geometry optimization settings:
Update method            Update   .... BFGS
Choice of coordinates    CoordSys .... Z-matrix Internals
Initial Hessian          InHess   .... Almoef's Model

Convergence Tolerances:
Energy Change            TolE     ....  5.0000e-06 Eh
Max. Gradient            TolMAXG  ....  3.0000e-04 Eh/bohr
RMS Gradient             TolRMSG  ....  1.0000e-04 Eh/bohr
Max. Displacement        TolMAXD  ....  4.0000e-03 bohr
RMS Displacement         TolRMSD  ....  2.0000e-03 bohr
Strict Convergence                ....  False
------------------------------------------------------------------------------
                        ORCA OPTIMIZATION COORDINATE SETUP
------------------------------------------------------------------------------

The optimization will be done in new redundant internal coordinates
Making redundant internal coordinates   ...  (new redundants) done
Evaluating the initial hessian          ...  (Almloef) done
Evaluating the coordinates              ...  done
Calculating the B-matrix                .... done
Calculating the G-matrix                .... done
Diagonalizing the G-matrix              .... done
The first mode is                       ....    0
The number of degrees of freedom        ....    1

    -----------------------------------------------------------------
                    Redundant Internal Coordinates


    -----------------------------------------------------------------
         Definition                    Initial Value    Approx d2E/dq
    -----------------------------------------------------------------
      1. B(N   1,N   0)                  1.0932         1.491207   
    -----------------------------------------------------------------

Number of atoms                         .... 2
Number of degrees of freedom            .... 1

         *************************************************************
         *                GEOMETRY OPTIMIZATION CYCLE   1            *
         *************************************************************
---------------------------------
CARTESIAN COORDINATES (ANGSTROEM)
---------------------------------
  N      0.546600   -0.000000   -0.000000
  N     -0.546600    0.000000    0.000000

----------------------------
CARTESIAN COORDINATES (A.U.)
----------------------------
  NO LB      ZA    FRAG     MASS         X           Y           Z
   0 N     7.0000    0    14.007    1.032924   -0.000000   -0.000000
   1 N     7.0000    0    14.007   -1.032924    0.000000    0.000000

--------------------------------
INTERNAL COORDINATES (ANGSTROEM)
--------------------------------
 N      0   0   0     0.000000000000     0.00000000     0.00000000
 N      1   0   0     1.093200028000     0.00000000     0.00000000

---------------------------
INTERNAL COORDINATES (A.U.)
---------------------------
 N      0   0   0     0.000000000000     0.00000000     0.00000000
 N      1   0   0     2.065848662515     0.00000000     0.00000000

---------------------
BASIS SET INFORMATION
---------------------
There are 1 groups of distinct atoms

 Group   1 Type N   : 19s6p3d2f contracted to 5s4p3d2f pattern {88111/3111/111/11}

Atom   0N    basis set group =>   1
Atom   1N    basis set group =>   1
----------------------------------
AUXILIARY/JK BASIS SET INFORMATION
----------------------------------
There are 1 groups of distinct atoms

 Group   1 Type N   : 14s10p6d2f1g contracted to 10s8p4d2f1g pattern {5111111111/31111111/3111/11/1}

Atom   0N    basis set group =>   1
Atom   1N    basis set group =>   1


           ************************************************************
           *        Program running with 24 parallel MPI-processes    *
           *              working on a common directory               *
           ************************************************************
------------------------------------------------------------------------------
                           ORCA GTO INTEGRAL CALCULATION
------------------------------------------------------------------------------

                         BASIS SET STATISTICS AND STARTUP INFO

 # of primitive gaussian shells          ...   60
 # of primitive gaussian functions       ...  132
 # of contracted shells                  ...   28
 # of contracted basis functions         ...   92
 Highest angular momentum                ...    3
 Maximum contraction depth               ...    8
 Integral package used                   ... LIBINT
 Integral threshhold            Thresh   ...  2.500e-11
 Primitive cut-off              TCut     ...  2.500e-12


------------------------------ INTEGRAL EVALUATION ----------------------------


 * One electron integrals 
 Pre-screening matrix                    ... done
 Shell pair data                         ... done (   0.000 sec)



           ************************************************************
           *        Program running with 24 parallel MPI-processes    *
           *              working on a common directory               *
           ************************************************************
-------------------------------------------------------------------------------
                                 ORCA SCF
-------------------------------------------------------------------------------

------------
SCF SETTINGS
------------
Hamiltonian:
 Density Functional     Method          .... DFT(GTOs)
 Exchange Functional    Exchange        .... TPSS
 Correlation Functional Correlation     .... TPSS
 LDA part of GGA corr.  LDAOpt          .... PW91-LDA
 Gradients option       PostSCFGGA      .... off
 Hybrid DFT is turned on
   Fraction HF Exchange ScalHFX         ....  0.100000
   Scaling of DF-GGA-X  ScalDFX         ....  0.900000
   Scaling of DF-GGA-C  ScalDFC         ....  1.000000
   Scaling of DF-LDA-C  ScalLDAC        ....  1.000000
   Perturbative correction              ....  0.000000
   Density functional embedding theory  .... OFF
   NL short-range parameter             ....  5.200000


General Settings:
 Integral files         IntName         .... 24_N2
 Hartree-Fock type      HFTyp           .... RHF
 Total Charge           Charge          ....    0
 Multiplicity           Mult            ....    1
 Number of Electrons    NEL             ....   14
 Basis Dimension        Dim             ....   92
 Nuclear Repulsion      ENuc            ....     23.7190656262 Eh

Convergence Acceleration:
 DIIS                   CNVDIIS         .... on
   Start iteration      DIISMaxIt       ....    12
   Startup error        DIISStart       ....  0.200000
   # of expansion vecs  DIISMaxEq       ....     5
   Bias factor          DIISBfac        ....   1.050
   Max. coefficient     DIISMaxC        ....  10.000
 Newton-Raphson         CNVNR           .... off
 SOSCF                  CNVSOSCF        .... on
   Start iteration      SOSCFMaxIt      ....   150
   Startup grad/error   SOSCFStart      ....  0.003300
 Level Shifting         CNVShift        .... on
   Level shift para.    LevelShift      ....    0.2500
   Turn off err/grad.   ShiftErr        ....    0.0010
 Zerner damping         CNVZerner       .... off
 Static damping         CNVDamp         .... on
   Fraction old density DampFac         ....    0.7000
   Max. Damping (<1)    DampMax         ....    0.9800
   Min. Damping (>=0)   DampMin         ....    0.0000
   Turn off err/grad.   DampErr         ....    0.1000
 Fernandez-Rico         CNVRico         .... off

SCF Procedure:
 Maximum # iterations   MaxIter         ....   125
 SCF integral mode      SCFMode         .... Direct
   Integral package                     .... LIBINT
 Reset frequency        DirectResetFreq ....    20
 Integral Threshold     Thresh          ....  2.500e-11 Eh
 Primitive CutOff       TCut            ....  2.500e-12 Eh

Convergence Tolerance:
 Convergence Check Mode ConvCheckMode   .... Total+1el-Energy
 Convergence forced     ConvForced      .... 0
 Energy Change          TolE            ....  1.000e-08 Eh
 1-El. energy change                    ....  1.000e-05 Eh
 Orbital Gradient       TolG            ....  1.000e-05
 Orbital Rotation angle TolX            ....  1.000e-05
 DIIS Error             TolErr          ....  5.000e-07


Diagonalization of the overlap matrix:
Smallest eigenvalue                        ... 6.748e-05
Time for diagonalization                   ...    0.003 sec
Threshold for overlap eigenvalues          ... 1.000e-08
Number of eigenvalues below threshold      ... 0
Time for construction of square roots      ...    0.001 sec
Total time needed                          ...    0.005 sec

-------------------
DFT GRID GENERATION
-------------------

General Integration Accuracy     IntAcc      ...  4.340
Radial Grid Type                 RadialGrid  ... Gauss-Chebyshev
Angular Grid (max. acc.)         AngularGrid ... Lebedev-110
Angular grid pruning method      GridPruning ... 3 (G Style)
Weight generation scheme         WeightScheme... Becke
Basis function cutoff            BFCut       ...    1.0000e-11
Integration weight cutoff        WCut        ...    1.0000e-14
Grids for H and He will be reduced by one unit

# of grid points (after initial pruning)     ...   3404 (   0.0 sec)
# of grid points (after weights+screening)   ...   3378 (   0.0 sec)
nearest neighbour list constructed           ...    0.0 sec
Grid point re-assignment to atoms done       ...    0.0 sec
Grid point division into batches done        ...    0.0 sec
Reduced shell lists constructed in    0.0 sec

Total number of grid points                  ...     3378
Total number of batches                      ...       54
Average number of points per batch           ...       62
Average number of grid points per atom       ...     1689
Average number of shells per batch           ...    16.00 (57.14%)
Average number of basis functions per batch  ...    53.00 (57.61%)
Average number of large shells per batch     ...    12.75 (79.69%)
Average number of large basis fcns per batch ...    41.25 (77.83%)
Maximum spatial batch extension              ...  13.40, 19.31, 25.65 au
Average spatial batch extension              ...   0.74,  0.87,  1.31 au

Time for grid setup =    0.016 sec

------------------------------
INITIAL GUESS: MODEL POTENTIAL
------------------------------
Loading Hartree-Fock densities                     ... done
Calculating cut-offs                               ... done
Setting up the integral package                    ... done
Initializing the effective Hamiltonian             ... done
Starting the Coulomb interaction                   ... done (   0.0 sec)
Reading the grid                                   ... done
Mapping shells                                     ... done
Starting the XC term evaluation                    ... done (   0.0 sec)
  promolecular density results
     # of electrons  =     13.999976198
     EX              =    -12.976555203
     EC              =     -0.447341180
     EX+EC           =    -13.423896384
Transforming the Hamiltonian                       ... done (   0.0 sec)
Diagonalizing the Hamiltonian                      ... done (   0.0 sec)
Back transforming the eigenvectors                 ... done (   0.0 sec)
Now organizing SCF variables                       ... done
                      ------------------
                      INITIAL GUESS DONE (   0.1 sec)
                      ------------------
--------------
SCF ITERATIONS
--------------
ITER       Energy         Delta-E        Max-DP      RMS-DP      [F,P]     Damp
               ***  Starting incremental Fock matrix formation  ***
  0   -109.5560859806   0.000000000000 0.06889516  0.00155120  0.0719849 0.7000
  1   -109.5619790630  -0.005893082348 0.05261094  0.00121744  0.0428155 0.7000
                               ***Turning on DIIS***
  2   -109.5649819439  -0.003002880972 0.12085746  0.00283220  0.0220831 0.0000
  3   -109.5697193303  -0.004737386342 0.00750464  0.00031793  0.0155601 0.0000
                      *** Initiating the SOSCF procedure ***
                           *** Shutting down DIIS ***
                      *** Re-Reading the Fockian *** 
                      *** Removing any level shift *** 
ITER      Energy       Delta-E        Grad      Rot      Max-DP    RMS-DP
  4   -109.57048387  -0.0007645420  0.000950  0.000950  0.002826  0.000084
               *** Restarting incremental Fock matrix formation ***
  5   -109.57049449  -0.0000106154  0.000275  0.000591  0.001353  0.000033
  6   -109.57049503  -0.0000005455  0.000085  0.000068  0.000116  0.000005
  7   -109.57049509  -0.0000000523  0.000037  0.000025  0.000102  0.000002
                  ***Gradient check signals convergence***
              ***Rediagonalizing the Fockian in SOSCF/NRSCF***

               *****************************************************
               *                     SUCCESS                       *
               *           SCF CONVERGED AFTER   8 CYCLES          *
               *****************************************************

Setting up the final grid:

General Integration Accuracy     IntAcc      ...  4.670
Radial Grid Type                 RadialGrid  ... Gauss-Chebyshev
Angular Grid (max. acc.)         AngularGrid ... Lebedev-302
Angular grid pruning method      GridPruning ... 3 (G Style)
Weight generation scheme         WeightScheme... Becke
Basis function cutoff            BFCut       ...    1.0000e-11
Integration weight cutoff        WCut        ...    1.0000e-14
Grids for H and He will be reduced by one unit

# of grid points (after initial pruning)     ...  12424 (   0.0 sec)
# of grid points (after weights+screening)   ...  12394 (   0.0 sec)
nearest neighbour list constructed           ...    0.0 sec
Grid point re-assignment to atoms done       ...    0.0 sec
Grid point division into batches done        ...    0.1 sec
Reduced shell lists constructed in    0.1 sec

Total number of grid points                  ...    12394
Total number of batches                      ...      194
Average number of points per batch           ...       63
Average number of grid points per atom       ...     6197
Average number of shells per batch           ...    10.00 (35.71%)
Average number of basis functions per batch  ...    30.60 (33.26%)
Average number of large shells per batch     ...     7.70 (77.00%)
Average number of large basis fcns per batch ...    21.30 (69.61%)
Maximum spatial batch extension              ...  11.84, 19.94, 19.94 au
Average spatial batch extension              ...   0.47,  0.65,  0.65 au

Final grid set up in    0.1 sec
Final integration                            ... done (   0.0 sec)
Change in XC energy                          ...     0.000001997
Integrated number of electrons               ...    13.999996829
Previous integrated no of electrons          ...    14.000019156

----------------
TOTAL SCF ENERGY
----------------

Total Energy       :         -109.57049310 Eh           -2981.56470 eV

Components:
Nuclear Repulsion  :           23.71906563 Eh             645.42859 eV
Electronic Energy  :         -133.28955872 Eh           -3626.99329 eV
One Electron Energy:         -194.75528212 Eh           -5299.56065 eV
Two Electron Energy:           61.46572340 Eh            1672.56737 eV

Virial components:
Potential Energy   :         -218.63175572 Eh           -5949.27253 eV
Kinetic Energy     :          109.06126262 Eh            2967.70783 eV
Virial Ratio       :            2.00466921


DFT components:
N(Alpha)           :        6.999998414510 electrons
N(Beta)            :        6.999998414510 electrons
N(Total)           :       13.999996829020 electrons
E(X)               :      -11.943236243780 Eh       
E(C)               :       -0.456719107196 Eh       
E(XC)              :      -12.399955350975 Eh       
DFET-embed. en.    :        0.000000000000 Eh       

---------------
SCF CONVERGENCE
---------------

  Last Energy change         ...   -7.7993e-09  Tolerance :   1.0000e-08
  Last MAX-Density change    ...    9.1869e-06  Tolerance :   1.0000e-07
  Last RMS-Density change    ...    2.0996e-07  Tolerance :   5.0000e-09
  Last Orbital Gradient      ...    1.2326e-06  Tolerance :   1.0000e-05
  Last Orbital Rotation      ...    2.7157e-06  Tolerance :   1.0000e-05

             **** THE GBW FILE WAS UPDATED (24_N2.gbw) ****
             **** DENSITY FILE WAS UPDATED (24_N2.scfp) ****
             **** ENERGY FILE WAS UPDATED (24_N2.en.tmp) ****
             **** THE GBW FILE WAS UPDATED (24_N2.gbw) ****
             **** DENSITY FILE WAS UPDATED (24_N2.scfp) ****
----------------
ORBITAL ENERGIES
----------------

  NO   OCC          E(Eh)            E(eV) 
   0   2.0000     -14.351967      -390.5369 
   1   2.0000     -14.350369      -390.4934 
   2   2.0000      -1.103441       -30.0262 
   3   2.0000      -0.539149       -14.6710 
   4   2.0000      -0.452710       -12.3189 
   5   2.0000      -0.452710       -12.3189 
   6   2.0000      -0.411573       -11.1995 
   7   0.0000      -0.044333        -1.2064 
   8   0.0000      -0.044333        -1.2064 
   9   0.0000       0.051159         1.3921 
  10   0.0000       0.053046         1.4434 
  11   0.0000       0.070569         1.9203 
  12   0.0000       0.070569         1.9203 
  13   0.0000       0.111600         3.0368 
  14   0.0000       0.131151         3.5688 
  15   0.0000       0.131151         3.5688 
  16   0.0000       0.220963         6.0127 
  17   0.0000       0.299002         8.1363 
  18   0.0000       0.299235         8.1426 
  19   0.0000       0.377869        10.2823 
  20   0.0000       0.415146        11.2967 
  21   0.0000       0.457460        12.4481 
  22   0.0000       0.457460        12.4481 
  23   0.0000       0.463744        12.6191 
  24   0.0000       0.463744        12.6191 
  25   0.0000       0.478467        13.0197 
  26   0.0000       0.479353        13.0439 
  27   0.0000       0.562898        15.3172 
  28   0.0000       0.562898        15.3172 
  29   0.0000       0.608443        16.5566 
  30   0.0000       0.618667        16.8348 
  31   0.0000       0.818801        22.2807 
  32   0.0000       0.887445        24.1486 
  33   0.0000       0.887445        24.1486 
  34   0.0000       1.029803        28.0224 
  35   0.0000       1.117494        30.4085 
  36   0.0000       1.117656        30.4130 
  37   0.0000       1.182947        32.1896 
  38   0.0000       1.182947        32.1896 
  39   0.0000       1.237655        33.6783 
  40   0.0000       1.237655        33.6783 
  41   0.0000       1.353409        36.8281 
  42   0.0000       1.353529        36.8314 
  43   0.0000       1.404000        38.2048 
  44   0.0000       1.478013        40.2188 
  45   0.0000       1.499373        40.8000 
  46   0.0000       1.499769        40.8108 
  47   0.0000       1.516934        41.2779 
  48   0.0000       1.516934        41.2779 
  49   0.0000       1.536001        41.7967 
  50   0.0000       1.536001        41.7967 
  51   0.0000       1.762335        47.9556 
  52   0.0000       1.935509        52.6679 
  53   0.0000       1.935509        52.6679 
  54   0.0000       2.089841        56.8675 
  55   0.0000       2.089912        56.8694 
  56   0.0000       2.163596        58.8745 
  57   0.0000       2.163596        58.8745 
  58   0.0000       2.463445        67.0338 
  59   0.0000       2.490975        67.7829 
  60   0.0000       2.880213        78.3746 
  61   0.0000       2.880213        78.3746 
  62   0.0000       3.641150        99.0807 
  63   0.0000       3.903532       106.2205 
  64   0.0000       3.903532       106.2205 
  65   0.0000       4.042266       109.9957 
  66   0.0000       4.043168       110.0202 
  67   0.0000       4.121402       112.1490 
  68   0.0000       4.140558       112.6703 
  69   0.0000       4.140558       112.6703 
  70   0.0000       4.146091       112.8209 
  71   0.0000       4.328520       117.7850 
  72   0.0000       4.328520       117.7850 
  73   0.0000       4.678245       127.3015 
  74   0.0000       4.680095       127.3519 
  75   0.0000       4.712202       128.2255 
  76   0.0000       4.712202       128.2255 
  77   0.0000       4.768527       129.7582 
  78   0.0000       4.770609       129.8149 
  79   0.0000       4.848309       131.9292 
  80   0.0000       5.016129       136.4958 
  81   0.0000       5.016129       136.4958 
  82   0.0000       5.220297       142.0515 
  83   0.0000       5.220297       142.0515 
  84   0.0000       5.389451       146.6544 
  85   0.0000       5.390955       146.6953 
  86   0.0000       6.285101       171.0263 
  87   0.0000       6.326177       172.1440 
  88   0.0000       6.495875       176.7618 
  89   0.0000       6.495875       176.7618 
  90   0.0000      10.346556       281.5441 
  91   0.0000      18.656330       507.6646 

                    ********************************
                    * MULLIKEN POPULATION ANALYSIS *
                    ********************************

-----------------------
MULLIKEN ATOMIC CHARGES
-----------------------
   0 N :    0.000000
   1 N :   -0.000000
Sum of atomic charges:   -0.0000000

--------------------------------
MULLIKEN REDUCED ORBITAL CHARGES
--------------------------------
  0 N s       :     4.002089  s :     4.002089
      pz      :     0.971720  p :     2.938521
      px      :     0.995080
      py      :     0.971720
      dz2     :     0.000149  d :     0.052713
      dxz     :     0.026059
      dyz     :     0.000000
      dx2y2   :     0.000447
      dxy     :     0.026059
      f0      :     0.000835  f :     0.006678
      f+1     :     0.000838
      f-1     :     0.000138
      f+2     :     0.001386
      f-2     :     0.000000
      f+3     :     0.001397
      f-3     :     0.002083
  1 N s       :     4.002089  s :     4.002089
      pz      :     0.971720  p :     2.938521
      px      :     0.995080
      py      :     0.971720
      dz2     :     0.000149  d :     0.052713
      dxz     :     0.026059
      dyz     :     0.000000
      dx2y2   :     0.000447
      dxy     :     0.026059
      f0      :     0.000835  f :     0.006678
      f+1     :     0.000838
      f-1     :     0.000138
      f+2     :     0.001386
      f-2     :     0.000000
      f+3     :     0.001397
      f-3     :     0.002083


                     *******************************
                     * LOEWDIN POPULATION ANALYSIS *
                     *******************************

----------------------
LOEWDIN ATOMIC CHARGES
----------------------
   0 N :    0.000000
   1 N :   -0.000000

-------------------------------
LOEWDIN REDUCED ORBITAL CHARGES
-------------------------------
  0 N s       :     3.281249  s :     3.281249
      pz      :     0.883498  p :     3.225182
      px      :     1.458187
      py      :     0.883498
      dz2     :     0.048926  d :     0.342155
      dxz     :     0.073224
      dyz     :     0.000000
      dx2y2   :     0.146779
      dxy     :     0.073224
      f0      :     0.016231  f :     0.151414
      f+1     :     0.024322
      f-1     :     0.002704
      f+2     :     0.027047
      f-2     :     0.000000
      f+3     :     0.040536
      f-3     :     0.040574
  1 N s       :     3.281249  s :     3.281249
      pz      :     0.883498  p :     3.225182
      px      :     1.458187
      py      :     0.883498
      dz2     :     0.048926  d :     0.342155
      dxz     :     0.073224
      dyz     :     0.000000
      dx2y2   :     0.146779
      dxy     :     0.073224
      f0      :     0.016231  f :     0.151414
      f+1     :     0.024322
      f-1     :     0.002704
      f+2     :     0.027047
      f-2     :     0.000000
      f+3     :     0.040536
      f-3     :     0.040574


                      *****************************
                      * MAYER POPULATION ANALYSIS *
                      *****************************

  NA   - Mulliken gross atomic population
  ZA   - Total nuclear charge
  QA   - Mulliken gross atomic charge
  VA   - Mayer's total valence
  BVA  - Mayer's bonded valence
  FA   - Mayer's free valence

  ATOM       NA         ZA         QA         VA         BVA        FA
  0 N      7.0000     7.0000     0.0000     2.0036     2.0036     0.0000
  1 N      7.0000     7.0000    -0.0000     2.0036     2.0036    -0.0000

  Mayer bond orders larger than 0.100000
B(  0-N ,  1-N ) :   2.0036 

-------
TIMINGS
-------

Total SCF time: 0 days 0 hours 0 min 1 sec 

Total time                  ....       1.425 sec
Sum of individual times     ....       1.232 sec  ( 86.5%)

Fock matrix formation       ....       1.024 sec  ( 71.9%)
  XC integration            ....       0.075 sec  (  7.3% of F)
    Basis function eval.    ....       0.006 sec  (  7.6% of XC)
    Density eval.           ....       0.007 sec  (  9.5% of XC)
    XC-Functional eval.     ....       0.004 sec  (  5.6% of XC)
    XC-Potential eval.      ....       0.016 sec  ( 21.3% of XC)
Diagonalization             ....       0.005 sec  (  0.4%)
Density matrix formation    ....       0.002 sec  (  0.2%)
Population analysis         ....       0.003 sec  (  0.2%)
Initial guess               ....       0.114 sec  (  8.0%)
Orbital Transformation      ....       0.000 sec  (  0.0%)
Orbital Orthonormalization  ....       0.000 sec  (  0.0%)
DIIS solution               ....       0.002 sec  (  0.1%)
SOSCF solution              ....       0.003 sec  (  0.2%)
Grid generation             ....       0.079 sec  (  5.6%)


-------------------------------------------------------------------------------
                          DFT DISPERSION CORRECTION                            
                                                                               
                              DFTD3 V3.1  Rev 1                                
                          USING Becke-Johnson damping                          
-------------------------------------------------------------------------------
The TPSSH functional is recognized
Active option DFTDOPT                   ...         4   

molecular C6(AA) [au] = 88.548931 


            DFT-D V3
 parameters
 s6 scaling factor         :     1.0000 
 a1 scaling factor         :     0.4529 
 s8 scaling factor         :     2.2382 
 a2 scaling factor         :     4.6550 
 ad hoc parameters k1-k3   :    16.0000     1.3333    -4.0000 

 Edisp/kcal,au: -0.295813577141  -0.000471408892 
 E6   /kcal   :  -0.142614810 
 E8   /kcal   :  -0.153198767 
 % E8         :  51.788957370 

-------------------------   ----------------
Dispersion correction           -0.000471409
-------------------------   ----------------


-------------------------   --------------------
FINAL SINGLE POINT ENERGY      -109.570964505518
-------------------------   --------------------



           ************************************************************
           *        Program running with 24 parallel MPI-processes    *
           *              working on a common directory               *
           ************************************************************
------------------------------------------------------------------------------
                         ORCA SCF GRADIENT CALCULATION
------------------------------------------------------------------------------

Gradient of the Kohn-Sham DFT energy:
Kohn-Sham wavefunction type      ... RKS
Hartree-Fock exchange scaling    ...    0.100
Number of operators              ...    1
Number of atoms                  ...    2
Basis set dimensions             ...   92
Integral neglect threshold       ... 2.5e-11
Integral primitive cutoff        ... 2.5e-12

Nuclear repulsion gradient       ... done
One Electron Gradient            ... done
Pre-screening matrix             ... done
Starting the two electron gradient:
Two electron gradient done
Exchange-correlation gradient    ... done
Dispersion correction            ... done

------------------
CARTESIAN GRADIENT
------------------

   1   N   :   -0.005964066   -0.000000001   -0.000000001
   2   N   :    0.005964066    0.000000001    0.000000001

Difference to translation invariance:
           :    0.0000000000    0.0000000004    0.0000000006

Norm of the cartesian gradient     ...    0.0084344631
RMS gradient                       ...    0.0034433551
MAX gradient                       ...    0.0059640661

-------
TIMINGS
-------

Total SCF gradient time            ...        0.392 sec

One electron gradient       ....       0.016 sec  (  4.0%)
Prescreening matrices       ....       0.016 sec  (  4.0%)
Two electron gradient       ....       0.148 sec  ( 37.6%)
XC gradient                 ....       0.019 sec  (  4.8%)
------------------------------------------------------------------------------
                         ORCA GEOMETRY RELAXATION STEP
------------------------------------------------------------------------------

Reading the OPT-File                    .... done
Getting information on internals        .... done
Copying old internal coords+grads       .... done
Making the new internal coordinates     .... (new redundants).... done
Validating the new internal coordinates .... (new redundants).... done
Calculating the B-matrix                .... done
Calculating the G,G- and P matrices     .... done
Transforming gradient to internals      .... done
Projecting the internal gradient        .... done
Number of atoms                         ....   2
Number of internal coordinates          ....   1
Current Energy                          ....  -109.570964506 Eh
Current gradient norm                   ....     0.008434463 Eh/bohr
Maximum allowed component of the step   ....  0.300
Current trust radius                    ....  0.300
Evaluating the initial hessian          ....  (Almloef) done
Projecting the Hessian                  .... done
Forming the augmented Hessian           .... done
Diagonalizing the augmented Hessian     .... done
Last element of RFO vector              ....  0.999992002
Lowest eigenvalues of augmented Hessian:
 -0.000023853
Length of the computed step             ....  0.003999426
The final length of the internal step   ....  0.003999426
Converting the step to cartesian space:
 Initial RMS(Int)=    0.0039994263
Transforming coordinates:
 Iter   0:  RMS(Cart)=    0.0011545349 RMS(Int)=    0.0039994263
 Iter   1:  RMS(Cart)=    0.0000000000 RMS(Int)=    0.0000000000
done
Storing new coordinates                 .... done

                                .--------------------.
          ----------------------|Geometry convergence|-------------------------
          Item                value                   Tolerance       Converged
          ---------------------------------------------------------------------
          RMS gradient        0.0059640660            0.0001000000      NO
          MAX gradient        0.0059640660            0.0003000000      NO
          RMS step            0.0039994263            0.0020000000      NO
          MAX step            0.0039994263            0.0040000000      YES
          ........................................................
          Max(Bonds)      0.0021      Max(Angles)    0.00
          Max(Dihed)        0.00      Max(Improp)    0.00
          ---------------------------------------------------------------------

The optimization has not yet converged - more geometry cycles are needed


    ---------------------------------------------------------------------------
                         Redundant Internal Coordinates
                            (Angstroem and degrees)

        Definition                    Value    dE/dq     Step     New-Value
    ----------------------------------------------------------------------------
     1. B(N   1,N   0)                1.0932 -0.005964  0.0021    1.0953   
    ----------------------------------------------------------------------------

         *************************************************************
         *                GEOMETRY OPTIMIZATION CYCLE   2            *
         *************************************************************
---------------------------------
CARTESIAN COORDINATES (ANGSTROEM)
---------------------------------
  N      0.547658    0.000000    0.000000
  N     -0.547658    0.000000    0.000000

----------------------------
CARTESIAN COORDINATES (A.U.)
----------------------------
  NO LB      ZA    FRAG     MASS         X           Y           Z
   0 N     7.0000    0    14.007    1.034924    0.000000    0.000000
   1 N     7.0000    0    14.007   -1.034924    0.000000    0.000000

--------------------------------
INTERNAL COORDINATES (ANGSTROEM)
--------------------------------
 N      0   0   0     0.000000000000     0.00000000     0.00000000
 N      1   0   0     1.095316433247     0.00000000     0.00000000

---------------------------
INTERNAL COORDINATES (A.U.)
---------------------------
 N      0   0   0     0.000000000000     0.00000000     0.00000000
 N      1   0   0     2.069848088820     0.00000000     0.00000000



           ************************************************************
           *        Program running with 24 parallel MPI-processes    *
           *              working on a common directory               *
           ************************************************************


           ************************************************************
           *        Program running with 24 parallel MPI-processes    *
           *              working on a common directory               *
           ************************************************************

Diagonalization of the overlap matrix:
Smallest eigenvalue                        ... 6.802e-05
Time for diagonalization                   ...    0.003 sec
Threshold for overlap eigenvalues          ... 1.000e-08
Number of eigenvalues below threshold      ... 0
Time for construction of square roots      ...    0.001 sec
Total time needed                          ...    0.005 sec

-------------------
DFT GRID GENERATION
-------------------

General Integration Accuracy     IntAcc      ...  4.340
Radial Grid Type                 RadialGrid  ... Gauss-Chebyshev
Angular Grid (max. acc.)         AngularGrid ... Lebedev-110
Angular grid pruning method      GridPruning ... 3 (G Style)
Weight generation scheme         WeightScheme... Becke
Basis function cutoff            BFCut       ...    1.0000e-11
Integration weight cutoff        WCut        ...    1.0000e-14
Grids for H and He will be reduced by one unit

# of grid points (after initial pruning)     ...   3404 (   0.0 sec)
# of grid points (after weights+screening)   ...   3378 (   0.0 sec)
nearest neighbour list constructed           ...    0.0 sec
Grid point re-assignment to atoms done       ...    0.0 sec
Grid point division into batches done        ...    0.0 sec
Reduced shell lists constructed in    0.0 sec

Total number of grid points                  ...     3378
Total number of batches                      ...       54
Average number of points per batch           ...       62
Average number of grid points per atom       ...     1689
Average number of shells per batch           ...    16.00 (57.14%)
Average number of basis functions per batch  ...    53.00 (57.61%)
Average number of large shells per batch     ...    12.75 (79.69%)
Average number of large basis fcns per batch ...    41.25 (77.83%)
Maximum spatial batch extension              ...  13.41, 19.31, 25.65 au
Average spatial batch extension              ...   0.74,  0.87,  1.31 au

Time for grid setup =    0.012 sec

--------------
SCF ITERATIONS
--------------
ITER       Energy         Delta-E        Max-DP      RMS-DP      [F,P]     Damp
               ***  Starting incremental Fock matrix formation  ***
                      *** Initiating the SOSCF procedure ***
                      *** Re-Reading the Fockian *** 
                      *** Removing any level shift *** 
ITER      Energy       Delta-E        Grad      Rot      Max-DP    RMS-DP
  0   -109.57050396 -109.5705039574  0.000754  0.000754  0.001134  0.000037
               *** Restarting incremental Fock matrix formation ***
  1   -109.57050798  -0.0000040235  0.000214  0.000198  0.000357  0.000016
  2   -109.57050819  -0.0000002112  0.000120  0.000078  0.000104  0.000004
  3   -109.57050832  -0.0000001292  0.000004  0.000003  0.000026  0.000001
                 **** Energy Check signals convergence ****
              ***Rediagonalizing the Fockian in SOSCF/NRSCF***

               *****************************************************
               *                     SUCCESS                       *
               *           SCF CONVERGED AFTER   4 CYCLES          *
               *****************************************************

Setting up the final grid:

General Integration Accuracy     IntAcc      ...  4.670
Radial Grid Type                 RadialGrid  ... Gauss-Chebyshev
Angular Grid (max. acc.)         AngularGrid ... Lebedev-302
Angular grid pruning method      GridPruning ... 3 (G Style)
Weight generation scheme         WeightScheme... Becke
Basis function cutoff            BFCut       ...    1.0000e-11
Integration weight cutoff        WCut        ...    1.0000e-14
Grids for H and He will be reduced by one unit

# of grid points (after initial pruning)     ...  12424 (   0.0 sec)
# of grid points (after weights+screening)   ...  12394 (   0.0 sec)
nearest neighbour list constructed           ...    0.0 sec
Grid point re-assignment to atoms done       ...    0.0 sec
Grid point division into batches done        ...    0.1 sec
Reduced shell lists constructed in    0.1 sec

Total number of grid points                  ...    12394
Total number of batches                      ...      194
Average number of points per batch           ...       63
Average number of grid points per atom       ...     6197
Average number of shells per batch           ...    10.00 (35.71%)
Average number of basis functions per batch  ...    30.60 (33.26%)
Average number of large shells per batch     ...     7.70 (77.00%)
Average number of large basis fcns per batch ...    21.30 (69.61%)
Maximum spatial batch extension              ...  11.84, 19.94, 19.94 au
Average spatial batch extension              ...   0.47,  0.65,  0.65 au

Final grid set up in    0.1 sec
Final integration                            ... done (   0.0 sec)
Change in XC energy                          ...     0.000003713
Integrated number of electrons               ...    13.999996412
Previous integrated no of electrons          ...    14.000019340
Total Energy       :         -109.57050461 Eh           -2981.56501 eV
  Last Energy change         ...   -1.0868e-10  Tolerance :   1.0000e-08
  Last MAX-Density change    ...    3.4076e-06  Tolerance :   1.0000e-07
             **** THE GBW FILE WAS UPDATED (24_N2.gbw) ****
             **** DENSITY FILE WAS UPDATED (24_N2.scfp) ****
             **** ENERGY FILE WAS UPDATED (24_N2.en.tmp) ****
             **** THE GBW FILE WAS UPDATED (24_N2.gbw) ****
             **** DENSITY FILE WAS UPDATED (24_N2.scfp) ****
Total SCF time: 0 days 0 hours 0 min 0 sec 


-------------------------------------------------------------------------------
                          DFT DISPERSION CORRECTION                            
                                                                               
                              DFTD3 V3.1  Rev 1                                
                          USING Becke-Johnson damping                          
-------------------------------------------------------------------------------
-------------------------   ----------------
Dispersion correction           -0.000471406
-------------------------   ----------------


-------------------------   --------------------
FINAL SINGLE POINT ENERGY      -109.570976014641
-------------------------   --------------------



           ************************************************************
           *        Program running with 24 parallel MPI-processes    *
           *              working on a common directory               *
           ************************************************************
------------------------------------------------------------------------------
                         ORCA SCF GRADIENT CALCULATION
------------------------------------------------------------------------------

Gradient of the Kohn-Sham DFT energy:
Kohn-Sham wavefunction type      ... RKS
Hartree-Fock exchange scaling    ...    0.100
Number of operators              ...    1
Number of atoms                  ...    2
Basis set dimensions             ...   92
Integral neglect threshold       ... 2.5e-11
Integral primitive cutoff        ... 2.5e-12

Nuclear repulsion gradient       ... done
One Electron Gradient            ... done
Pre-screening matrix             ... done
Starting the two electron gradient:
Two electron gradient done
Exchange-correlation gradient    ... done
Dispersion correction            ... done

------------------
CARTESIAN GRADIENT
------------------

   1   N   :    0.000257097   -0.000000001    0.000000000
   2   N   :   -0.000257099    0.000000001    0.000000001

Difference to translation invariance:
           :   -0.0000000019    0.0000000003    0.0000000015

Norm of the cartesian gradient     ...    0.0003635920
RMS gradient                       ...    0.0001484358
MAX gradient                       ...    0.0002570993

-------
TIMINGS
-------

Total SCF gradient time            ...        0.396 sec

One electron gradient       ....       0.019 sec  (  4.7%)
Prescreening matrices       ....       0.015 sec  (  3.9%)
Two electron gradient       ....       0.147 sec  ( 37.0%)
XC gradient                 ....       0.019 sec  (  4.9%)
------------------------------------------------------------------------------
                         ORCA GEOMETRY RELAXATION STEP
------------------------------------------------------------------------------

Reading the OPT-File                    .... done
Getting information on internals        .... done
Copying old internal coords+grads       .... done
Making the new internal coordinates     .... (new redundants).... done
Validating the new internal coordinates .... (new redundants).... done
Calculating the B-matrix                .... done
Calculating the G,G- and P matrices     .... done
Transforming gradient to internals      .... done
Projecting the internal gradient        .... done
Number of atoms                         ....   2
Number of internal coordinates          ....   1
Current Energy                          ....  -109.570976015 Eh
Current gradient norm                   ....     0.000363592 Eh/bohr
Maximum allowed component of the step   ....  0.300
Current trust radius                    ....  0.300
Updating the Hessian (BFGS)             .... done
Forming the augmented Hessian           .... done
Diagonalizing the augmented Hessian     .... done
Last element of RFO vector              ....  0.999999986
Lowest eigenvalues of augmented Hessian:
 -0.000000042
Length of the computed step             ....  0.000165282
The final length of the internal step   ....  0.000165282
Converting the step to cartesian space:
 Initial RMS(Int)=    0.0001652819
Transforming coordinates:
 Iter   0:  RMS(Cart)=    0.0000477128 RMS(Int)=    0.0001652819
 Iter   1:  RMS(Cart)=    0.0000000000 RMS(Int)=    0.0000000000
done
Storing new coordinates                 .... done

                                .--------------------.
          ----------------------|Geometry convergence|-------------------------
          Item                value                   Tolerance       Converged
          ---------------------------------------------------------------------
          Energy change      -0.0000115091            0.0000050000      NO
          RMS gradient        0.0002570984            0.0001000000      NO
          MAX gradient        0.0002570984            0.0003000000      YES
          RMS step            0.0001652819            0.0020000000      YES
          MAX step            0.0001652819            0.0040000000      YES
          ........................................................
          Max(Bonds)      0.0001      Max(Angles)    0.00
          Max(Dihed)        0.00      Max(Improp)    0.00
          ---------------------------------------------------------------------

       The step convergence is overachieved with 
       reasonable convergence on the gradient
       Convergence will therefore be signaled now


                    ***********************HURRAY********************
                    ***        THE OPTIMIZATION HAS CONVERGED     ***
                    *************************************************


    ---------------------------------------------------------------------------
                         Redundant Internal Coordinates

                          --- Optimized Parameters ---  
                            (Angstroem and degrees)

        Definition                    OldVal   dE/dq     Step     FinalVal
    ----------------------------------------------------------------------------
     1. B(N   1,N   0)                1.0953  0.000257 -0.0001    1.0952   
    ----------------------------------------------------------------------------
                 *******************************************************
                 *** FINAL ENERGY EVALUATION AT THE STATIONARY POINT ***
                 ***               (AFTER    2 CYCLES)               ***
                 *******************************************************
---------------------------------
CARTESIAN COORDINATES (ANGSTROEM)
---------------------------------
  N      0.547614    0.000000    0.000000
  N     -0.547614    0.000000    0.000000

----------------------------
CARTESIAN COORDINATES (A.U.)
----------------------------
  NO LB      ZA    FRAG     MASS         X           Y           Z
   0 N     7.0000    0    14.007    1.034841    0.000000    0.000000
   1 N     7.0000    0    14.007   -1.034841    0.000000    0.000000

--------------------------------
INTERNAL COORDINATES (ANGSTROEM)
--------------------------------
 N      0   0   0     0.000000000000     0.00000000     0.00000000
 N      1   0   0     1.095228969831     0.00000000     0.00000000

---------------------------
INTERNAL COORDINATES (A.U.)
---------------------------
 N      0   0   0     0.000000000000     0.00000000     0.00000000
 N      1   0   0     2.069682806917     0.00000000     0.00000000

---------------------
BASIS SET INFORMATION
---------------------
There are 1 groups of distinct atoms

 Group   1 Type N   : 19s6p3d2f contracted to 5s4p3d2f pattern {88111/3111/111/11}

Atom   0N    basis set group =>   1
Atom   1N    basis set group =>   1
----------------------------------
AUXILIARY/JK BASIS SET INFORMATION
----------------------------------
There are 1 groups of distinct atoms

 Group   1 Type N   : 14s10p6d2f1g contracted to 10s8p4d2f1g pattern {5111111111/31111111/3111/11/1}

Atom   0N    basis set group =>   1
Atom   1N    basis set group =>   1


           ************************************************************
           *        Program running with 24 parallel MPI-processes    *
           *              working on a common directory               *
           ************************************************************
------------------------------------------------------------------------------
                           ORCA GTO INTEGRAL CALCULATION
------------------------------------------------------------------------------

                         BASIS SET STATISTICS AND STARTUP INFO

 # of primitive gaussian shells          ...   60
 # of primitive gaussian functions       ...  132
 # of contracted shells                  ...   28
 # of contracted basis functions         ...   92
 Highest angular momentum                ...    3
 Maximum contraction depth               ...    8
 Integral package used                   ... LIBINT
 Integral threshhold            Thresh   ...  2.500e-11
 Primitive cut-off              TCut     ...  2.500e-12


------------------------------ INTEGRAL EVALUATION ----------------------------


 * One electron integrals 
 Pre-screening matrix                    ... done
 Shell pair data                         ... done (   0.000 sec)



           ************************************************************
           *        Program running with 24 parallel MPI-processes    *
           *              working on a common directory               *
           ************************************************************
-------------------------------------------------------------------------------
                                 ORCA SCF
-------------------------------------------------------------------------------

------------
SCF SETTINGS
------------
Hamiltonian:
 Density Functional     Method          .... DFT(GTOs)
 Exchange Functional    Exchange        .... TPSS
 Correlation Functional Correlation     .... TPSS
 LDA part of GGA corr.  LDAOpt          .... PW91-LDA
 Gradients option       PostSCFGGA      .... off
 Hybrid DFT is turned on
   Fraction HF Exchange ScalHFX         ....  0.100000
   Scaling of DF-GGA-X  ScalDFX         ....  0.900000
   Scaling of DF-GGA-C  ScalDFC         ....  1.000000
   Scaling of DF-LDA-C  ScalLDAC        ....  1.000000
   Perturbative correction              ....  0.000000
   Density functional embedding theory  .... OFF
   NL short-range parameter             ....  5.200000


General Settings:
 Integral files         IntName         .... 24_N2
 Hartree-Fock type      HFTyp           .... RHF
 Total Charge           Charge          ....    0
 Multiplicity           Mult            ....    1
 Number of Electrons    NEL             ....   14
 Basis Dimension        Dim             ....   92
 Nuclear Repulsion      ENuc            ....     23.6751254039 Eh

Convergence Acceleration:
 DIIS                   CNVDIIS         .... on
   Start iteration      DIISMaxIt       ....    12
   Startup error        DIISStart       ....  0.200000
   # of expansion vecs  DIISMaxEq       ....     5
   Bias factor          DIISBfac        ....   1.050
   Max. coefficient     DIISMaxC        ....  10.000
 Newton-Raphson         CNVNR           .... off
 SOSCF                  CNVSOSCF        .... on
   Start iteration      SOSCFMaxIt      ....   150
   Startup grad/error   SOSCFStart      ....  0.003300
 Level Shifting         CNVShift        .... on
   Level shift para.    LevelShift      ....    0.2500
   Turn off err/grad.   ShiftErr        ....    0.0010
 Zerner damping         CNVZerner       .... off
 Static damping         CNVDamp         .... on
   Fraction old density DampFac         ....    0.7000
   Max. Damping (<1)    DampMax         ....    0.9800
   Min. Damping (>=0)   DampMin         ....    0.0000
   Turn off err/grad.   DampErr         ....    0.1000
 Fernandez-Rico         CNVRico         .... off

SCF Procedure:
 Maximum # iterations   MaxIter         ....   125
 SCF integral mode      SCFMode         .... Direct
   Integral package                     .... LIBINT
 Reset frequency        DirectResetFreq ....    20
 Integral Threshold     Thresh          ....  2.500e-11 Eh
 Primitive CutOff       TCut            ....  2.500e-12 Eh

Convergence Tolerance:
 Convergence Check Mode ConvCheckMode   .... Total+1el-Energy
 Convergence forced     ConvForced      .... 0
 Energy Change          TolE            ....  1.000e-08 Eh
 1-El. energy change                    ....  1.000e-05 Eh
 Orbital Gradient       TolG            ....  1.000e-05
 Orbital Rotation angle TolX            ....  1.000e-05
 DIIS Error             TolErr          ....  5.000e-07


Diagonalization of the overlap matrix:
Smallest eigenvalue                        ... 6.799e-05
Time for diagonalization                   ...    0.003 sec
Threshold for overlap eigenvalues          ... 1.000e-08
Number of eigenvalues below threshold      ... 0
Time for construction of square roots      ...    0.001 sec
Total time needed                          ...    0.004 sec

---------------------
INITIAL GUESS: MOREAD
---------------------
Guess MOs are being read from file: 24_N2.gbw
Input Geometry matches current geometry (good)
Input basis set matches current basis set (good)
MOs were renormalized
MOs were reorthogonalized (Cholesky)
                      ------------------
                      INITIAL GUESS DONE (   0.0 sec)
                      ------------------
-------------------
DFT GRID GENERATION
-------------------

General Integration Accuracy     IntAcc      ...  4.340
Radial Grid Type                 RadialGrid  ... Gauss-Chebyshev
Angular Grid (max. acc.)         AngularGrid ... Lebedev-110
Angular grid pruning method      GridPruning ... 3 (G Style)
Weight generation scheme         WeightScheme... Becke
Basis function cutoff            BFCut       ...    1.0000e-11
Integration weight cutoff        WCut        ...    1.0000e-14
Grids for H and He will be reduced by one unit

# of grid points (after initial pruning)     ...   3404 (   0.0 sec)
# of grid points (after weights+screening)   ...   3378 (   0.0 sec)
nearest neighbour list constructed           ...    0.0 sec
Grid point re-assignment to atoms done       ...    0.0 sec
Grid point division into batches done        ...    0.0 sec
Reduced shell lists constructed in    0.0 sec

Total number of grid points                  ...     3378
Total number of batches                      ...       54
Average number of points per batch           ...       62
Average number of grid points per atom       ...     1689
Average number of shells per batch           ...    16.00 (57.14%)
Average number of basis functions per batch  ...    53.00 (57.61%)
Average number of large shells per batch     ...    12.75 (79.69%)
Average number of large basis fcns per batch ...    41.25 (77.83%)
Maximum spatial batch extension              ...  13.41, 19.31, 25.65 au
Average spatial batch extension              ...   0.74,  0.87,  1.31 au

Time for grid setup =    0.012 sec

--------------
SCF ITERATIONS
--------------
ITER       Energy         Delta-E        Max-DP      RMS-DP      [F,P]     Damp
               ***  Starting incremental Fock matrix formation  ***
                      *** Initiating the SOSCF procedure ***
                      *** Re-Reading the Fockian *** 
                      *** Removing any level shift *** 
ITER      Energy       Delta-E        Grad      Rot      Max-DP    RMS-DP
  0   -109.57050826 -109.5705082589  0.000031  0.000031  0.000046  0.000002
               *** Restarting incremental Fock matrix formation ***
  1   -109.57050827  -0.0000000069  0.000009  0.000008  0.000015  0.000001
  2   -109.57050827  -0.0000000004  0.000005  0.000003  0.000004  0.000000
                 **** Energy Check signals convergence ****
              ***Rediagonalizing the Fockian in SOSCF/NRSCF***

               *****************************************************
               *                     SUCCESS                       *
               *           SCF CONVERGED AFTER   3 CYCLES          *
               *****************************************************

Setting up the final grid:

General Integration Accuracy     IntAcc      ...  4.670
Radial Grid Type                 RadialGrid  ... Gauss-Chebyshev
Angular Grid (max. acc.)         AngularGrid ... Lebedev-302
Angular grid pruning method      GridPruning ... 3 (G Style)
Weight generation scheme         WeightScheme... Becke
Basis function cutoff            BFCut       ...    1.0000e-11
Integration weight cutoff        WCut        ...    1.0000e-14
Grids for H and He will be reduced by one unit

# of grid points (after initial pruning)     ...  12424 (   0.0 sec)
# of grid points (after weights+screening)   ...  12394 (   0.0 sec)
nearest neighbour list constructed           ...    0.0 sec
Grid point re-assignment to atoms done       ...    0.0 sec
Grid point division into batches done        ...    0.1 sec
Reduced shell lists constructed in    0.1 sec

Total number of grid points                  ...    12394
Total number of batches                      ...      194
Average number of points per batch           ...       63
Average number of grid points per atom       ...     6197
Average number of shells per batch           ...    10.00 (35.71%)
Average number of basis functions per batch  ...    30.60 (33.26%)
Average number of large shells per batch     ...     7.70 (77.00%)
Average number of large basis fcns per batch ...    21.30 (69.61%)
Maximum spatial batch extension              ...  11.84, 19.94, 19.94 au
Average spatial batch extension              ...   0.47,  0.65,  0.65 au

Final grid set up in    0.1 sec
Final integration                            ... done (   0.1 sec)
Change in XC energy                          ...     0.000003640
Integrated number of electrons               ...    13.999996439
Previous integrated no of electrons          ...    14.000019333

----------------
TOTAL SCF ENERGY
----------------

Total Energy       :         -109.57050463 Eh           -2981.56501 eV

Components:
Nuclear Repulsion  :           23.67512540 Eh             644.23291 eV
Electronic Energy  :         -133.24563003 Eh           -3625.79793 eV
One Electron Energy:         -194.67047004 Eh           -5297.25280 eV
Two Electron Energy:           61.42484001 Eh            1671.45487 eV

Virial components:
Potential Energy   :         -218.61904298 Eh           -5948.92660 eV
Kinetic Energy     :          109.04853836 Eh            2967.36159 eV
Virial Ratio       :            2.00478655


DFT components:
N(Alpha)           :        6.999998219733 electrons
N(Beta)            :        6.999998219733 electrons
N(Total)           :       13.999996439466 electrons
E(X)               :      -11.940984772600 Eh       
E(C)               :       -0.456616395259 Eh       
E(XC)              :      -12.397601167859 Eh       
DFET-embed. en.    :        0.000000000000 Eh       

---------------
SCF CONVERGENCE
---------------

  Last Energy change         ...   -1.9131e-10  Tolerance :   1.0000e-08
  Last MAX-Density change    ...    9.8847e-07  Tolerance :   1.0000e-07
  Last RMS-Density change    ...    2.3193e-08  Tolerance :   5.0000e-09
  Last Orbital Gradient      ...    1.9546e-07  Tolerance :   1.0000e-05
  Last Orbital Rotation      ...    1.4519e-07  Tolerance :   1.0000e-05

             **** THE GBW FILE WAS UPDATED (24_N2.gbw) ****
             **** DENSITY FILE WAS UPDATED (24_N2.scfp) ****
             **** ENERGY FILE WAS UPDATED (24_N2.en.tmp) ****
             **** THE GBW FILE WAS UPDATED (24_N2.gbw) ****
             **** DENSITY FILE WAS UPDATED (24_N2.scfp) ****
----------------
ORBITAL ENERGIES
----------------

  NO   OCC          E(Eh)            E(eV) 
   0   2.0000     -14.352547      -390.5526 
   1   2.0000     -14.350979      -390.5100 
   2   2.0000      -1.102295       -29.9950 
   3   2.0000      -0.539702       -14.6860 
   4   2.0000      -0.452075       -12.3016 
   5   2.0000      -0.452075       -12.3016 
   6   2.0000      -0.411491       -11.1973 
   7   0.0000      -0.045242        -1.2311 
   8   0.0000      -0.045242        -1.2311 
   9   0.0000       0.051127         1.3912 
  10   0.0000       0.053010         1.4425 
  11   0.0000       0.070599         1.9211 
  12   0.0000       0.070599         1.9211 
  13   0.0000       0.111576         3.0361 
  14   0.0000       0.131056         3.5662 
  15   0.0000       0.131056         3.5662 
  16   0.0000       0.220890         6.0107 
  17   0.0000       0.298965         8.1352 
  18   0.0000       0.299197         8.1416 
  19   0.0000       0.377947        10.2845 
  20   0.0000       0.414503        11.2792 
  21   0.0000       0.457397        12.4464 
  22   0.0000       0.457397        12.4464 
  23   0.0000       0.463729        12.6187 
  24   0.0000       0.463729        12.6187 
  25   0.0000       0.478378        13.0173 
  26   0.0000       0.479275        13.0417 
  27   0.0000       0.562986        15.3196 
  28   0.0000       0.562986        15.3196 
  29   0.0000       0.608621        16.5614 
  30   0.0000       0.617837        16.8122 
  31   0.0000       0.816229        22.2107 
  32   0.0000       0.886915        24.1342 
  33   0.0000       0.886915        24.1342 
  34   0.0000       1.029427        28.0121 
  35   0.0000       1.117595        30.4113 
  36   0.0000       1.117757        30.4157 
  37   0.0000       1.182889        32.1880 
  38   0.0000       1.182889        32.1880 
  39   0.0000       1.237195        33.6658 
  40   0.0000       1.237195        33.6658 
  41   0.0000       1.353503        36.8307 
  42   0.0000       1.353631        36.8342 
  43   0.0000       1.403568        38.1930 
  44   0.0000       1.477369        40.2013 
  45   0.0000       1.498730        40.7825 
  46   0.0000       1.499125        40.7933 
  47   0.0000       1.516274        41.2599 
  48   0.0000       1.516274        41.2599 
  49   0.0000       1.535525        41.7838 
  50   0.0000       1.535525        41.7838 
  51   0.0000       1.762501        47.9601 
  52   0.0000       1.934123        52.6302 
  53   0.0000       1.934123        52.6302 
  54   0.0000       2.088149        56.8214 
  55   0.0000       2.088217        56.8233 
  56   0.0000       2.163842        58.8811 
  57   0.0000       2.163842        58.8811 
  58   0.0000       2.458971        66.9120 
  59   0.0000       2.491732        67.8035 
  60   0.0000       2.880635        78.3861 
  61   0.0000       2.880635        78.3861 
  62   0.0000       3.637558        98.9830 
  63   0.0000       3.899692       106.1160 
  64   0.0000       3.899692       106.1160 
  65   0.0000       4.043296       110.0237 
  66   0.0000       4.044206       110.0484 
  67   0.0000       4.123823       112.2149 
  68   0.0000       4.139185       112.6329 
  69   0.0000       4.139185       112.6329 
  70   0.0000       4.144998       112.7911 
  71   0.0000       4.329605       117.8145 
  72   0.0000       4.329605       117.8145 
  73   0.0000       4.677070       127.2695 
  74   0.0000       4.678947       127.3206 
  75   0.0000       4.710912       128.1904 
  76   0.0000       4.710912       128.1904 
  77   0.0000       4.768043       129.7450 
  78   0.0000       4.770152       129.8024 
  79   0.0000       4.843709       131.8040 
  80   0.0000       5.017904       136.5441 
  81   0.0000       5.017904       136.5441 
  82   0.0000       5.217454       141.9742 
  83   0.0000       5.217454       141.9742 
  84   0.0000       5.385333       146.5423 
  85   0.0000       5.386832       146.5831 
  86   0.0000       6.275434       170.7632 
  87   0.0000       6.320761       171.9966 
  88   0.0000       6.486907       176.5177 
  89   0.0000       6.486907       176.5177 
  90   0.0000      10.340904       281.3903 
  91   0.0000      18.562474       505.1106 

                    ********************************
                    * MULLIKEN POPULATION ANALYSIS *
                    ********************************

-----------------------
MULLIKEN ATOMIC CHARGES
-----------------------
   0 N :    0.000000
   1 N :   -0.000000
Sum of atomic charges:   -0.0000000

--------------------------------
MULLIKEN REDUCED ORBITAL CHARGES
--------------------------------
  0 N s       :     4.002306  s :     4.002306
      pz      :     0.971770  p :     2.938481
      px      :     0.994941
      py      :     0.971770
      dz2     :     0.000130  d :     0.052537
      dxz     :     0.026008
      dyz     :     0.000000
      dx2y2   :     0.000391
      dxy     :     0.026008
      f0      :     0.000835  f :     0.006675
      f+1     :     0.000837
      f-1     :     0.000138
      f+2     :     0.001387
      f-2     :     0.000000
      f+3     :     0.001395
      f-3     :     0.002084
  1 N s       :     4.002306  s :     4.002306
      pz      :     0.971770  p :     2.938481
      px      :     0.994941
      py      :     0.971770
      dz2     :     0.000130  d :     0.052537
      dxz     :     0.026008
      dyz     :     0.000000
      dx2y2   :     0.000391
      dxy     :     0.026008
      f0      :     0.000835  f :     0.006675
      f+1     :     0.000837
      f-1     :     0.000138
      f+2     :     0.001387
      f-2     :     0.000000
      f+3     :     0.001395
      f-3     :     0.002084


                     *******************************
                     * LOEWDIN POPULATION ANALYSIS *
                     *******************************

----------------------
LOEWDIN ATOMIC CHARGES
----------------------
   0 N :   -0.000000
   1 N :    0.000000

-------------------------------
LOEWDIN REDUCED ORBITAL CHARGES
-------------------------------
  0 N s       :     3.282116  s :     3.282116
      pz      :     0.883725  p :     3.224797
      px      :     1.457347
      py      :     0.883725
      dz2     :     0.048930  d :     0.341813
      dxz     :     0.073047
      dyz     :     0.000000
      dx2y2   :     0.146789
      dxy     :     0.073047
      f0      :     0.016213  f :     0.151274
      f+1     :     0.024307
      f-1     :     0.002701
      f+2     :     0.027015
      f-2     :     0.000000
      f+3     :     0.040511
      f-3     :     0.040527
  1 N s       :     3.282116  s :     3.282116
      pz      :     0.883725  p :     3.224797
      px      :     1.457347
      py      :     0.883725
      dz2     :     0.048930  d :     0.341813
      dxz     :     0.073047
      dyz     :     0.000000
      dx2y2   :     0.146789
      dxy     :     0.073047
      f0      :     0.016213  f :     0.151274
      f+1     :     0.024307
      f-1     :     0.002701
      f+2     :     0.027015
      f-2     :     0.000000
      f+3     :     0.040511
      f-3     :     0.040527


                      *****************************
                      * MAYER POPULATION ANALYSIS *
                      *****************************

  NA   - Mulliken gross atomic population
  ZA   - Total nuclear charge
  QA   - Mulliken gross atomic charge
  VA   - Mayer's total valence
  BVA  - Mayer's bonded valence
  FA   - Mayer's free valence

  ATOM       NA         ZA         QA         VA         BVA        FA
  0 N      7.0000     7.0000     0.0000     2.0069     2.0069    -0.0000
  1 N      7.0000     7.0000    -0.0000     2.0069     2.0069     0.0000

  Mayer bond orders larger than 0.100000
B(  0-N ,  1-N ) :   2.0069 

-------
TIMINGS
-------

Total SCF time: 0 days 0 hours 0 min 0 sec 

Total time                  ....       0.922 sec
Sum of individual times     ....       0.693 sec  ( 75.1%)

Fock matrix formation       ....       0.590 sec  ( 64.0%)
  XC integration            ....       0.040 sec  (  6.9% of F)
    Basis function eval.    ....       0.003 sec  (  8.1% of XC)
    Density eval.           ....       0.004 sec  ( 10.4% of XC)
    XC-Functional eval.     ....       0.003 sec  (  6.3% of XC)
    XC-Potential eval.      ....       0.010 sec  ( 24.0% of XC)
Diagonalization             ....       0.001 sec  (  0.1%)
Density matrix formation    ....       0.001 sec  (  0.1%)
Population analysis         ....       0.003 sec  (  0.3%)
Initial guess               ....       0.005 sec  (  0.5%)
Orbital Transformation      ....       0.000 sec  (  0.0%)
Orbital Orthonormalization  ....       0.002 sec  (  0.2%)
DIIS solution               ....       0.000 sec  (  0.0%)
SOSCF solution              ....       0.002 sec  (  0.2%)
Grid generation             ....       0.091 sec  (  9.9%)


-------------------------------------------------------------------------------
                          DFT DISPERSION CORRECTION                            
                                                                               
                              DFTD3 V3.1  Rev 1                                
                          USING Becke-Johnson damping                          
-------------------------------------------------------------------------------
The TPSSH functional is recognized
Active option DFTDOPT                   ...         4   

molecular C6(AA) [au] = 88.548932 


            DFT-D V3
 parameters
 s6 scaling factor         :     1.0000 
 a1 scaling factor         :     0.4529 
 s8 scaling factor         :     2.2382 
 a2 scaling factor         :     4.6550 
 ad hoc parameters k1-k3   :    16.0000     1.3333    -4.0000 

 Edisp/kcal,au: -0.295812138612  -0.000471406599 
 E6   /kcal   :  -0.142613539 
 E8   /kcal   :  -0.153198600 
 % E8         :  51.789152633 

-------------------------   ----------------
Dispersion correction           -0.000471407
-------------------------   ----------------


-------------------------   --------------------
FINAL SINGLE POINT ENERGY      -109.570976033030
-------------------------   --------------------

                                *** OPTIMIZATION RUN DONE ***

                            ***************************************
                            *     ORCA property calculations      *
                            ***************************************

                                    ---------------------
                                    Active property flags
                                    ---------------------
   (+) Dipole Moment


------------------------------------------------------------------------------
                       ORCA ELECTRIC PROPERTIES CALCULATION
------------------------------------------------------------------------------

Dipole Moment Calculation                       ... on
Quadrupole Moment Calculation                   ... off
Polarizability Calculation                      ... off
GBWName                                         ... 24_N2.gbw
Electron density file                           ... 24_N2.scfp
The origin for moment calculation is the CENTER OF MASS  = ( 0.000000,  0.000000  0.000000)

-------------
DIPOLE MOMENT
-------------
                                X             Y             Z
Electronic contribution:     -0.00000       0.00000       0.00000
Nuclear contribution   :      0.00000       0.00000       0.00000
                        -----------------------------------------
Total Dipole Moment    :     -0.00000       0.00000       0.00000
                        -----------------------------------------
Magnitude (a.u.)       :      0.00000
Magnitude (Debye)      :      0.00000



--------------------
Rotational spectrum 
--------------------
 
Rotational constants in cm-1:     0.000000     2.006651     2.006651 
Rotational constants in MHz :     0.000000 60157.894179 60157.894179 

 Dipole components along the rotational axes: 
x,y,z [a.u.] :    -0.000000     0.000000     0.000000 
x,y,z [Debye]:    -0.000000     0.000000     0.000000 

 

----------------------------------------------------------------------------
                           ORCA NUMERICAL FREQUENCIES
                              (24-process run)
----------------------------------------------------------------------------

Number of atoms                ... 2
Central differences            ... used
Number of displacements        ... 12
Numerical increment            ... 5.000e-03 bohr
IR-spectrum generation         ... on
Raman-spectrum generation      ... off
Surface Crossing Hessian       ... off

 WARNING: There are more processes than displacements to do
  ====> : Reducing number of processes to   6

The output will be reduced. Please look at the following files:
SCF program output             ... >24_N2.lastscf
Integral program output        ... >24_N2.lastint
Gradient program output        ... >24_N2.lastgrad
Dipole moment program output   ... >24_N2.lastmom
AutoCI program output          ... >24_N2.lastautoci


         <<< Energy and Gradient at the input geometry >>>

        <<< Energy and Gradient at displaced geometries >>>
             <<<Displacing   1/coordinate 2 (+)>>>
             <<<Displacing   1/coordinate 1 (+)>>>
             <<<Displacing   2/coordinate 1 (+)>>>
             <<<Displacing   2/coordinate 2 (+)>>>
             <<<Displacing   1/coordinate 3 (+)>>>
             <<<Displacing   2/coordinate 3 (+)>>>
             <<<Displacing   2/coordinate 3 (-)>>>
             <<<Displacing   1/coordinate 3 (-)>>>
             <<<Displacing   2/coordinate 2 (-)>>>
             <<<Displacing   1/coordinate 2 (-)>>>
             <<<Displacing   2/coordinate 1 (-)>>>
             <<<Displacing   1/coordinate 1 (-)>>>
Warning: T+R mode no 3 is zero 

-----------------------
VIBRATIONAL FREQUENCIES
-----------------------

Scaling factor for frequencies =  1.000000000 (already applied!)

   0:         0.00 cm**-1
   1:         0.00 cm**-1
   2:         0.00 cm**-1
   3:         0.00 cm**-1
   4:         0.00 cm**-1
   5:      2414.34 cm**-1


------------
NORMAL MODES
------------

These modes are the cartesian displacements weighted by the diagonal matrix
M(i,i)=1/sqrt(m[i]) where m[i] is the mass of the displaced atom
Thus, these vectors are normalized but *not* orthogonal

                  0          1          2          3          4          5    
      0       0.000000   0.000000   0.000000   0.000000   0.000000   0.707107
      1       0.000000   0.000000   0.000000   0.000000   0.000000   0.000000
      2       0.000000   0.000000   0.000000   0.000000   0.000000   0.000000
      3       0.000000   0.000000   0.000000   0.000000   0.000000  -0.707107
      4       0.000000   0.000000   0.000000   0.000000   0.000000   0.000000
      5       0.000000   0.000000   0.000000   0.000000   0.000000   0.000000


-----------
IR SPECTRUM  
-----------

 Mode    freq (cm**-1)   T**2         TX         TY         TZ
-------------------------------------------------------------------
   5:      2414.34    0.000000  ( -0.000000   0.000000  -0.000000)

The first frequency considered to be a vibration is 5
The total number of vibrations considered is 1


--------------------------
THERMOCHEMISTRY AT 298.15K
--------------------------

Temperature         ... 298.15 K
Pressure            ... 1.00 atm
Total Mass          ... 28.01 AMU
The molecule is recognized as being linear

Throughout the following assumptions are being made:
  (1) The electronic state is orbitally nondegenerate
  (2) There are no thermally accessible electronically excited states
  (3) Hindered rotations indicated by low frequency modes are not
      treated as such but are treated as vibrations and this may
      cause some error
  (4) All equations used are the standard statistical mechanics
      equations for an ideal gas
  (5) All vibrations are strictly harmonic

freq.    2414.34  E(vib)   ...       0.00 

------------
INNER ENERGY
------------

The inner energy is: U= E(el) + E(ZPE) + E(vib) + E(rot) + E(trans)
    E(el)   - is the total energy from the electronic structure calculation
              = E(kin-el) + E(nuc-el) + E(el-el) + E(nuc-nuc)
    E(ZPE)  - the the zero temperature vibrational energy from the frequency calculation
    E(vib)  - the the finite temperature correction to E(ZPE) due to population
              of excited vibrational states
    E(rot)  - is the rotational thermal energy
    E(trans)- is the translational thermal energy

Summary of contributions to the inner energy U:
Electronic energy                ...   -109.57097603 Eh
Zero point energy                ...      0.00550027 Eh       3.45 kcal/mol
Thermal vibrational correction   ...      0.00000010 Eh       0.00 kcal/mol
Thermal rotational correction    ...      0.00094418 Eh       0.59 kcal/mol
Thermal translational correction ...      0.00141627 Eh       0.89 kcal/mol
-----------------------------------------------------------------------
Total thermal energy                   -109.56311521 Eh


Summary of corrections to the electronic energy:
(perhaps to be used in another calculation)
Total thermal correction                  0.00236055 Eh       1.48 kcal/mol
Non-thermal (ZPE) correction              0.00550027 Eh       3.45 kcal/mol
-----------------------------------------------------------------------
Total correction                          0.00786082 Eh       4.93 kcal/mol


--------
ENTHALPY
--------

The enthalpy is H = U + kB*T
                kB is Boltzmann's constant
Total free energy                 ...   -109.56311521 Eh 
Thermal Enthalpy correction       ...      0.00094421 Eh       0.59 kcal/mol
-----------------------------------------------------------------------
Total Enthalpy                    ...   -109.56217100 Eh


Note: Rotational entropy computed according to Herzberg 
Infrared and Raman Spectra, Chapter V,1, Van Nostrand Reinhold, 1945 
Point Group:  Dinfh, Symmetry Number:   2  
Rotational constants in cm-1:     0.000000     2.006651     2.006651 

Vibrational entropy computed according to the QRRHO of S. Grimme
Chem.Eur.J. 2012 18 9955


-------
ENTROPY
-------

The entropy contributions are T*S = T*(S(el)+S(vib)+S(rot)+S(trans))
     S(el)   - electronic entropy
     S(vib)  - vibrational entropy
     S(rot)  - rotational entropy
     S(trans)- translational entropy
The entropies will be listed as mutliplied by the temperature to get
units of energy

Electronic entropy                ...      0.00000000 Eh      0.00 kcal/mol
Vibrational entropy               ...      0.00000010 Eh      0.00 kcal/mol
Rotational entropy                ...      0.00466822 Eh      2.93 kcal/mol
Translational entropy             ...      0.01706909 Eh     10.71 kcal/mol
-----------------------------------------------------------------------
Final entropy term                ...      0.02173740 Eh     13.64 kcal/mol

In case the symmetry of your molecule has not been determined correctly
or in case you have a reason to use a different symmetry number we print 
out the resulting rotational entropy values for sn=1,12 :
 --------------------------------------------------------
|  sn= 1 | S(rot)=             -inf Eh      -inf kcal/mol|
|  sn= 2 | S(rot)=             -inf Eh      -inf kcal/mol|
|  sn= 3 | S(rot)=             -inf Eh      -inf kcal/mol|
|  sn= 4 | S(rot)=             -inf Eh      -inf kcal/mol|
|  sn= 5 | S(rot)=             -inf Eh      -inf kcal/mol|
|  sn= 6 | S(rot)=             -inf Eh      -inf kcal/mol|
|  sn= 7 | S(rot)=             -inf Eh      -inf kcal/mol|
|  sn= 8 | S(rot)=             -inf Eh      -inf kcal/mol|
|  sn= 9 | S(rot)=             -inf Eh      -inf kcal/mol|
|  sn=10 | S(rot)=             -inf Eh      -inf kcal/mol|
|  sn=11 | S(rot)=             -inf Eh      -inf kcal/mol|
|  sn=12 | S(rot)=             -inf Eh      -inf kcal/mol|
 --------------------------------------------------------


-------------------
GIBBS FREE ENERGY
-------------------

The Gibbs free energy is G = H - T*S

Total enthalpy                    ...   -109.56217100 Eh 
Total entropy correction          ...     -0.02173740 Eh    -13.64 kcal/mol
-----------------------------------------------------------------------
Final Gibbs free energy         ...   -109.58390841 Eh

For completeness - the Gibbs free energy minus the electronic energy
G-E(el)                           ...     -0.01293237 Eh     -8.12 kcal/mol


Total Time for Numerical Frequencies  :        18.383 sec

Timings for individual modules:

Sum of individual times         ...       10.215 sec (=   0.170 min)
GTO integral calculation        ...        2.574 sec (=   0.043 min)  25.2 %
SCF iterations                  ...        5.408 sec (=   0.090 min)  52.9 %
SCF Gradient evaluation         ...        2.136 sec (=   0.036 min)  20.9 %
Geometry relaxation             ...        0.098 sec (=   0.002 min)   1.0 %
                             ****ORCA TERMINATED NORMALLY****
TOTAL RUN TIME: 0 days 0 hours 0 minutes 26 seconds 963 msec
