
                                 *****************
                                 * O   R   C   A *
                                 *****************

           --- An Ab Initio, DFT and Semiempirical electronic structure package ---

                  #######################################################
                  #                        -***-                        #
                  #          Department of theory and spectroscopy      #
                  #               Directorship: Frank Neese             #
                  #        Max Planck Institute fuer Kohlenforschung    #
                  #                Kaiser Wilhelm Platz 1               #
                  #                 D-45470 Muelheim/Ruhr               #
                  #                      Germany                        #
                  #                                                     #
                  #                  All rights reserved                #
                  #                        -***-                        #
                  #######################################################


                         Program Version 4.2.0 -  RELEASE  -


 With contributions from (in alphabetic order):
   Daniel Aravena         : Magnetic Suceptibility
   Michael Atanasov       : Ab Initio Ligand Field Theory (pilot matlab implementation)
   Alexander A. Auer      : GIAO ZORA, VPT2
   Ute Becker             : Parallelization
   Giovanni Bistoni       : ED, misc. LED, open-shell LED, HFLED
   Martin Brehm           : Molecular dynamics
   Dmytro Bykov           : SCF Hessian
   Vijay G. Chilkuri      : MRCI spin determinant printing, contributions to CSF-ICE
   Dipayan Datta          : RHF DLPNO-CCSD density
   Achintya Kumar Dutta   : EOM-CC, STEOM-CC
   Dmitry Ganyushin       : Spin-Orbit,Spin-Spin,Magnetic field MRCI
   Miquel Garcia          : C-PCM Hessian, Gaussian charge scheme
   Yang Guo               : DLPNO-NEVPT2, CIM, IAO-localization
   Andreas Hansen         : Spin unrestricted coupled pair/coupled cluster methods
   Benjamin Helmich-Paris : CASSCF linear response (MC-RPA)
   Lee Huntington         : MR-EOM, pCC
   Robert Izsak           : Overlap fitted RIJCOSX, COSX-SCS-MP3, EOM
   Christian Kollmar      : KDIIS, OOCD, Brueckner-CCSD(T), CCSD density
   Simone Kossmann        : Meta GGA functionals, TD-DFT gradient, OOMP2, MP2 Hessian
   Martin Krupicka        : AUTO-CI
   Lucas Lang             : DCDCAS
   Dagmar Lenk            : GEPOL surface, SMD
   Dimitrios Liakos       : Extrapolation schemes; Compound Job, initial MDCI parallelization
   Dimitrios Manganas     : Further ROCIS development; embedding schemes
   Dimitrios Pantazis     : SARC Basis sets
   Taras Petrenko         : DFT Hessian,TD-DFT gradient, ASA, ECA, R-Raman, ABS, FL, XAS/XES, NRVS
   Peter Pinski           : DLPNO-MP2, DLPNO-MP2 Gradient
   Christoph Reimann      : Effective Core Potentials
   Marius Retegan         : Local ZFS, SOC
   Christoph Riplinger    : Optimizer, TS searches, QM/MM, DLPNO-CCSD(T), (RO)-DLPNO pert. Triples
   Tobias Risthaus        : Range-separated hybrids, TD-DFT gradient, RPA, STAB
   Michael Roemelt        : Original ROCIS implementation
   Masaaki Saitow         : Open-shell DLPNO-CCSD energy and density
   Barbara Sandhoefer     : DKH picture change effects
   Avijit Sen             : IP-ROCIS
   Kantharuban Sivalingam : CASSCF convergence, NEVPT2, FIC-MRCI
   Bernardo de Souza      : ESD, SOC TD-DFT
   Georgi Stoychev        : AutoAux, RI-MP2 NMR
   Willem Van den Heuvel  : Paramagnetic NMR
   Boris Wezisla          : Elementary symmetry handling
   Frank Wennmohs         : Technical directorship


 We gratefully acknowledge several colleagues who have allowed us to
 interface, adapt or use parts of their codes:
   Stefan Grimme, W. Hujo, H. Kruse,             : VdW corrections, initial TS optimization,
                  C. Bannwarth                     DFT functionals, gCP, sTDA/sTD-DF
   Ed Valeev, F. Pavosevic, A. Kumar             : LibInt (2-el integral package), F12 methods
   Garnet Chan, S. Sharma, J. Yang, R. Olivares  : DMRG
   Ulf Ekstrom                                   : XCFun DFT Library
   Mihaly Kallay                                 : mrcc  (arbitrary order and MRCC methods)
   Andreas Klamt, Michael Diedenhofen            : otool_cosmo (COSMO solvation model)
   Jiri Pittner, Ondrej Demel                    : Mk-CCSD
   Frank Weinhold                                : gennbo (NPA and NBO analysis)
   Christopher J. Cramer and Donald G. Truhlar   : smd solvation model
   Lars Goerigk                                  : TD-DFT with DH, B97 family of functionals
   V. Asgeirsson, H. Jonsson                     : NEB implementation
   FAccTs GmbH                                   : IRC, NEB, NEB-TS, Multilevel, MM, QM/MM, CI optimization
   S Lehtola, MJT Oliveira, MAL Marques          : LibXC Library


 Your calculation uses the libint2 library for the computation of 2-el integrals
 For citations please refer to: http://libint.valeyev.net

 Your ORCA version has been built with support for libXC version: 4.2.3
 For citations please refer to: https://tddft.org/programs/libxc/

 This ORCA versions uses:
   CBLAS   interface :  Fast vector & matrix operations
   LAPACKE interface :  Fast linear algebra routines
   SCALAPACK package :  Parallel linear algebra routines


Your calculation utilizes the atom-pairwise dispersion correction
with the Becke-Johnson damping scheme (D3BJ)
Cite in your paper:
S.Grimme, S.Ehrlich, L.Goerigk, J Comput Chem, (2011), 32, 1456–1465 
S.Grimme, J.Antony, S.Ehrlich and H.Krieg, J.Chem.Phys., 132, (2010), 154104 
   

----- Orbital basis set information -----
Your calculation utilizes the basis: aug-cc-pV(T+d)Z 
             Al - Ar: T.H. Dunning, Jr., K. A. Peterson and A. K. Wilson, J. Chem. Phys.
                      114, 9244 (2001)

----- AuxJK basis set information -----
Your calculation utilizes the auxiliary basis: def2/JK
   H-Ba, Hf-Rn: F. Weigend, J. Comput. Chem. 29, 167 (2008).

================================================================================
                                        WARNINGS
                       Please study these warnings very carefully!
================================================================================


WARNING: your system is open-shell and RHF/RKS was chosen
  ===> : WILL SWITCH to UHF/UKS


WARNING: The environment variable RSH_COMMAND is not set!
  ===> : All Displacements for the Numerical Hessian calculation
         will be started on localhost

WARNING: Geometry Optimization
  ===> : Switching off AutoStart
         For restart on a previous wavefunction, please use MOREAD

INFO   : the flag for use of LIBINT has been found!

================================================================================
                                       INPUT FILE
================================================================================
NAME = 32_S2.in
|  1> #
|  2> # 32_S2 tpssh/aug-cc-pvt(+d)z
|  3> #
|  4> ! tpssh d3bj aug-cc-pvt(+d)z def2/jk opt xyzfile numfreq
|  5> 
|  6> *xyz 0 3
|  7> S           -0.000000000         -0.000000000          0.005070157
|  8> S            0.000000000          0.000000000          1.891814433
|  9> *
| 10> 
| 11> %pal
| 12> nprocs 24
| 13> end
| 14> 
| 15> 
| 16>                          ****END OF INPUT****
================================================================================

                       *****************************
                       * Geometry Optimization Run *
                       *****************************

Geometry optimization settings:
Update method            Update   .... BFGS
Choice of coordinates    CoordSys .... Z-matrix Internals
Initial Hessian          InHess   .... Almoef's Model

Convergence Tolerances:
Energy Change            TolE     ....  5.0000e-06 Eh
Max. Gradient            TolMAXG  ....  3.0000e-04 Eh/bohr
RMS Gradient             TolRMSG  ....  1.0000e-04 Eh/bohr
Max. Displacement        TolMAXD  ....  4.0000e-03 bohr
RMS Displacement         TolRMSD  ....  2.0000e-03 bohr
Strict Convergence                ....  False
------------------------------------------------------------------------------
                        ORCA OPTIMIZATION COORDINATE SETUP
------------------------------------------------------------------------------

The optimization will be done in new redundant internal coordinates
Making redundant internal coordinates   ...  (new redundants) done
Evaluating the initial hessian          ...  (Almloef) done
Evaluating the coordinates              ...  done
Calculating the B-matrix                .... done
Calculating the G-matrix                .... done
Diagonalizing the G-matrix              .... done
The first mode is                       ....    0
The number of degrees of freedom        ....    1

    -----------------------------------------------------------------
                    Redundant Internal Coordinates


    -----------------------------------------------------------------
         Definition                    Initial Value    Approx d2E/dq
    -----------------------------------------------------------------
      1. B(S   1,S   0)                  1.8867         0.732403   
    -----------------------------------------------------------------

Number of atoms                         .... 2
Number of degrees of freedom            .... 1

         *************************************************************
         *                GEOMETRY OPTIMIZATION CYCLE   1            *
         *************************************************************
---------------------------------
CARTESIAN COORDINATES (ANGSTROEM)
---------------------------------
  S     -0.000000   -0.000000    0.005070
  S      0.000000    0.000000    1.891814

----------------------------
CARTESIAN COORDINATES (A.U.)
----------------------------
  NO LB      ZA    FRAG     MASS         X           Y           Z
   0 S    16.0000    0    32.060   -0.000000   -0.000000    0.009581
   1 S    16.0000    0    32.060    0.000000    0.000000    3.575011

--------------------------------
INTERNAL COORDINATES (ANGSTROEM)
--------------------------------
 S      0   0   0     0.000000000000     0.00000000     0.00000000
 S      1   0   0     1.886744276000     0.00000000     0.00000000

---------------------------
INTERNAL COORDINATES (A.U.)
---------------------------
 S      0   0   0     0.000000000000     0.00000000     0.00000000
 S      1   0   0     3.565429966384     0.00000000     0.00000000

---------------------
BASIS SET INFORMATION
---------------------
There are 1 groups of distinct atoms

 Group   1 Type S   : 42s17p4d2f contracted to 6s5p4d2f pattern {131313111/77111/1111/11}

Atom   0S    basis set group =>   1
Atom   1S    basis set group =>   1
----------------------------------
AUXILIARY/JK BASIS SET INFORMATION
----------------------------------
There are 1 groups of distinct atoms

 Group   1 Type S   : 16s12p10d4f1g contracted to 13s11p9d4f1g pattern {4111111111111/21111111111/211111111/1111/1}

Atom   0S    basis set group =>   1
Atom   1S    basis set group =>   1


           ************************************************************
           *        Program running with 24 parallel MPI-processes    *
           *              working on a common directory               *
           ************************************************************
------------------------------------------------------------------------------
                           ORCA GTO INTEGRAL CALCULATION
------------------------------------------------------------------------------

                         BASIS SET STATISTICS AND STARTUP INFO

 # of primitive gaussian shells          ...  130
 # of primitive gaussian functions       ...  254
 # of contracted shells                  ...   34
 # of contracted basis functions         ...  110
 Highest angular momentum                ...    3
 Maximum contraction depth               ...   13
 Integral package used                   ... LIBINT
 Integral threshhold            Thresh   ...  2.500e-11
 Primitive cut-off              TCut     ...  2.500e-12


------------------------------ INTEGRAL EVALUATION ----------------------------


 * One electron integrals 
 Pre-screening matrix                    ... done
 Shell pair data                         ... done (   0.000 sec)



           ************************************************************
           *        Program running with 24 parallel MPI-processes    *
           *              working on a common directory               *
           ************************************************************
-------------------------------------------------------------------------------
                                 ORCA SCF
-------------------------------------------------------------------------------

------------
SCF SETTINGS
------------
Hamiltonian:
 Density Functional     Method          .... DFT(GTOs)
 Exchange Functional    Exchange        .... TPSS
 Correlation Functional Correlation     .... TPSS
 LDA part of GGA corr.  LDAOpt          .... PW91-LDA
 Gradients option       PostSCFGGA      .... off
 Hybrid DFT is turned on
   Fraction HF Exchange ScalHFX         ....  0.100000
   Scaling of DF-GGA-X  ScalDFX         ....  0.900000
   Scaling of DF-GGA-C  ScalDFC         ....  1.000000
   Scaling of DF-LDA-C  ScalLDAC        ....  1.000000
   Perturbative correction              ....  0.000000
   Density functional embedding theory  .... OFF
   NL short-range parameter             ....  5.200000


General Settings:
 Integral files         IntName         .... 32_S2
 Hartree-Fock type      HFTyp           .... UHF
 Total Charge           Charge          ....    0
 Multiplicity           Mult            ....    3
 Number of Electrons    NEL             ....   32
 Basis Dimension        Dim             ....  110
 Nuclear Repulsion      ENuc            ....     71.8005969585 Eh

Convergence Acceleration:
 DIIS                   CNVDIIS         .... on
   Start iteration      DIISMaxIt       ....    12
   Startup error        DIISStart       ....  0.200000
   # of expansion vecs  DIISMaxEq       ....     5
   Bias factor          DIISBfac        ....   1.050
   Max. coefficient     DIISMaxC        ....  10.000
 Newton-Raphson         CNVNR           .... off
 SOSCF                  CNVSOSCF        .... off
 Level Shifting         CNVShift        .... on
   Level shift para.    LevelShift      ....    0.2500
   Turn off err/grad.   ShiftErr        ....    0.0010
 Zerner damping         CNVZerner       .... off
 Static damping         CNVDamp         .... on
   Fraction old density DampFac         ....    0.7000
   Max. Damping (<1)    DampMax         ....    0.9800
   Min. Damping (>=0)   DampMin         ....    0.0000
   Turn off err/grad.   DampErr         ....    0.1000
 Fernandez-Rico         CNVRico         .... off

SCF Procedure:
 Maximum # iterations   MaxIter         ....   125
 SCF integral mode      SCFMode         .... Direct
   Integral package                     .... LIBINT
 Reset frequency        DirectResetFreq ....    20
 Integral Threshold     Thresh          ....  2.500e-11 Eh
 Primitive CutOff       TCut            ....  2.500e-12 Eh

Convergence Tolerance:
 Convergence Check Mode ConvCheckMode   .... Total+1el-Energy
 Convergence forced     ConvForced      .... 0
 Energy Change          TolE            ....  1.000e-08 Eh
 1-El. energy change                    ....  1.000e-05 Eh
 DIIS Error             TolErr          ....  5.000e-07


Diagonalization of the overlap matrix:
Smallest eigenvalue                        ... 2.111e-04
Time for diagonalization                   ...    0.003 sec
Threshold for overlap eigenvalues          ... 1.000e-08
Number of eigenvalues below threshold      ... 0
Time for construction of square roots      ...    0.013 sec
Total time needed                          ...    0.016 sec

-------------------
DFT GRID GENERATION
-------------------

General Integration Accuracy     IntAcc      ...  4.340
Radial Grid Type                 RadialGrid  ... Gauss-Chebyshev
Angular Grid (max. acc.)         AngularGrid ... Lebedev-110
Angular grid pruning method      GridPruning ... 3 (G Style)
Weight generation scheme         WeightScheme... Becke
Basis function cutoff            BFCut       ...    1.0000e-11
Integration weight cutoff        WCut        ...    1.0000e-14
Grids for H and He will be reduced by one unit

# of grid points (after initial pruning)     ...   3612 (   0.0 sec)
# of grid points (after weights+screening)   ...   3588 (   0.0 sec)
nearest neighbour list constructed           ...    0.0 sec
Grid point re-assignment to atoms done       ...    0.0 sec
Grid point division into batches done        ...    0.0 sec
Reduced shell lists constructed in    0.0 sec

Total number of grid points                  ...     3588
Total number of batches                      ...       58
Average number of points per batch           ...       61
Average number of grid points per atom       ...     1794
Average number of shells per batch           ...    21.00 (61.76%)
Average number of basis functions per batch  ...    67.50 (61.36%)
Average number of large shells per batch     ...    14.25 (67.86%)
Average number of large basis fcns per batch ...    50.75 (75.19%)
Maximum spatial batch extension              ...  29.83, 22.78, 16.59 au
Average spatial batch extension              ...   1.05,  1.06,  0.74 au

Time for grid setup =    0.066 sec

------------------------------
INITIAL GUESS: MODEL POTENTIAL
------------------------------
Loading Hartree-Fock densities                     ... done
Calculating cut-offs                               ... done
Setting up the integral package                    ... done
Initializing the effective Hamiltonian             ... done
Starting the Coulomb interaction                   ... done (   0.0 sec)
Reading the grid                                   ... done
Mapping shells                                     ... done
Starting the XC term evaluation                    ... done (   0.0 sec)
  promolecular density results
     # of electrons  =     32.000449258
     EX              =    -49.750958677
     EC              =     -1.228331967
     EX+EC           =    -50.979290644
Transforming the Hamiltonian                       ... done (   0.0 sec)
Diagonalizing the Hamiltonian                      ... done (   0.0 sec)
Back transforming the eigenvectors                 ... done (   0.0 sec)
Now organizing SCF variables                       ... done
                      ------------------
                      INITIAL GUESS DONE (   0.2 sec)
                      ------------------
--------------
SCF ITERATIONS
--------------
ITER       Energy         Delta-E        Max-DP      RMS-DP      [F,P]     Damp
               ***  Starting incremental Fock matrix formation  ***
  0   -796.4334327156   0.000000000000 0.00926647  0.00022914  0.0319588 0.7000
  1   -796.4362397702  -0.002807054629 0.00662385  0.00017502  0.0211591 0.7000
                               ***Turning on DIIS***
  2   -796.4378782454  -0.001638475164 0.01499610  0.00040275  0.0146917 0.0000
  3   -796.4412116882  -0.003333442880 0.00274837  0.00008680  0.0091619 0.0000
  4   -796.4416244882  -0.000412799992 0.00123955  0.00004153  0.0014262 0.0000
  5   -796.4416718344  -0.000047346198 0.00077863  0.00002639  0.0002932 0.0000
  6   -796.4416853998  -0.000013565397 0.00019431  0.00000533  0.0000345 0.0000
  7   -796.4416859731  -0.000000573250 0.00002212  0.00000080  0.0000130 0.0000
  8   -796.4416859896  -0.000000016489 0.00000661  0.00000023  0.0000039 0.0000
                 **** Energy Check signals convergence ****

               *****************************************************
               *                     SUCCESS                       *
               *           SCF CONVERGED AFTER   9 CYCLES          *
               *****************************************************

Setting up the final grid:

General Integration Accuracy     IntAcc      ...  4.670
Radial Grid Type                 RadialGrid  ... Gauss-Chebyshev
Angular Grid (max. acc.)         AngularGrid ... Lebedev-302
Angular grid pruning method      GridPruning ... 3 (G Style)
Weight generation scheme         WeightScheme... Becke
Basis function cutoff            BFCut       ...    1.0000e-11
Integration weight cutoff        WCut        ...    1.0000e-14
Grids for H and He will be reduced by one unit

# of grid points (after initial pruning)     ...  13692 (   0.0 sec)
# of grid points (after weights+screening)   ...  13666 (   0.0 sec)
nearest neighbour list constructed           ...    0.0 sec
Grid point re-assignment to atoms done       ...    0.0 sec
Grid point division into batches done        ...    0.1 sec
Reduced shell lists constructed in    0.1 sec

Total number of grid points                  ...    13666
Total number of batches                      ...      214
Average number of points per batch           ...       63
Average number of grid points per atom       ...     6833
Average number of shells per batch           ...     9.60 (28.24%)
Average number of basis functions per batch  ...    30.60 (27.82%)
Average number of large shells per batch     ...     6.20 (64.58%)
Average number of large basis fcns per batch ...    18.20 (59.48%)
Maximum spatial batch extension              ...  19.50, 19.55, 13.43 au
Average spatial batch extension              ...   0.66,  0.66,  0.47 au

Final grid set up in    0.1 sec
Final integration                            ... done (   0.2 sec)
Change in XC energy                          ...    -0.002586039
Integrated number of electrons               ...    32.000002330
Previous integrated no of electrons          ...    32.000167950

----------------
TOTAL SCF ENERGY
----------------

Total Energy       :         -796.44427203 Eh          -21672.35044 eV

Components:
Nuclear Repulsion  :           71.80059696 Eh            1953.79357 eV
Electronic Energy  :         -868.24486899 Eh          -23626.14402 eV
One Electron Energy:        -1242.30180648 Eh          -33804.75075 eV
Two Electron Energy:          374.05693749 Eh           10178.60674 eV

Virial components:
Potential Energy   :        -1590.61376201 Eh          -43282.80092 eV
Kinetic Energy     :          794.16948998 Eh           21610.45048 eV
Virial Ratio       :            2.00286435


DFT components:
N(Alpha)           :       17.000001224818 electrons
N(Beta)            :       15.000001105641 electrons
N(Total)           :       32.000002330459 electrons
E(X)               :      -45.131217864122 Eh       
E(C)               :       -1.232602724332 Eh       
E(XC)              :      -46.363820588455 Eh       
DFET-embed. en.    :        0.000000000000 Eh       

---------------
SCF CONVERGENCE
---------------

  Last Energy change         ...   -1.3011e-09  Tolerance :   1.0000e-08
  Last MAX-Density change    ...    2.1287e-06  Tolerance :   1.0000e-07
  Last RMS-Density change    ...    4.4281e-08  Tolerance :   5.0000e-09
  Last DIIS Error            ...    1.0846e-06  Tolerance :   5.0000e-07

             **** THE GBW FILE WAS UPDATED (32_S2.gbw) ****
             **** DENSITY FILE WAS UPDATED (32_S2.scfp) ****
             **** ENERGY FILE WAS UPDATED (32_S2.en.tmp) ****
----------------------
UHF SPIN CONTAMINATION
----------------------

Warning: in a DFT calculation there is little theoretical justification to 
         calculate <S**2> as in Hartree-Fock theory. We will do it anyways
         but you should keep in mind that the values have only limited relevance

Expectation value of <S**2>     :     2.010066
Ideal value S*(S+1) for S=1.0   :     2.000000
Deviation                       :     0.010066

             **** THE GBW FILE WAS UPDATED (32_S2.gbw) ****
             **** DENSITY FILE WAS UPDATED (32_S2.scfp) ****
----------------
ORBITAL ENERGIES
----------------
                 SPIN UP ORBITALS
  NO   OCC          E(Eh)            E(eV) 
   0   1.0000     -88.798819     -2416.3387 
   1   1.0000     -88.798816     -2416.3386 
   2   1.0000      -7.919631      -215.5041 
   3   1.0000      -7.919450      -215.4992 
   4   1.0000      -5.868883      -159.7004 
   5   1.0000      -5.868794      -159.6980 
   6   1.0000      -5.868794      -159.6980 
   7   1.0000      -5.868728      -159.6962 
   8   1.0000      -5.868728      -159.6962 
   9   1.0000      -5.868047      -159.6777 
  10   1.0000      -0.820232       -22.3196 
  11   1.0000      -0.616899       -16.7867 
  12   1.0000      -0.389539       -10.5999 
  13   1.0000      -0.368969       -10.0402 
  14   1.0000      -0.368969       -10.0402 
  15   1.0000      -0.237441        -6.4611 
  16   1.0000      -0.237441        -6.4611 
  17   0.0000      -0.028356        -0.7716 
  18   0.0000       0.021022         0.5720 
  19   0.0000       0.041130         1.1192 
  20   0.0000       0.041130         1.1192 
  21   0.0000       0.045722         1.2442 
  22   0.0000       0.052336         1.4241 
  23   0.0000       0.075163         2.0453 
  24   0.0000       0.075163         2.0453 
  25   0.0000       0.103793         2.8243 
  26   0.0000       0.104426         2.8416 
  27   0.0000       0.147953         4.0260 
  28   0.0000       0.147953         4.0260 
  29   0.0000       0.154307         4.1989 
  30   0.0000       0.204278         5.5587 
  31   0.0000       0.214005         5.8234 
  32   0.0000       0.215244         5.8571 
  33   0.0000       0.299662         8.1542 
  34   0.0000       0.299662         8.1542 
  35   0.0000       0.304579         8.2880 
  36   0.0000       0.379039        10.3142 
  37   0.0000       0.379039        10.3142 
  38   0.0000       0.443319        12.0633 
  39   0.0000       0.443319        12.0633 
  40   0.0000       0.450479        12.2582 
  41   0.0000       0.450659        12.2631 
  42   0.0000       0.469745        12.7824 
  43   0.0000       0.484154        13.1745 
  44   0.0000       0.493140        13.4190 
  45   0.0000       0.500126        13.6091 
  46   0.0000       0.500126        13.6091 
  47   0.0000       0.527689        14.3591 
  48   0.0000       0.529687        14.4135 
  49   0.0000       0.571794        15.5593 
  50   0.0000       0.618731        16.8365 
  51   0.0000       0.618731        16.8365 
  52   0.0000       0.621627        16.9153 
  53   0.0000       0.621627        16.9153 
  54   0.0000       0.694783        18.9060 
  55   0.0000       0.695865        18.9354 
  56   0.0000       0.769853        20.9488 
  57   0.0000       0.771001        20.9800 
  58   0.0000       0.771001        20.9800 
  59   0.0000       0.947253        25.7761 
  60   0.0000       0.947253        25.7761 
  61   0.0000       0.973831        26.4993 
  62   0.0000       0.977187        26.5906 
  63   0.0000       1.017208        27.6796 
  64   0.0000       1.109493        30.1908 
  65   0.0000       1.109493        30.1908 
  66   0.0000       1.205235        32.7961 
  67   0.0000       1.320052        35.9205 
  68   0.0000       1.569823        42.7171 
  69   0.0000       1.572108        42.7792 
  70   0.0000       1.629233        44.3337 
  71   0.0000       1.629233        44.3337 
  72   0.0000       1.650977        44.9254 
  73   0.0000       1.655265        45.0420 
  74   0.0000       1.658056        45.1180 
  75   0.0000       1.799157        48.9575 
  76   0.0000       1.799157        48.9575 
  77   0.0000       1.829960        49.7957 
  78   0.0000       1.920928        52.2711 
  79   0.0000       1.928714        52.4830 
  80   0.0000       1.928714        52.4830 
  81   0.0000       1.932404        52.5834 
  82   0.0000       1.933730        52.6195 
  83   0.0000       1.998877        54.3922 
  84   0.0000       1.998877        54.3922 
  85   0.0000       2.006528        54.6004 
  86   0.0000       2.006528        54.6004 
  87   0.0000       2.082579        56.6698 
  88   0.0000       2.082579        56.6698 
  89   0.0000       2.249995        61.2255 
  90   0.0000       2.251540        61.2675 
  91   0.0000       2.255056        61.3632 
  92   0.0000       2.255056        61.3632 
  93   0.0000       2.370196        64.4963 
  94   0.0000       2.570201        69.9387 
  95   0.0000       2.598386        70.7057 
  96   0.0000       2.598386        70.7057 
  97   0.0000       3.552239        96.6613 
  98   0.0000       4.519957       122.9943 
  99   0.0000       5.200288       141.5070 
 100   0.0000       6.699316       182.2977 
 101   0.0000       6.699580       182.3048 
 102   0.0000       6.733017       183.2147 
 103   0.0000       6.733017       183.2147 
 104   0.0000       6.735998       183.2958 
 105   0.0000       6.736357       183.3056 
 106   0.0000       6.846692       186.3080 
 107   0.0000       6.876409       187.1166 
 108   0.0000       6.876409       187.1166 
 109   0.0000       7.167813       195.0461 

                 SPIN DOWN ORBITALS
  NO   OCC          E(Eh)            E(eV) 
   0   1.0000     -88.793113     -2416.1834 
   1   1.0000     -88.793110     -2416.1833 
   2   1.0000      -7.914347      -215.3603 
   3   1.0000      -7.914153      -215.3551 
   4   1.0000      -5.865882      -159.6188 
   5   1.0000      -5.865040      -159.5959 
   6   1.0000      -5.858094      -159.4068 
   7   1.0000      -5.858094      -159.4068 
   8   1.0000      -5.858024      -159.4049 
   9   1.0000      -5.858024      -159.4049 
  10   1.0000      -0.793704       -21.5978 
  11   1.0000      -0.560738       -15.2584 
  12   1.0000      -0.367237        -9.9930 
  13   1.0000      -0.322710        -8.7814 
  14   1.0000      -0.322710        -8.7814 
  15   0.0000      -0.149486        -4.0677 
  16   0.0000      -0.149486        -4.0677 
  17   0.0000      -0.012697        -0.3455 
  18   0.0000       0.028484         0.7751 
  19   0.0000       0.047603         1.2953 
  20   0.0000       0.047603         1.2953 
  21   0.0000       0.054822         1.4918 
  22   0.0000       0.058223         1.5843 
  23   0.0000       0.085531         2.3274 
  24   0.0000       0.085531         2.3274 
  25   0.0000       0.124935         3.3996 
  26   0.0000       0.125296         3.4095 
  27   0.0000       0.163034         4.4364 
  28   0.0000       0.167979         4.5709 
  29   0.0000       0.167979         4.5709 
  30   0.0000       0.215227         5.8566 
  31   0.0000       0.241436         6.5698 
  32   0.0000       0.243058         6.6140 
  33   0.0000       0.313344         8.5265 
  34   0.0000       0.313344         8.5265 
  35   0.0000       0.314546         8.5592 
  36   0.0000       0.393071        10.6960 
  37   0.0000       0.393071        10.6960 
  38   0.0000       0.463612        12.6155 
  39   0.0000       0.463612        12.6155 
  40   0.0000       0.478427        13.0187 
  41   0.0000       0.479163        13.0387 
  42   0.0000       0.479642        13.0517 
  43   0.0000       0.500054        13.6072 
  44   0.0000       0.505168        13.7463 
  45   0.0000       0.521985        14.2039 
  46   0.0000       0.521985        14.2039 
  47   0.0000       0.570554        15.5256 
  48   0.0000       0.572215        15.5708 
  49   0.0000       0.582457        15.8495 
  50   0.0000       0.638145        17.3648 
  51   0.0000       0.638145        17.3648 
  52   0.0000       0.646150        17.5826 
  53   0.0000       0.646150        17.5826 
  54   0.0000       0.713105        19.4046 
  55   0.0000       0.714171        19.4336 
  56   0.0000       0.787725        21.4351 
  57   0.0000       0.798982        21.7414 
  58   0.0000       0.798982        21.7414 
  59   0.0000       0.961824        26.1726 
  60   0.0000       0.961824        26.1726 
  61   0.0000       0.994507        27.0619 
  62   0.0000       0.997384        27.1402 
  63   0.0000       1.032596        28.0984 
  64   0.0000       1.127525        30.6815 
  65   0.0000       1.127525        30.6815 
  66   0.0000       1.227489        33.4017 
  67   0.0000       1.345776        36.6204 
  68   0.0000       1.603799        43.6416 
  69   0.0000       1.606194        43.7068 
  70   0.0000       1.647255        44.8241 
  71   0.0000       1.647255        44.8241 
  72   0.0000       1.666714        45.3536 
  73   0.0000       1.688780        45.9540 
  74   0.0000       1.691453        46.0268 
  75   0.0000       1.827474        49.7281 
  76   0.0000       1.827474        49.7281 
  77   0.0000       1.842503        50.1371 
  78   0.0000       1.939870        52.7865 
  79   0.0000       1.953208        53.1495 
  80   0.0000       1.953208        53.1495 
  81   0.0000       1.957736        53.2727 
  82   0.0000       1.959555        53.3222 
  83   0.0000       2.026968        55.1566 
  84   0.0000       2.026968        55.1566 
  85   0.0000       2.050252        55.7902 
  86   0.0000       2.050252        55.7902 
  87   0.0000       2.128000        57.9058 
  88   0.0000       2.128000        57.9058 
  89   0.0000       2.278467        62.0002 
  90   0.0000       2.278467        62.0002 
  91   0.0000       2.284280        62.1584 
  92   0.0000       2.285850        62.2011 
  93   0.0000       2.391584        65.0783 
  94   0.0000       2.588899        70.4475 
  95   0.0000       2.628658        71.5294 
  96   0.0000       2.628658        71.5294 
  97   0.0000       3.572699        97.2181 
  98   0.0000       4.539831       123.5351 
  99   0.0000       5.219623       142.0332 
 100   0.0000       6.713342       182.6793 
 101   0.0000       6.713562       182.6853 
 102   0.0000       6.741996       183.4590 
 103   0.0000       6.741996       183.4590 
 104   0.0000       6.750111       183.6799 
 105   0.0000       6.750418       183.6882 
 106   0.0000       6.853900       186.5041 
 107   0.0000       6.885782       187.3716 
 108   0.0000       6.885782       187.3716 
 109   0.0000       7.176359       195.2787 

                    ********************************
                    * MULLIKEN POPULATION ANALYSIS *
                    ********************************

--------------------------------------------
MULLIKEN ATOMIC CHARGES AND SPIN POPULATIONS
--------------------------------------------
   0 S :   -0.000000    1.000000
   1 S :    0.000000    1.000000
Sum of atomic charges         :   -0.0000000
Sum of atomic spin populations:    2.0000000

-----------------------------------------------------
MULLIKEN REDUCED ORBITAL CHARGES AND SPIN POPULATIONS
-----------------------------------------------------
CHARGE
  0 S s       :     5.983023  s :     5.983023
      pz      :     2.987581  p :     9.862467
      px      :     3.437443
      py      :     3.437443
      dz2     :     0.025217  d :     0.134244
      dxz     :     0.054513
      dyz     :     0.054513
      dx2y2   :     0.000000
      dxy     :     0.000000
      f0      :     0.004180  f :     0.020266
      f+1     :     0.008043
      f-1     :     0.008043
      f+2     :    -0.000000
      f-2     :     0.000000
      f+3     :     0.000000
      f-3     :     0.000000
  1 S s       :     5.983022  s :     5.983022
      pz      :     2.987581  p :     9.862467
      px      :     3.437443
      py      :     3.437443
      dz2     :     0.025217  d :     0.134244
      dxz     :     0.054513
      dyz     :     0.054513
      dx2y2   :     0.000000
      dxy     :     0.000000
      f0      :     0.004180  f :     0.020266
      f+1     :     0.008043
      f-1     :     0.008043
      f+2     :    -0.000000
      f-2     :     0.000000
      f+3     :     0.000000
      f-3     :     0.000000

SPIN
  0 S s       :     0.008075  s :     0.008075
      pz      :    -0.007843  p :     0.973173
      px      :     0.490508
      py      :     0.490508
      dz2     :     0.000777  d :     0.018656
      dxz     :     0.008939
      dyz     :     0.008939
      dx2y2   :     0.000000
      dxy     :    -0.000000
      f0      :    -0.001010  f :     0.000097
      f+1     :     0.000553
      f-1     :     0.000553
      f+2     :     0.000000
      f-2     :    -0.000000
      f+3     :     0.000000
      f-3     :     0.000000
  1 S s       :     0.008075  s :     0.008075
      pz      :    -0.007843  p :     0.973173
      px      :     0.490508
      py      :     0.490508
      dz2     :     0.000777  d :     0.018656
      dxz     :     0.008939
      dyz     :     0.008939
      dx2y2   :    -0.000000
      dxy     :    -0.000000
      f0      :    -0.001010  f :     0.000097
      f+1     :     0.000553
      f-1     :     0.000553
      f+2     :     0.000000
      f-2     :    -0.000000
      f+3     :     0.000000
      f-3     :     0.000000


                     *******************************
                     * LOEWDIN POPULATION ANALYSIS *
                     *******************************

-------------------------------------------
LOEWDIN ATOMIC CHARGES AND SPIN POPULATIONS
-------------------------------------------
   0 S :   -0.000000    1.000000
   1 S :    0.000000    1.000000

----------------------------------------------------
LOEWDIN REDUCED ORBITAL CHARGES AND SPIN POPULATIONS
----------------------------------------------------
CHARGE
  0 S s       :     5.490786  s :     5.490786
      pz      :     3.230406  p :     9.765665
      px      :     3.267630
      py      :     3.267630
      dz2     :     0.209261  d :     0.532527
      dxz     :     0.161633
      dyz     :     0.161633
      dx2y2   :     0.000000
      dxy     :     0.000000
      f0      :     0.069547  f :     0.211022
      f+1     :     0.070737
      f-1     :     0.070737
      f+2     :     0.000000
      f-2     :     0.000000
      f+3     :     0.000000
      f-3     :     0.000000
  1 S s       :     5.490786  s :     5.490786
      pz      :     3.230406  p :     9.765665
      px      :     3.267630
      py      :     3.267630
      dz2     :     0.209261  d :     0.532527
      dxz     :     0.161633
      dyz     :     0.161633
      dx2y2   :     0.000000
      dxy     :     0.000000
      f0      :     0.069547  f :     0.211022
      f+1     :     0.070737
      f-1     :     0.070737
      f+2     :     0.000000
      f-2     :     0.000000
      f+3     :     0.000000
      f-3     :     0.000000

SPIN
  0 S s       :     0.005293  s :     0.005293
      pz      :    -0.009147  p :     0.770547
      px      :     0.389847
      py      :     0.389847
      dz2     :     0.003817  d :     0.166660
      dxz     :     0.081421
      dyz     :     0.081421
      dx2y2   :     0.000000
      dxy     :    -0.000000
      f0      :     0.000037  f :     0.057501
      f+1     :     0.028732
      f-1     :     0.028732
      f+2     :     0.000000
      f-2     :    -0.000000
      f+3     :     0.000000
      f-3     :     0.000000
  1 S s       :     0.005293  s :     0.005293
      pz      :    -0.009147  p :     0.770547
      px      :     0.389847
      py      :     0.389847
      dz2     :     0.003817  d :     0.166660
      dxz     :     0.081421
      dyz     :     0.081421
      dx2y2   :    -0.000000
      dxy     :    -0.000000
      f0      :     0.000037  f :     0.057501
      f+1     :     0.028732
      f-1     :     0.028732
      f+2     :     0.000000
      f-2     :    -0.000000
      f+3     :     0.000000
      f-3     :     0.000000


                      *****************************
                      * MAYER POPULATION ANALYSIS *
                      *****************************

  NA   - Mulliken gross atomic population
  ZA   - Total nuclear charge
  QA   - Mulliken gross atomic charge
  VA   - Mayer's total valence
  BVA  - Mayer's bonded valence
  FA   - Mayer's free valence

  ATOM       NA         ZA         QA         VA         BVA        FA
  0 S     16.0000    16.0000    -0.0000     2.4802     1.9015     0.5787
  1 S     16.0000    16.0000     0.0000     2.4802     1.9015     0.5787

  Mayer bond orders larger than 0.100000
B(  0-S ,  1-S ) :   1.9015 

-------
TIMINGS
-------

Total SCF time: 0 days 0 hours 0 min 6 sec 

Total time                  ....       6.353 sec
Sum of individual times     ....       5.855 sec  ( 92.2%)

Fock matrix formation       ....       5.035 sec  ( 79.3%)
  XC integration            ....       1.369 sec  ( 27.2% of F)
    Basis function eval.    ....       0.023 sec  (  1.7% of XC)
    Density eval.           ....       0.032 sec  (  2.4% of XC)
    XC-Functional eval.     ....       0.012 sec  (  0.8% of XC)
    XC-Potential eval.      ....       0.094 sec  (  6.9% of XC)
Diagonalization             ....       0.117 sec  (  1.8%)
Density matrix formation    ....       0.013 sec  (  0.2%)
Population analysis         ....       0.080 sec  (  1.3%)
Initial guess               ....       0.134 sec  (  2.1%)
Orbital Transformation      ....       0.000 sec  (  0.0%)
Orbital Orthonormalization  ....       0.000 sec  (  0.0%)
DIIS solution               ....       0.260 sec  (  4.1%)
Grid generation             ....       0.214 sec  (  3.4%)


-------------------------------------------------------------------------------
                          DFT DISPERSION CORRECTION                            
                                                                               
                              DFTD3 V3.1  Rev 1                                
                          USING Becke-Johnson damping                          
-------------------------------------------------------------------------------
The TPSSH functional is recognized
Active option DFTDOPT                   ...         4   

molecular C6(AA) [au] = 523.801743 


            DFT-D V3
 parameters
 s6 scaling factor         :     1.0000 
 a1 scaling factor         :     0.4529 
 s8 scaling factor         :     2.2382 
 a2 scaling factor         :     4.6550 
 ad hoc parameters k1-k3   :    16.0000     1.3333    -4.0000 

 Edisp/kcal,au: -0.994588282552  -0.001584977148 
 E6   /kcal   :  -0.354770107 
 E8   /kcal   :  -0.639818176 
 % E8         :  64.329953083 

-------------------------   ----------------
Dispersion correction           -0.001584977
-------------------------   ----------------


-------------------------   --------------------
FINAL SINGLE POINT ENERGY      -796.445857007370
-------------------------   --------------------



           ************************************************************
           *        Program running with 24 parallel MPI-processes    *
           *              working on a common directory               *
           ************************************************************
------------------------------------------------------------------------------
                         ORCA SCF GRADIENT CALCULATION
------------------------------------------------------------------------------

Gradient of the Kohn-Sham DFT energy:
Kohn-Sham wavefunction type      ... UKS
Hartree-Fock exchange scaling    ...    0.100
Number of operators              ...    2
Number of atoms                  ...    2
Basis set dimensions             ...  110
Integral neglect threshold       ... 2.5e-11
Integral primitive cutoff        ... 2.5e-12

Nuclear repulsion gradient       ... done
One Electron Gradient            ... done
Pre-screening matrix             ... done
Starting the two electron gradient:
Two electron gradient done
Exchange-correlation gradient    ... done
Dispersion correction            ... done

------------------
CARTESIAN GRADIENT
------------------

   1   S   :    0.000000001   -0.000000000    0.006381499
   2   S   :    0.000000003    0.000000000   -0.006381502

Difference to translation invariance:
           :    0.0000000047   -0.0000000003   -0.0000000024

Norm of the cartesian gradient     ...    0.0090248044
RMS gradient                       ...    0.0036843610
MAX gradient                       ...    0.0063815016

-------
TIMINGS
-------

Total SCF gradient time            ...        1.333 sec

One electron gradient       ....       0.001 sec  (  0.1%)
Prescreening matrices       ....       0.065 sec  (  4.9%)
Two electron gradient       ....       0.957 sec  ( 71.8%)
XC gradient                 ....       0.029 sec  (  2.2%)
------------------------------------------------------------------------------
                         ORCA GEOMETRY RELAXATION STEP
------------------------------------------------------------------------------

Reading the OPT-File                    .... done
Getting information on internals        .... done
Copying old internal coords+grads       .... done
Making the new internal coordinates     .... (new redundants).... done
Validating the new internal coordinates .... (new redundants).... done
Calculating the B-matrix                .... done
Calculating the G,G- and P matrices     .... done
Transforming gradient to internals      .... done
Projecting the internal gradient        .... done
Number of atoms                         ....   2
Number of internal coordinates          ....   1
Current Energy                          ....  -796.445857007 Eh
Current gradient norm                   ....     0.009024804 Eh/bohr
Maximum allowed component of the step   ....  0.300
Current trust radius                    ....  0.300
Evaluating the initial hessian          ....  (Almloef) done
Projecting the Hessian                  .... done
Forming the augmented Hessian           .... done
Diagonalizing the augmented Hessian     .... done
Last element of RFO vector              ....  0.999962049
Lowest eigenvalues of augmented Hessian:
 -0.000055598
Length of the computed step             ....  0.008712435
The final length of the internal step   ....  0.008712435
Converting the step to cartesian space:
 Initial RMS(Int)=    0.0087124347
Transforming coordinates:
 Iter   0:  RMS(Cart)=    0.0025150633 RMS(Int)=    0.0087124347
 Iter   1:  RMS(Cart)=    0.0000000000 RMS(Int)=    0.0000000000
done
Storing new coordinates                 .... done

                                .--------------------.
          ----------------------|Geometry convergence|-------------------------
          Item                value                   Tolerance       Converged
          ---------------------------------------------------------------------
          RMS gradient        0.0063815004            0.0001000000      NO
          MAX gradient        0.0063815004            0.0003000000      NO
          RMS step            0.0087124347            0.0020000000      NO
          MAX step            0.0087124347            0.0040000000      NO
          ........................................................
          Max(Bonds)      0.0046      Max(Angles)    0.00
          Max(Dihed)        0.00      Max(Improp)    0.00
          ---------------------------------------------------------------------

The optimization has not yet converged - more geometry cycles are needed


    ---------------------------------------------------------------------------
                         Redundant Internal Coordinates
                            (Angstroem and degrees)

        Definition                    Value    dE/dq     Step     New-Value
    ----------------------------------------------------------------------------
     1. B(S   1,S   0)                1.8867 -0.006382  0.0046    1.8914   
    ----------------------------------------------------------------------------

         *************************************************************
         *                GEOMETRY OPTIMIZATION CYCLE   2            *
         *************************************************************
---------------------------------
CARTESIAN COORDINATES (ANGSTROEM)
---------------------------------
  S      0.000000    0.000000    0.002765
  S      0.000000    0.000000    1.894120

----------------------------
CARTESIAN COORDINATES (A.U.)
----------------------------
  NO LB      ZA    FRAG     MASS         X           Y           Z
   0 S    16.0000    0    32.060    0.000000    0.000000    0.005225
   1 S    16.0000    0    32.060    0.000000    0.000000    3.579367

--------------------------------
INTERNAL COORDINATES (ANGSTROEM)
--------------------------------
 S      0   0   0     0.000000000000     0.00000000     0.00000000
 S      1   0   0     1.891354697878     0.00000000     0.00000000

---------------------------
INTERNAL COORDINATES (A.U.)
---------------------------
 S      0   0   0     0.000000000000     0.00000000     0.00000000
 S      1   0   0     3.574142401094     0.00000000     0.00000000



           ************************************************************
           *        Program running with 24 parallel MPI-processes    *
           *              working on a common directory               *
           ************************************************************


           ************************************************************
           *        Program running with 24 parallel MPI-processes    *
           *              working on a common directory               *
           ************************************************************

Diagonalization of the overlap matrix:
Smallest eigenvalue                        ... 2.134e-04
Time for diagonalization                   ...    0.004 sec
Threshold for overlap eigenvalues          ... 1.000e-08
Number of eigenvalues below threshold      ... 0
Time for construction of square roots      ...    0.011 sec
Total time needed                          ...    0.015 sec

-------------------
DFT GRID GENERATION
-------------------

General Integration Accuracy     IntAcc      ...  4.340
Radial Grid Type                 RadialGrid  ... Gauss-Chebyshev
Angular Grid (max. acc.)         AngularGrid ... Lebedev-110
Angular grid pruning method      GridPruning ... 3 (G Style)
Weight generation scheme         WeightScheme... Becke
Basis function cutoff            BFCut       ...    1.0000e-11
Integration weight cutoff        WCut        ...    1.0000e-14
Grids for H and He will be reduced by one unit

# of grid points (after initial pruning)     ...   3612 (   0.0 sec)
# of grid points (after weights+screening)   ...   3588 (   0.0 sec)
nearest neighbour list constructed           ...    0.0 sec
Grid point re-assignment to atoms done       ...    0.0 sec
Grid point division into batches done        ...    0.0 sec
Reduced shell lists constructed in    0.0 sec

Total number of grid points                  ...     3588
Total number of batches                      ...       58
Average number of points per batch           ...       61
Average number of grid points per atom       ...     1794
Average number of shells per batch           ...    21.00 (61.76%)
Average number of basis functions per batch  ...    67.50 (61.36%)
Average number of large shells per batch     ...    14.25 (67.86%)
Average number of large basis fcns per batch ...    50.75 (75.19%)
Maximum spatial batch extension              ...  29.83, 22.78, 16.59 au
Average spatial batch extension              ...   1.05,  1.06,  0.74 au

Time for grid setup =    0.052 sec

--------------
SCF ITERATIONS
--------------
ITER       Energy         Delta-E        Max-DP      RMS-DP      [F,P]     Damp
               ***  Starting incremental Fock matrix formation  ***
  0   -796.4417142992   0.000000000000 0.00013494  0.00000460  0.0008271 0.7000
  1   -796.4417160540  -0.000001754807 0.00011914  0.00000386  0.0005526 0.7000
                               ***Turning on DIIS***
  2   -796.4417172743  -0.000001220377 0.00031929  0.00001011  0.0003932 0.0000
  3   -796.4417200526  -0.000002778243 0.00006210  0.00000214  0.0001260 0.0000
  4   -796.4417200808  -0.000000028189 0.00001980  0.00000079  0.0000884 0.0000
  5   -796.4417201103  -0.000000029512 0.00000376  0.00000015  0.0000099 0.0000
  6   -796.4417201108  -0.000000000497 0.00000076  0.00000003  0.0000012 0.0000
                 **** Energy Check signals convergence ****

               *****************************************************
               *                     SUCCESS                       *
               *           SCF CONVERGED AFTER   7 CYCLES          *
               *****************************************************

Setting up the final grid:

General Integration Accuracy     IntAcc      ...  4.670
Radial Grid Type                 RadialGrid  ... Gauss-Chebyshev
Angular Grid (max. acc.)         AngularGrid ... Lebedev-302
Angular grid pruning method      GridPruning ... 3 (G Style)
Weight generation scheme         WeightScheme... Becke
Basis function cutoff            BFCut       ...    1.0000e-11
Integration weight cutoff        WCut        ...    1.0000e-14
Grids for H and He will be reduced by one unit

# of grid points (after initial pruning)     ...  13692 (   0.0 sec)
# of grid points (after weights+screening)   ...  13666 (   0.0 sec)
nearest neighbour list constructed           ...    0.0 sec
Grid point re-assignment to atoms done       ...    0.0 sec
Grid point division into batches done        ...    0.1 sec
Reduced shell lists constructed in    0.1 sec

Total number of grid points                  ...    13666
Total number of batches                      ...      214
Average number of points per batch           ...       63
Average number of grid points per atom       ...     6833
Average number of shells per batch           ...     9.60 (28.24%)
Average number of basis functions per batch  ...    30.60 (27.82%)
Average number of large shells per batch     ...     6.20 (64.58%)
Average number of large basis fcns per batch ...    18.20 (59.48%)
Maximum spatial batch extension              ...  19.50, 19.55, 13.44 au
Average spatial batch extension              ...   0.66,  0.66,  0.47 au

Final grid set up in    0.2 sec
Final integration                            ... done (   0.1 sec)
Change in XC energy                          ...    -0.002593012
Integrated number of electrons               ...    32.000003457
Previous integrated no of electrons          ...    32.000151508
Total Energy       :         -796.44431312 Eh          -21672.35156 eV
  Last Energy change         ...   -8.0831e-11  Tolerance :   1.0000e-08
  Last MAX-Density change    ...    2.8423e-07  Tolerance :   1.0000e-07
             **** THE GBW FILE WAS UPDATED (32_S2.gbw) ****
             **** DENSITY FILE WAS UPDATED (32_S2.scfp) ****
             **** ENERGY FILE WAS UPDATED (32_S2.en.tmp) ****
----------------------
UHF SPIN CONTAMINATION
----------------------

Warning: in a DFT calculation there is little theoretical justification to 
         calculate <S**2> as in Hartree-Fock theory. We will do it anyways
         but you should keep in mind that the values have only limited relevance

Expectation value of <S**2>     :     2.010061
Ideal value S*(S+1) for S=1.0   :     2.000000
Deviation                       :     0.010061

             **** THE GBW FILE WAS UPDATED (32_S2.gbw) ****
             **** DENSITY FILE WAS UPDATED (32_S2.scfp) ****
Total SCF time: 0 days 0 hours 0 min 4 sec 


-------------------------------------------------------------------------------
                          DFT DISPERSION CORRECTION                            
                                                                               
                              DFTD3 V3.1  Rev 1                                
                          USING Becke-Johnson damping                          
-------------------------------------------------------------------------------
-------------------------   ----------------
Dispersion correction           -0.001584867
-------------------------   ----------------


-------------------------   --------------------
FINAL SINGLE POINT ENERGY      -796.445897989772
-------------------------   --------------------



           ************************************************************
           *        Program running with 24 parallel MPI-processes    *
           *              working on a common directory               *
           ************************************************************
------------------------------------------------------------------------------
                         ORCA SCF GRADIENT CALCULATION
------------------------------------------------------------------------------

Gradient of the Kohn-Sham DFT energy:
Kohn-Sham wavefunction type      ... UKS
Hartree-Fock exchange scaling    ...    0.100
Number of operators              ...    2
Number of atoms                  ...    2
Basis set dimensions             ...  110
Integral neglect threshold       ... 2.5e-11
Integral primitive cutoff        ... 2.5e-12

Nuclear repulsion gradient       ... done
One Electron Gradient            ... done
Pre-screening matrix             ... done
Starting the two electron gradient:
Two electron gradient done
Exchange-correlation gradient    ... done
Dispersion correction            ... done

------------------
CARTESIAN GRADIENT
------------------

   1   S   :    0.000000001    0.000000001    0.003506124
   2   S   :    0.000000003   -0.000000003   -0.003506130

Difference to translation invariance:
           :    0.0000000041   -0.0000000022   -0.0000000059

Norm of the cartesian gradient     ...    0.0049584128
RMS gradient                       ...    0.0020242635
MAX gradient                       ...    0.0035061302

-------
TIMINGS
-------

Total SCF gradient time            ...        1.328 sec

One electron gradient       ....       0.011 sec  (  0.8%)
Prescreening matrices       ....       0.065 sec  (  4.9%)
Two electron gradient       ....       0.976 sec  ( 73.5%)
XC gradient                 ....       0.029 sec  (  2.2%)
------------------------------------------------------------------------------
                         ORCA GEOMETRY RELAXATION STEP
------------------------------------------------------------------------------

Reading the OPT-File                    .... done
Getting information on internals        .... done
Copying old internal coords+grads       .... done
Making the new internal coordinates     .... (new redundants).... done
Validating the new internal coordinates .... (new redundants).... done
Calculating the B-matrix                .... done
Calculating the G,G- and P matrices     .... done
Transforming gradient to internals      .... done
Projecting the internal gradient        .... done
Number of atoms                         ....   2
Number of internal coordinates          ....   1
Current Energy                          ....  -796.445897990 Eh
Current gradient norm                   ....     0.004958413 Eh/bohr
Maximum allowed component of the step   ....  0.300
Current trust radius                    ....  0.300
Updating the Hessian (BFGS)             .... done
Forming the augmented Hessian           .... done
Diagonalizing the augmented Hessian     .... done
Last element of RFO vector              ....  0.999943587
Lowest eigenvalues of augmented Hessian:
 -0.000037244
Length of the computed step             ....  0.010622433
The final length of the internal step   ....  0.010622433
Converting the step to cartesian space:
 Initial RMS(Int)=    0.0106224329
Transforming coordinates:
 Iter   0:  RMS(Cart)=    0.0030664323 RMS(Int)=    0.0106224329
 Iter   1:  RMS(Cart)=    0.0000000000 RMS(Int)=    0.0000000000
done
Storing new coordinates                 .... done

                                .--------------------.
          ----------------------|Geometry convergence|-------------------------
          Item                value                   Tolerance       Converged
          ---------------------------------------------------------------------
          Energy change      -0.0000409824            0.0000050000      NO
          RMS gradient        0.0035061273            0.0001000000      NO
          MAX gradient        0.0035061273            0.0003000000      NO
          RMS step            0.0106224329            0.0020000000      NO
          MAX step            0.0106224329            0.0040000000      NO
          ........................................................
          Max(Bonds)      0.0056      Max(Angles)    0.00
          Max(Dihed)        0.00      Max(Improp)    0.00
          ---------------------------------------------------------------------

The optimization has not yet converged - more geometry cycles are needed


    ---------------------------------------------------------------------------
                         Redundant Internal Coordinates
                            (Angstroem and degrees)

        Definition                    Value    dE/dq     Step     New-Value
    ----------------------------------------------------------------------------
     1. B(S   1,S   0)                1.8914 -0.003506  0.0056    1.8970   
    ----------------------------------------------------------------------------

         *************************************************************
         *                GEOMETRY OPTIMIZATION CYCLE   3            *
         *************************************************************
---------------------------------
CARTESIAN COORDINATES (ANGSTROEM)
---------------------------------
  S      0.000000    0.000000   -0.000046
  S      0.000000    0.000000    1.896930

----------------------------
CARTESIAN COORDINATES (A.U.)
----------------------------
  NO LB      ZA    FRAG     MASS         X           Y           Z
   0 S    16.0000    0    32.060    0.000000    0.000000   -0.000086
   1 S    16.0000    0    32.060    0.000000    0.000000    3.584679

--------------------------------
INTERNAL COORDINATES (ANGSTROEM)
--------------------------------
 S      0   0   0     0.000000000000     0.00000000     0.00000000
 S      1   0   0     1.896975847289     0.00000000     0.00000000

---------------------------
INTERNAL COORDINATES (A.U.)
---------------------------
 S      0   0   0     0.000000000000     0.00000000     0.00000000
 S      1   0   0     3.584764834040     0.00000000     0.00000000



           ************************************************************
           *        Program running with 24 parallel MPI-processes    *
           *              working on a common directory               *
           ************************************************************


           ************************************************************
           *        Program running with 24 parallel MPI-processes    *
           *              working on a common directory               *
           ************************************************************

Diagonalization of the overlap matrix:
Smallest eigenvalue                        ... 2.162e-04
Time for diagonalization                   ...    0.004 sec
Threshold for overlap eigenvalues          ... 1.000e-08
Number of eigenvalues below threshold      ... 0
Time for construction of square roots      ...    0.011 sec
Total time needed                          ...    0.015 sec

-------------------
DFT GRID GENERATION
-------------------

General Integration Accuracy     IntAcc      ...  4.340
Radial Grid Type                 RadialGrid  ... Gauss-Chebyshev
Angular Grid (max. acc.)         AngularGrid ... Lebedev-110
Angular grid pruning method      GridPruning ... 3 (G Style)
Weight generation scheme         WeightScheme... Becke
Basis function cutoff            BFCut       ...    1.0000e-11
Integration weight cutoff        WCut        ...    1.0000e-14
Grids for H and He will be reduced by one unit

# of grid points (after initial pruning)     ...   3612 (   0.0 sec)
# of grid points (after weights+screening)   ...   3588 (   0.0 sec)
nearest neighbour list constructed           ...    0.0 sec
Grid point re-assignment to atoms done       ...    0.0 sec
Grid point division into batches done        ...    0.0 sec
Reduced shell lists constructed in    0.0 sec

Total number of grid points                  ...     3588
Total number of batches                      ...       58
Average number of points per batch           ...       61
Average number of grid points per atom       ...     1794
Average number of shells per batch           ...    21.00 (61.76%)
Average number of basis functions per batch  ...    67.50 (61.36%)
Average number of large shells per batch     ...    14.25 (67.86%)
Average number of large basis fcns per batch ...    50.75 (75.19%)
Maximum spatial batch extension              ...  29.83, 22.78, 16.59 au
Average spatial batch extension              ...   1.05,  1.06,  0.74 au

Time for grid setup =    0.042 sec

--------------
SCF ITERATIONS
--------------
ITER       Energy         Delta-E        Max-DP      RMS-DP      [F,P]     Damp
               ***  Starting incremental Fock matrix formation  ***
  0   -796.4417198867   0.000000000000 0.00016356  0.00000558  0.0010022 0.7000
  1   -796.4417224601  -0.000002573412 0.00014435  0.00000468  0.0006702 0.7000
                               ***Turning on DIIS***
  2   -796.4417242521  -0.000001792033 0.00038665  0.00001225  0.0004774 0.0000
  3   -796.4417283357  -0.000004083553 0.00007514  0.00000258  0.0001512 0.0000
  4   -796.4417283765  -0.000000040871 0.00002390  0.00000096  0.0001070 0.0000
  5   -796.4417284198  -0.000000043319 0.00000453  0.00000018  0.0000120 0.0000
  6   -796.4417284206  -0.000000000774 0.00000090  0.00000003  0.0000015 0.0000
                 **** Energy Check signals convergence ****

               *****************************************************
               *                     SUCCESS                       *
               *           SCF CONVERGED AFTER   7 CYCLES          *
               *****************************************************

Setting up the final grid:

General Integration Accuracy     IntAcc      ...  4.670
Radial Grid Type                 RadialGrid  ... Gauss-Chebyshev
Angular Grid (max. acc.)         AngularGrid ... Lebedev-302
Angular grid pruning method      GridPruning ... 3 (G Style)
Weight generation scheme         WeightScheme... Becke
Basis function cutoff            BFCut       ...    1.0000e-11
Integration weight cutoff        WCut        ...    1.0000e-14
Grids for H and He will be reduced by one unit

# of grid points (after initial pruning)     ...  13692 (   0.0 sec)
# of grid points (after weights+screening)   ...  13666 (   0.0 sec)
nearest neighbour list constructed           ...    0.0 sec
Grid point re-assignment to atoms done       ...    0.0 sec
Grid point division into batches done        ...    0.1 sec
Reduced shell lists constructed in    0.1 sec

Total number of grid points                  ...    13666
Total number of batches                      ...      214
Average number of points per batch           ...       63
Average number of grid points per atom       ...     6833
Average number of shells per batch           ...     9.60 (28.24%)
Average number of basis functions per batch  ...    30.60 (27.82%)
Average number of large shells per batch     ...     6.20 (64.58%)
Average number of large basis fcns per batch ...    18.20 (59.48%)
Maximum spatial batch extension              ...  19.50, 19.55, 13.45 au
Average spatial batch extension              ...   0.66,  0.66,  0.47 au

Final grid set up in    0.2 sec
Final integration                            ... done (   0.1 sec)
Change in XC energy                          ...    -0.002601344
Integrated number of electrons               ...    32.000004811
Previous integrated no of electrons          ...    32.000131141
Total Energy       :         -796.44432976 Eh          -21672.35201 eV
  Last Energy change         ...    2.5807e-11  Tolerance :   1.0000e-08
  Last MAX-Density change    ...    3.5585e-07  Tolerance :   1.0000e-07
             **** THE GBW FILE WAS UPDATED (32_S2.gbw) ****
             **** DENSITY FILE WAS UPDATED (32_S2.scfp) ****
             **** ENERGY FILE WAS UPDATED (32_S2.en.tmp) ****
----------------------
UHF SPIN CONTAMINATION
----------------------

Warning: in a DFT calculation there is little theoretical justification to 
         calculate <S**2> as in Hartree-Fock theory. We will do it anyways
         but you should keep in mind that the values have only limited relevance

Expectation value of <S**2>     :     2.010054
Ideal value S*(S+1) for S=1.0   :     2.000000
Deviation                       :     0.010054

             **** THE GBW FILE WAS UPDATED (32_S2.gbw) ****
             **** DENSITY FILE WAS UPDATED (32_S2.scfp) ****
Total SCF time: 0 days 0 hours 0 min 5 sec 


-------------------------------------------------------------------------------
                          DFT DISPERSION CORRECTION                            
                                                                               
                              DFTD3 V3.1  Rev 1                                
                          USING Becke-Johnson damping                          
-------------------------------------------------------------------------------
-------------------------   ----------------
Dispersion correction           -0.001584730
-------------------------   ----------------


-------------------------   --------------------
FINAL SINGLE POINT ENERGY      -796.445914494695
-------------------------   --------------------



           ************************************************************
           *        Program running with 24 parallel MPI-processes    *
           *              working on a common directory               *
           ************************************************************
------------------------------------------------------------------------------
                         ORCA SCF GRADIENT CALCULATION
------------------------------------------------------------------------------

Gradient of the Kohn-Sham DFT energy:
Kohn-Sham wavefunction type      ... UKS
Hartree-Fock exchange scaling    ...    0.100
Number of operators              ...    2
Number of atoms                  ...    2
Basis set dimensions             ...  110
Integral neglect threshold       ... 2.5e-11
Integral primitive cutoff        ... 2.5e-12

Nuclear repulsion gradient       ... done
One Electron Gradient            ... done
Pre-screening matrix             ... done
Starting the two electron gradient:
Two electron gradient done
Exchange-correlation gradient    ... done
Dispersion correction            ... done

------------------
CARTESIAN GRADIENT
------------------

   1   S   :   -0.000000000   -0.000000002    0.000086614
   2   S   :    0.000000003   -0.000000002   -0.000086614

Difference to translation invariance:
           :    0.0000000031   -0.0000000039   -0.0000000002

Norm of the cartesian gradient     ...    0.0001224908
RMS gradient                       ...    0.0000500067
MAX gradient                       ...    0.0000866142

-------
TIMINGS
-------

Total SCF gradient time            ...        1.323 sec

One electron gradient       ....       0.016 sec  (  1.2%)
Prescreening matrices       ....       0.065 sec  (  4.9%)
Two electron gradient       ....       0.961 sec  ( 72.6%)
XC gradient                 ....       0.027 sec  (  2.1%)
------------------------------------------------------------------------------
                         ORCA GEOMETRY RELAXATION STEP
------------------------------------------------------------------------------

Reading the OPT-File                    .... done
Getting information on internals        .... done
Copying old internal coords+grads       .... done
Making the new internal coordinates     .... (new redundants).... done
Validating the new internal coordinates .... (new redundants).... done
Calculating the B-matrix                .... done
Calculating the G,G- and P matrices     .... done
Transforming gradient to internals      .... done
Projecting the internal gradient        .... done
Number of atoms                         ....   2
Number of internal coordinates          ....   1
Current Energy                          ....  -796.445914495 Eh
Current gradient norm                   ....     0.000122491 Eh/bohr
Maximum allowed component of the step   ....  0.300
Current trust radius                    ....  0.300
Updating the Hessian (BFGS)             .... done
Forming the augmented Hessian           .... done
Diagonalizing the augmented Hessian     .... done
Last element of RFO vector              ....  0.999999964
Lowest eigenvalues of augmented Hessian:
 -0.000000023
Length of the computed step             ....  0.000269059
The final length of the internal step   ....  0.000269059
Converting the step to cartesian space:
 Initial RMS(Int)=    0.0002690594
Transforming coordinates:
 Iter   0:  RMS(Cart)=    0.0000776708 RMS(Int)=    0.0002690594
 Iter   1:  RMS(Cart)=    0.0000000000 RMS(Int)=    0.0000000000
done
Storing new coordinates                 .... done

                                .--------------------.
          ----------------------|Geometry convergence|-------------------------
          Item                value                   Tolerance       Converged
          ---------------------------------------------------------------------
          Energy change      -0.0000165049            0.0000050000      NO
          RMS gradient        0.0000866141            0.0001000000      YES
          MAX gradient        0.0000866141            0.0003000000      YES
          RMS step            0.0002690594            0.0020000000      YES
          MAX step            0.0002690594            0.0040000000      YES
          ........................................................
          Max(Bonds)      0.0001      Max(Angles)    0.00
          Max(Dihed)        0.00      Max(Improp)    0.00
          ---------------------------------------------------------------------

       Everything but the energy has converged. However, the energy
       appears to be close enough to convergence to make sure that the
       final evaluation at the new geometry represents the equilibrium energy.
       Convergence will therefore be signaled now


                    ***********************HURRAY********************
                    ***        THE OPTIMIZATION HAS CONVERGED     ***
                    *************************************************


    ---------------------------------------------------------------------------
                         Redundant Internal Coordinates

                          --- Optimized Parameters ---  
                            (Angstroem and degrees)

        Definition                    OldVal   dE/dq     Step     FinalVal
    ----------------------------------------------------------------------------
     1. B(S   1,S   0)                1.8970 -0.000087  0.0001    1.8971   
    ----------------------------------------------------------------------------
                 *******************************************************
                 *** FINAL ENERGY EVALUATION AT THE STATIONARY POINT ***
                 ***               (AFTER    3 CYCLES)               ***
                 *******************************************************
---------------------------------
CARTESIAN COORDINATES (ANGSTROEM)
---------------------------------
  S      0.000000    0.000000   -0.000117
  S      0.000000    0.000000    1.897001

----------------------------
CARTESIAN COORDINATES (A.U.)
----------------------------
  NO LB      ZA    FRAG     MASS         X           Y           Z
   0 S    16.0000    0    32.060    0.000000    0.000000   -0.000221
   1 S    16.0000    0    32.060    0.000000    0.000000    3.584813

--------------------------------
INTERNAL COORDINATES (ANGSTROEM)
--------------------------------
 S      0   0   0     0.000000000000     0.00000000     0.00000000
 S      1   0   0     1.897118227393     0.00000000     0.00000000

---------------------------
INTERNAL COORDINATES (A.U.)
---------------------------
 S      0   0   0     0.000000000000     0.00000000     0.00000000
 S      1   0   0     3.585033893443     0.00000000     0.00000000

---------------------
BASIS SET INFORMATION
---------------------
There are 1 groups of distinct atoms

 Group   1 Type S   : 42s17p4d2f contracted to 6s5p4d2f pattern {131313111/77111/1111/11}

Atom   0S    basis set group =>   1
Atom   1S    basis set group =>   1
----------------------------------
AUXILIARY/JK BASIS SET INFORMATION
----------------------------------
There are 1 groups of distinct atoms

 Group   1 Type S   : 16s12p10d4f1g contracted to 13s11p9d4f1g pattern {4111111111111/21111111111/211111111/1111/1}

Atom   0S    basis set group =>   1
Atom   1S    basis set group =>   1


           ************************************************************
           *        Program running with 24 parallel MPI-processes    *
           *              working on a common directory               *
           ************************************************************
------------------------------------------------------------------------------
                           ORCA GTO INTEGRAL CALCULATION
------------------------------------------------------------------------------

                         BASIS SET STATISTICS AND STARTUP INFO

 # of primitive gaussian shells          ...  130
 # of primitive gaussian functions       ...  254
 # of contracted shells                  ...   34
 # of contracted basis functions         ...  110
 Highest angular momentum                ...    3
 Maximum contraction depth               ...   13
 Integral package used                   ... LIBINT
 Integral threshhold            Thresh   ...  2.500e-11
 Primitive cut-off              TCut     ...  2.500e-12


------------------------------ INTEGRAL EVALUATION ----------------------------


 * One electron integrals 
 Pre-screening matrix                    ... done
 Shell pair data                         ... done (   0.000 sec)



           ************************************************************
           *        Program running with 24 parallel MPI-processes    *
           *              working on a common directory               *
           ************************************************************
-------------------------------------------------------------------------------
                                 ORCA SCF
-------------------------------------------------------------------------------

------------
SCF SETTINGS
------------
Hamiltonian:
 Density Functional     Method          .... DFT(GTOs)
 Exchange Functional    Exchange        .... TPSS
 Correlation Functional Correlation     .... TPSS
 LDA part of GGA corr.  LDAOpt          .... PW91-LDA
 Gradients option       PostSCFGGA      .... off
 Hybrid DFT is turned on
   Fraction HF Exchange ScalHFX         ....  0.100000
   Scaling of DF-GGA-X  ScalDFX         ....  0.900000
   Scaling of DF-GGA-C  ScalDFC         ....  1.000000
   Scaling of DF-LDA-C  ScalLDAC        ....  1.000000
   Perturbative correction              ....  0.000000
   Density functional embedding theory  .... OFF
   NL short-range parameter             ....  5.200000


General Settings:
 Integral files         IntName         .... 32_S2
 Hartree-Fock type      HFTyp           .... UHF
 Total Charge           Charge          ....    0
 Multiplicity           Mult            ....    3
 Number of Electrons    NEL             ....   32
 Basis Dimension        Dim             ....  110
 Nuclear Repulsion      ENuc            ....     71.4079720329 Eh

Convergence Acceleration:
 DIIS                   CNVDIIS         .... on
[...]
  98   0.0000       4.520903       123.0200 
  99   0.0000       5.206562       141.6778 
 100   0.0000       6.712974       182.6693 
 101   0.0000       6.713167       182.6746 
 102   0.0000       6.743235       183.4927 
 103   0.0000       6.743235       183.4927 
 104   0.0000       6.749268       183.6569 
 105   0.0000       6.749544       183.6644 
 106   0.0000       6.859419       186.6543 
 107   0.0000       6.881718       187.2611 
 108   0.0000       6.881718       187.2611 
 109   0.0000       7.149491       194.5475 

                    ********************************
                    * MULLIKEN POPULATION ANALYSIS *
                    ********************************

--------------------------------------------
MULLIKEN ATOMIC CHARGES AND SPIN POPULATIONS
--------------------------------------------
   0 S :   -0.000000    1.000000
   1 S :    0.000000    1.000000
Sum of atomic charges         :   -0.0000000
Sum of atomic spin populations:    2.0000000

-----------------------------------------------------
MULLIKEN REDUCED ORBITAL CHARGES AND SPIN POPULATIONS
-----------------------------------------------------
CHARGE
  0 S s       :     5.984004  s :     5.984004
      pz      :     2.987123  p :     9.864907
      px      :     3.438892
      py      :     3.438892
      dz2     :     0.024759  d :     0.131073
      dxz     :     0.053157
      dyz     :     0.053157
      dx2y2   :     0.000000
      dxy     :     0.000000
      f0      :     0.004113  f :     0.020017
      f+1     :     0.007952
      f-1     :     0.007952
      f+2     :    -0.000000
      f-2     :     0.000000
      f+3     :     0.000000
      f-3     :     0.000000
  1 S s       :     5.984004  s :     5.984004
      pz      :     2.987123  p :     9.864907
      px      :     3.438892
      py      :     3.438892
      dz2     :     0.024759  d :     0.131073
      dxz     :     0.053157
      dyz     :     0.053157
      dx2y2   :     0.000000
      dxy     :     0.000000
      f0      :     0.004113  f :     0.020017
      f+1     :     0.007952
      f-1     :     0.007952
      f+2     :    -0.000000
      f-2     :     0.000000
      f+3     :     0.000000
      f-3     :     0.000000

SPIN
  0 S s       :     0.007650  s :     0.007650
      pz      :    -0.007422  p :     0.974593
      px      :     0.491008
      py      :     0.491008
      dz2     :     0.000794  d :     0.017785
      dxz     :     0.008495
      dyz     :     0.008495
      dx2y2   :     0.000000
      dxy     :    -0.000000
      f0      :    -0.001022  f :    -0.000028
      f+1     :     0.000497
      f-1     :     0.000497
      f+2     :     0.000000
      f-2     :    -0.000000
      f+3     :     0.000000
      f-3     :     0.000000
  1 S s       :     0.007650  s :     0.007650
      pz      :    -0.007422  p :     0.974593
      px      :     0.491008
      py      :     0.491008
      dz2     :     0.000794  d :     0.017785
      dxz     :     0.008495
      dyz     :     0.008495
      dx2y2   :    -0.000000
      dxy     :    -0.000000
      f0      :    -0.001022  f :    -0.000028
      f+1     :     0.000497
      f-1     :     0.000497
      f+2     :     0.000000
      f-2     :    -0.000000
      f+3     :     0.000000
      f-3     :     0.000000


                     *******************************
                     * LOEWDIN POPULATION ANALYSIS *
                     *******************************

-------------------------------------------
LOEWDIN ATOMIC CHARGES AND SPIN POPULATIONS
-------------------------------------------
   0 S :   -0.000000    1.000000
   1 S :    0.000000    1.000000

----------------------------------------------------
LOEWDIN REDUCED ORBITAL CHARGES AND SPIN POPULATIONS
----------------------------------------------------
CHARGE
  0 S s       :     5.496166  s :     5.496166
      pz      :     3.227167  p :     9.770425
      px      :     3.271629
      py      :     3.271629
      dz2     :     0.207627  d :     0.524874
      dxz     :     0.158624
      dyz     :     0.158624
      dx2y2   :     0.000000
      dxy     :     0.000000
      f0      :     0.069040  f :     0.208535
      f+1     :     0.069748
      f-1     :     0.069748
      f+2     :     0.000000
      f-2     :     0.000000
      f+3     :     0.000000
      f-3     :     0.000000
  1 S s       :     5.496166  s :     5.496166
      pz      :     3.227167  p :     9.770425
      px      :     3.271629
      py      :     3.271629
      dz2     :     0.207627  d :     0.524874
      dxz     :     0.158624
      dyz     :     0.158624
      dx2y2   :     0.000000
      dxy     :     0.000000
      f0      :     0.069040  f :     0.208535
      f+1     :     0.069748
      f-1     :     0.069748
      f+2     :     0.000000
      f-2     :     0.000000
      f+3     :     0.000000
      f-3     :     0.000000

SPIN
  0 S s       :     0.005271  s :     0.005271
      pz      :    -0.009049  p :     0.774717
      px      :     0.391883
      py      :     0.391883
      dz2     :     0.003755  d :     0.163291
      dxz     :     0.079768
      dyz     :     0.079768
      dx2y2   :     0.000000
      dxy     :    -0.000000
      f0      :     0.000022  f :     0.056721
      f+1     :     0.028349
      f-1     :     0.028349
      f+2     :     0.000000
      f-2     :    -0.000000
      f+3     :     0.000000
      f-3     :     0.000000
  1 S s       :     0.005271  s :     0.005271
      pz      :    -0.009049  p :     0.774717
      px      :     0.391883
      py      :     0.391883
      dz2     :     0.003755  d :     0.163291
      dxz     :     0.079768
      dyz     :     0.079768
      dx2y2   :    -0.000000
      dxy     :    -0.000000
      f0      :     0.000022  f :     0.056721
      f+1     :     0.028349
      f-1     :     0.028349
      f+2     :     0.000000
      f-2     :    -0.000000
      f+3     :     0.000000
      f-3     :     0.000000


                      *****************************
                      * MAYER POPULATION ANALYSIS *
                      *****************************

  NA   - Mulliken gross atomic population
  ZA   - Total nuclear charge
  QA   - Mulliken gross atomic charge
  VA   - Mayer's total valence
  BVA  - Mayer's bonded valence
  FA   - Mayer's free valence

  ATOM       NA         ZA         QA         VA         BVA        FA
  0 S     16.0000    16.0000    -0.0000     2.4780     1.9001     0.5779
  1 S     16.0000    16.0000     0.0000     2.4780     1.9001     0.5779

  Mayer bond orders larger than 0.100000
B(  0-S ,  1-S ) :   1.9001 

-------
TIMINGS
-------

Total SCF time: 0 days 0 hours 0 min 4 sec 

Total time                  ....       4.034 sec
Sum of individual times     ....       3.543 sec  ( 87.8%)

Fock matrix formation       ....       3.008 sec  ( 74.6%)
  XC integration            ....       0.817 sec  ( 27.2% of F)
    Basis function eval.    ....       0.016 sec  (  2.0% of XC)
    Density eval.           ....       0.022 sec  (  2.7% of XC)
    XC-Functional eval.     ....       0.008 sec  (  0.9% of XC)
    XC-Potential eval.      ....       0.063 sec  (  7.8% of XC)
Diagonalization             ....       0.062 sec  (  1.5%)
Density matrix formation    ....       0.008 sec  (  0.2%)
Population analysis         ....       0.078 sec  (  1.9%)
Initial guess               ....       0.015 sec  (  0.4%)
Orbital Transformation      ....       0.000 sec  (  0.0%)
Orbital Orthonormalization  ....       0.007 sec  (  0.2%)
DIIS solution               ....       0.152 sec  (  3.8%)
Grid generation             ....       0.219 sec  (  5.4%)


-------------------------------------------------------------------------------
                          DFT DISPERSION CORRECTION                            
                                                                               
                              DFTD3 V3.1  Rev 1                                
                          USING Becke-Johnson damping                          
-------------------------------------------------------------------------------
The TPSSH functional is recognized
Active option DFTDOPT                   ...         4   

molecular C6(AA) [au] = 523.802299 


            DFT-D V3
 parameters
 s6 scaling factor         :     1.0000 
 a1 scaling factor         :     0.4529 
 s8 scaling factor         :     2.2382 
 a2 scaling factor         :     4.6550 
 ad hoc parameters k1-k3   :    16.0000     1.3333    -4.0000 

 Edisp/kcal,au: -0.994430924303  -0.001584726382 
 E6   /kcal   :  -0.354665271 
 E8   /kcal   :  -0.639765653 
 % E8         :  64.334850957 

-------------------------   ----------------
Dispersion correction           -0.001584726
-------------------------   ----------------


-------------------------   --------------------
FINAL SINGLE POINT ENERGY      -796.445914442546
-------------------------   --------------------

                                *** OPTIMIZATION RUN DONE ***

                            ***************************************
                            *     ORCA property calculations      *
                            ***************************************

                                    ---------------------
                                    Active property flags
                                    ---------------------
   (+) Dipole Moment


------------------------------------------------------------------------------
                       ORCA ELECTRIC PROPERTIES CALCULATION
------------------------------------------------------------------------------

Dipole Moment Calculation                       ... on
Quadrupole Moment Calculation                   ... off
Polarizability Calculation                      ... off
GBWName                                         ... 32_S2.gbw
Electron density file                           ... 32_S2.scfp
The origin for moment calculation is the CENTER OF MASS  = ( 0.000000,  0.000000  1.792296)

-------------
DIPOLE MOMENT
-------------
                                X             Y             Z
Electronic contribution:     -0.00000      -0.00000       0.00000
Nuclear contribution   :      0.00000       0.00000       0.00000
                        -----------------------------------------
Total Dipole Moment    :     -0.00000      -0.00000       0.00000
                        -----------------------------------------
Magnitude (a.u.)       :      0.00000
Magnitude (Debye)      :      0.00000



--------------------
Rotational spectrum 
--------------------
 
Rotational constants in cm-1:     0.000000     0.292196     0.292196 
Rotational constants in MHz :     0.000000  8759.822136  8759.822136 

 Dipole components along the rotational axes: 
x,y,z [a.u.] :     0.000000    -0.000000    -0.000000 
x,y,z [Debye]:     0.000000    -0.000000    -0.000000 

 

----------------------------------------------------------------------------
                           ORCA NUMERICAL FREQUENCIES
                              (24-process run)
----------------------------------------------------------------------------

Number of atoms                ... 2
Central differences            ... used
Number of displacements        ... 12
Numerical increment            ... 5.000e-03 bohr
IR-spectrum generation         ... on
Raman-spectrum generation      ... off
Surface Crossing Hessian       ... off

 WARNING: There are more processes than displacements to do
  ====> : Reducing number of processes to   6

The output will be reduced. Please look at the following files:
SCF program output             ... >32_S2.lastscf
Integral program output        ... >32_S2.lastint
Gradient program output        ... >32_S2.lastgrad
Dipole moment program output   ... >32_S2.lastmom
AutoCI program output          ... >32_S2.lastautoci


         <<< Energy and Gradient at the input geometry >>>

        <<< Energy and Gradient at displaced geometries >>>
             <<<Displacing   2/coordinate 2 (+)>>>
             <<<Displacing   1/coordinate 3 (+)>>>
             <<<Displacing   2/coordinate 3 (+)>>>
             <<<Displacing   2/coordinate 1 (+)>>>
             <<<Displacing   1/coordinate 2 (+)>>>
             <<<Displacing   1/coordinate 1 (+)>>>
             <<<Displacing   1/coordinate 2 (-)>>>
             <<<Displacing   1/coordinate 1 (-)>>>
             <<<Displacing   2/coordinate 2 (-)>>>
             <<<Displacing   2/coordinate 1 (-)>>>
             <<<Displacing   1/coordinate 3 (-)>>>
             <<<Displacing   2/coordinate 3 (-)>>>
Warning: T+R mode no 5 is zero 

-----------------------
VIBRATIONAL FREQUENCIES
-----------------------

Scaling factor for frequencies =  1.000000000 (already applied!)

   0:         0.00 cm**-1
   1:         0.00 cm**-1
   2:         0.00 cm**-1
   3:         0.00 cm**-1
   4:         0.00 cm**-1
   5:       723.23 cm**-1


------------
NORMAL MODES
------------

These modes are the cartesian displacements weighted by the diagonal matrix
M(i,i)=1/sqrt(m[i]) where m[i] is the mass of the displaced atom
Thus, these vectors are normalized but *not* orthogonal

                  0          1          2          3          4          5    
      0       0.000000   0.000000   0.000000   0.000000   0.000000   0.000000
      1       0.000000   0.000000   0.000000   0.000000   0.000000   0.000000
      2       0.000000   0.000000   0.000000   0.000000   0.000000   0.707107
      3       0.000000   0.000000   0.000000   0.000000   0.000000   0.000000
      4       0.000000   0.000000   0.000000   0.000000   0.000000   0.000000
      5       0.000000   0.000000   0.000000   0.000000   0.000000  -0.707107


-----------
IR SPECTRUM  
-----------

 Mode    freq (cm**-1)   T**2         TX         TY         TZ
-------------------------------------------------------------------
   5:       723.23    0.000000  (  0.000000   0.000000   0.000000)

The first frequency considered to be a vibration is 5
The total number of vibrations considered is 1


--------------------------
THERMOCHEMISTRY AT 298.15K
--------------------------

Temperature         ... 298.15 K
Pressure            ... 1.00 atm
Total Mass          ... 64.12 AMU
The molecule is recognized as being linear

Throughout the following assumptions are being made:
  (1) The electronic state is orbitally nondegenerate
      but the spin degeneracy is treated
  (2) There are no thermally accessible electronically excited states
  (3) Hindered rotations indicated by low frequency modes are not
      treated as such but are treated as vibrations and this may
      cause some error
  (4) All equations used are the standard statistical mechanics
      equations for an ideal gas
  (5) All vibrations are strictly harmonic

freq.     723.23  E(vib)   ...       0.07 

------------
INNER ENERGY
------------

The inner energy is: U= E(el) + E(ZPE) + E(vib) + E(rot) + E(trans)
    E(el)   - is the total energy from the electronic structure calculation
              = E(kin-el) + E(nuc-el) + E(el-el) + E(nuc-nuc)
    E(ZPE)  - the the zero temperature vibrational energy from the frequency calculation
    E(vib)  - the the finite temperature correction to E(ZPE) due to population
              of excited vibrational states
    E(rot)  - is the rotational thermal energy
    E(trans)- is the translational thermal energy

Summary of contributions to the inner energy U:
Electronic energy                ...   -796.44591458 Eh
Zero point energy                ...      0.00164765 Eh       1.03 kcal/mol
Thermal vibrational correction   ...      0.00010367 Eh       0.07 kcal/mol
Thermal rotational correction    ...      0.00094418 Eh       0.59 kcal/mol
Thermal translational correction ...      0.00141627 Eh       0.89 kcal/mol
-----------------------------------------------------------------------
Total thermal energy                   -796.44180281 Eh


Summary of corrections to the electronic energy:
(perhaps to be used in another calculation)
Total thermal correction                  0.00246412 Eh       1.55 kcal/mol
Non-thermal (ZPE) correction              0.00164765 Eh       1.03 kcal/mol
-----------------------------------------------------------------------
Total correction                          0.00411177 Eh       2.58 kcal/mol


--------
ENTHALPY
--------

The enthalpy is H = U + kB*T
                kB is Boltzmann's constant
Total free energy                 ...   -796.44180281 Eh 
Thermal Enthalpy correction       ...      0.00094421 Eh       0.59 kcal/mol
-----------------------------------------------------------------------
Total Enthalpy                    ...   -796.44085860 Eh


Note: Rotational entropy computed according to Herzberg 
Infrared and Raman Spectra, Chapter V,1, Van Nostrand Reinhold, 1945 
Point Group:  Dinfh, Symmetry Number:   2  
Rotational constants in cm-1:     0.000000     0.292196     0.292196 

Vibrational entropy computed according to the QRRHO of S. Grimme
Chem.Eur.J. 2012 18 9955


-------
ENTROPY
-------

The entropy contributions are T*S = T*(S(el)+S(vib)+S(rot)+S(trans))
     S(el)   - electronic entropy
     S(vib)  - vibrational entropy
     S(rot)  - rotational entropy
     S(trans)- translational entropy
The entropies will be listed as mutliplied by the temperature to get
units of energy

Electronic entropy                ...      0.00103729 Eh      0.65 kcal/mol
Vibrational entropy               ...      0.00013302 Eh      0.08 kcal/mol
Rotational entropy                ...      0.00648746 Eh      4.07 kcal/mol
Translational entropy             ...      0.01824183 Eh     11.45 kcal/mol
-----------------------------------------------------------------------
Final entropy term                ...      0.02589960 Eh     16.25 kcal/mol

In case the symmetry of your molecule has not been determined correctly
or in case you have a reason to use a different symmetry number we print 
out the resulting rotational entropy values for sn=1,12 :
 --------------------------------------------------------
|  sn= 1 | S(rot)=             -inf Eh      -inf kcal/mol|
|  sn= 2 | S(rot)=             -inf Eh      -inf kcal/mol|
|  sn= 3 | S(rot)=             -inf Eh      -inf kcal/mol|
|  sn= 4 | S(rot)=             -inf Eh      -inf kcal/mol|
|  sn= 5 | S(rot)=             -inf Eh      -inf kcal/mol|
|  sn= 6 | S(rot)=             -inf Eh      -inf kcal/mol|
|  sn= 7 | S(rot)=             -inf Eh      -inf kcal/mol|
|  sn= 8 | S(rot)=             -inf Eh      -inf kcal/mol|
|  sn= 9 | S(rot)=             -inf Eh      -inf kcal/mol|
|  sn=10 | S(rot)=             -inf Eh      -inf kcal/mol|
|  sn=11 | S(rot)=             -inf Eh      -inf kcal/mol|
|  sn=12 | S(rot)=             -inf Eh      -inf kcal/mol|
 --------------------------------------------------------


-------------------
GIBBS FREE ENERGY
-------------------

The Gibbs free energy is G = H - T*S

Total enthalpy                    ...   -796.44085860 Eh 
Total entropy correction          ...     -0.02589960 Eh    -16.25 kcal/mol
-----------------------------------------------------------------------
Final Gibbs free energy         ...   -796.46675820 Eh

For completeness - the Gibbs free energy minus the electronic energy
G-E(el)                           ...     -0.02084362 Eh    -13.08 kcal/mol


Total Time for Numerical Frequencies  :        83.301 sec

Timings for individual modules:

Sum of individual times         ...       35.389 sec (=   0.590 min)
GTO integral calculation        ...        4.370 sec (=   0.073 min)  12.3 %
SCF iterations                  ...       24.107 sec (=   0.402 min)  68.1 %
SCF Gradient evaluation         ...        6.745 sec (=   0.112 min)  19.1 %
Geometry relaxation             ...        0.167 sec (=   0.003 min)   0.5 %
                             ****ORCA TERMINATED NORMALLY****
TOTAL RUN TIME: 0 days 0 hours 1 minutes 55 seconds 943 msec
