
    -----------------------------------------------------------------------
          Psi4: An Open-Source Ab Initio Electronic Structure Package
                               Psi4 1.3.2 release

                         Git: Rev {HEAD} ecbda83 


    R. M. Parrish, L. A. Burns, D. G. A. Smith, A. C. Simmonett,
    A. E. DePrince III, E. G. Hohenstein, U. Bozkaya, A. Yu. Sokolov,
    R. Di Remigio, R. M. Richard, J. F. Gonthier, A. M. James,
    H. R. McAlexander, A. Kumar, M. Saitow, X. Wang, B. P. Pritchard,
    P. Verma, H. F. Schaefer III, K. Patkowski, R. A. King, E. F. Valeev,
    F. A. Evangelista, J. M. Turney, T. D. Crawford, and C. D. Sherrill,
    J. Chem. Theory Comput. 13(7) pp 3185--3197 (2017).
    (doi: 10.1021/acs.jctc.7b00174)


                         Additional Contributions by
    P. Kraus, H. Kruse, M. H. Lechner, M. C. Schieber, R. A. Shaw,
    A. Alenaizan, R. Galvelis, Z. L. Glick, S. Lehtola, and J. P. Misiewicz

    -----------------------------------------------------------------------


    Psi4 started on: Monday, 19 April 2021 02:54PM

    Process ID: 132241
    Host:       bp1-compute00115.data.bp.acrc.priv
    PSIDATADIR: /work/zw18965/.conda/envs/p4env/share/psi4
    Memory:     500.0 MiB
    Threads:    24
    
  ==> Input File <==

--------------------------------------------------------------------------
memory 144 GB

molecule {
0 1
B     0.000025702137  -0.000052552589  -0.198407020528
H    -0.399622606768  -1.029858472420   0.215550091991
H    -0.171134703482   0.990434479161   0.419174884486
H     0.570731623988   0.039476540557  -1.230190221591}

set basis aug-cc-pV(Q+d)Z
 
optimize("wB97X-V")
frequencies("wB97X-V")--------------------------------------------------------------------------

  Memory set to 134.110 GiB by Python driver.
gradient() will perform gradient computation by finite difference of analytic energies.

         ----------------------------------------------------------
                                   FINDIF
                     R. A. King and Jonathon Misiewicz
         ---------------------------------------------------------

  Using finite-differences of energies to determine gradients.
    Generating geometries for use with 3-point formula.
    Displacement size will be 5.00e-03.
    Number of atoms is 4.
    Number of symmetric SALCs is 6.
    Translations projected? 1. Rotations projected? 1.
    Number of geometries (including reference) is 13.

  //>>>>>>>>>>>>>>>>>>>>>>>>>>>>>>>>>>>//
  //    Loading displacement 1 of 13   //
  //<<<<<<<<<<<<<<<<<<<<<<<<<<<<<<<<<<<//

*** tstart() called on bp1-compute00115.data.bp.acrc.priv
*** at Mon Apr 19 14:54:23 2021

   => Loading Basis Set <=

    Name: AUG-CC-PV(Q+D)Z
    Role: ORBITAL
    Keyword: BASIS
    atoms 1   entry B          line   259 file /work/zw18965/.conda/envs/p4env/share/psi4/basis/aug-cc-pv_qpd_z.gbs 
    atoms 2-4 entry H          line    56 file /work/zw18965/.conda/envs/p4env/share/psi4/basis/aug-cc-pv_qpd_z.gbs 


         ---------------------------------------------------------
                                   SCF
               by Justin Turney, Rob Parrish, Andy Simmonett
                          and Daniel G. A. Smith
                              RKS Reference
                       24 Threads, 137329 MiB Core
         ---------------------------------------------------------

  ==> Geometry <==

    Molecular point group: c1
    Full point group: C1

    Geometry (in Angstrom), charge = 0, multiplicity = 1:

       Center              X                  Y                   Z               Mass       
    ------------   -----------------  -----------------  -----------------  -----------------
         B            0.000007382502    -0.000015096789     0.000017537100    11.009305360000
         H           -0.399640926403    -1.029821016620     0.413974649619     1.007825032230
         H           -0.171153023117     0.990471934961     0.617599442114     1.007825032230
         H            0.570713304353     0.039513996357    -1.031765663963     1.007825032230

  Running in c1 symmetry.

  Rotational constants: A =      8.01264  B =      8.01225  C =      4.00622 [cm^-1]
  Rotational constants: A = 240212.77897  B = 240201.18959  C = 120103.49291 [MHz]
  Nuclear repulsion =    7.505380673888212

  Charge       = 0
  Multiplicity = 1
  Electrons    = 8
  Nalpha       = 4
  Nbeta        = 4

  ==> Algorithm <==

  SCF Algorithm Type is DF.
  DIIS enabled.
  MOM disabled.
  Fractional occupation disabled.
  Guess Type is SAD.
  Energy threshold   = 1.00e-08
  Density threshold  = 1.00e-08
  Integral threshold = 0.00e+00

  ==> Primary Basis <==

  Basis Set: AUG-CC-PV(Q+D)Z
    Blend: AUG-CC-PV(Q+D)Z
    Number of shells: 62
    Number of basis function: 218
    Number of Cartesian functions: 270
    Spherical Harmonics?: true
    Max angular momentum: 4

  ==> DFT Potential <==

   => Composite Functional: WB97X-V <= 

    wB97X-V Hyb-GGA Exchange-Correlation Functional

    N. Mardirossian and M. Head-Gordon, Phys. Chem. Chem. Phys. 16, 9904 (2014)

    Deriv               =              1
    GGA                 =           TRUE
    Meta                =          FALSE

    Exchange Hybrid     =           TRUE
    MP2 Hybrid          =          FALSE

   => Exchange-Correlation Functionals <=

    1.0000   wB97X-V range-separated functional

   => Exact (HF) Exchange <=

    0.8330            HF,LR [omega = 0.3000]
    0.1670               HF 

   => VV10 Non-Local Parameters <=

    VV10 B              =     6.0000E+00
    VV10 C              =     1.0000E-02

   => Molecular Quadrature <=

    Radial Scheme          =       TREUTLER
    Pruning Scheme         =           FLAT
    Nuclear Scheme         =       TREUTLER

    BS radius alpha        =              1
    Pruning alpha          =              1
    Radial Points          =             75
    Spherical Points       =            302
    Total Points           =          90600
    Total Blocks           =            743
    Max Points             =            256
    Max Functions          =            218

   => Loading Basis Set <=

    Name: (AUG-CC-PV(Q+D)Z AUX)
    Role: JKFIT
    Keyword: DF_BASIS_SCF
    atoms 1   entry B          line   108 file /work/zw18965/.conda/envs/p4env/share/psi4/basis/aug-cc-pvqz-jkfit.gbs 
    atoms 2-4 entry H          line    70 file /work/zw18965/.conda/envs/p4env/share/psi4/basis/aug-cc-pvqz-jkfit.gbs 

  ==> Pre-Iterations <==

   -------------------------------------------------------
    Irrep   Nso     Nmo     Nalpha   Nbeta   Ndocc  Nsocc
   -------------------------------------------------------
     A        218     218       0       0       0       0
   -------------------------------------------------------
    Total     218     218       4       4       4       0
   -------------------------------------------------------

  ==> Integral Setup <==

  ==> DiskDFJK: Density-Fitted J/K Matrices <==

    J tasked:                  Yes
    K tasked:                  Yes
    wK tasked:                 Yes
    Omega:               3.000E-01
    OpenMP threads:             24
    Integrals threads:          24
    Memory [MiB]:           102452
    Algorithm:                Core
    Integral Cache:           NONE
    Schwarz Cutoff:          1E-12
    Fitting Condition:       1E-10

   => Auxiliary Basis Set <=

  Basis Set: (AUG-CC-PV(Q+D)Z AUX)
    Blend: AUG-CC-PVQZ-JKFIT
    Number of shells: 88
    Number of basis function: 370
    Number of Cartesian functions: 501
    Spherical Harmonics?: true
    Max angular momentum: 5

  Cached 100.0% of DFT collocation blocks in 0.531 [GiB].

  Minimum eigenvalue in the overlap matrix is 2.6448533737E-05.
  Using Symmetric Orthogonalization.

  SCF Guess: Superposition of Atomic Densities via on-the-fly atomic UHF.

  ==> Iterations <==

                           Total Energy        Delta E     RMS |[F,P]|

   @DF-RKS iter SAD:   -25.90981709666886   -2.59098e+01   0.00000e+00 
   @DF-RKS iter   1:   -26.59168721443434   -6.81870e-01   7.36523e-04 DIIS
   @DF-RKS iter   2:   -26.60595119742919   -1.42640e-02   2.24560e-04 DIIS
   @DF-RKS iter   3:   -26.60732102074479   -1.36982e-03   2.61846e-05 DIIS
   @DF-RKS iter   4:   -26.60736574959734   -4.47289e-05   4.31511e-06 DIIS
   @DF-RKS iter   5:   -26.60736739604500   -1.64645e-06   5.62036e-07 DIIS
   @DF-RKS iter   6:   -26.60736741809913   -2.20541e-08   7.81771e-08 DIIS
   @DF-RKS iter   7:   -26.60736741861997   -5.20846e-10   6.75128e-09 DIIS
  Energy and wave function converged.


  ==> Post-Iterations <==

    Orbital Energies [Eh]
    ---------------------

    Doubly Occupied:                                                      

       1A     -6.859415     2A     -0.638945     3A     -0.461073  
       4A     -0.461039  

    Virtual:                                                              

       5A      0.005937     6A      0.031750     7A      0.040847  
       8A      0.040849     9A      0.063632    10A      0.080983  
      11A      0.080986    12A      0.105159    13A      0.127469  
      14A      0.127473    15A      0.131894    16A      0.139466  
      17A      0.139470    18A      0.207980    19A      0.207985  
      20A      0.232877    21A      0.247958    22A      0.260598  
      23A      0.270073    24A      0.270224    25A      0.270228  
      26A      0.279649    27A      0.279655    28A      0.305624  
      29A      0.305634    30A      0.307174    31A      0.373053  
      32A      0.416727    33A      0.416733    34A      0.447176  
      35A      0.447193    36A      0.483680    37A      0.514589  
      38A      0.514595    39A      0.546355    40A      0.546363  
      41A      0.558970    42A      0.573882    43A      0.573883  
      44A      0.586282    45A      0.591378    46A      0.695625  
      47A      0.707247    48A      0.734838    49A      0.734847  
      50A      0.755316    51A      0.778117    52A      0.778152  
      53A      0.783288    54A      0.783296    55A      0.828590  
      56A      0.851053    57A      0.851072    58A      0.892507  
      59A      0.892512    60A      0.906258    61A      0.906286  
      62A      0.911364    63A      0.916146    64A      0.964416  
      65A      1.092540    66A      1.092550    67A      1.130332  
      68A      1.130341    69A      1.154642    70A      1.209060  
      71A      1.232092    72A      1.232139    73A      1.236685  
      74A      1.455312    75A      1.455324    76A      1.462946  
      77A      1.462977    78A      1.464111    79A      1.490042  
      80A      1.513931    81A      1.513938    82A      1.550122  
      83A      1.563340    84A      1.563344    85A      1.625369  
      86A      1.625397    87A      1.633116    88A      1.756868  
      89A      1.756907    90A      1.758157    91A      1.758177  
      92A      1.761079    93A      1.790859    94A      1.849239  
      95A      1.874779    96A      1.874812    97A      1.924135  
      98A      1.960379    99A      1.960384   100A      1.963719  
     101A      1.988831   102A      2.081320   103A      2.081334  
     104A      2.083738   105A      2.083756   106A      2.139440  
     107A      2.139454   108A      2.175752   109A      2.175768  
     110A      2.176500   111A      2.189231   112A      2.203288  
     113A      2.203319   114A      2.273185   115A      2.275699  
     116A      2.305807   117A      2.337371   118A      2.337397  
     119A      2.652279   120A      2.782927   121A      2.783116  
     122A      2.901237   123A      3.015324   124A      3.015356  
     125A      3.085933   126A      3.085937   127A      3.150413  
     128A      3.150427   129A      3.228873   130A      3.238539  
     131A      3.240275   132A      3.240354   133A      3.252084  
     134A      3.307289   135A      3.307301   136A      3.388441  
     137A      3.457211   138A      3.457294   139A      3.526623  
     140A      3.526710   141A      3.644840   142A      3.772562  
     143A      3.889908   144A      4.039278   145A      4.039295  
     146A      4.063823   147A      4.063833   148A      4.085149  
     149A      4.144308   150A      4.205429   151A      4.205449  
     152A      4.222937   153A      4.273770   154A      4.273806  
     155A      4.431507   156A      4.431515   157A      4.649527  
     158A      4.747578   159A      5.009465   160A      5.009490  
     161A      5.159018   162A      5.159062   163A      5.175524  
     164A      5.276843   165A      5.290892   166A      5.290969  
     167A      5.366911   168A      6.126139   169A      6.126245  
     170A      6.506391   171A      6.563958   172A      6.563985  
     173A      6.713822   174A      6.729019   175A      6.729022  
     176A      6.976870   177A      6.976900   178A      7.319280  
     179A      7.351633   180A      7.351809   181A      7.622031  
     182A      7.622057   183A      7.628399   184A      7.628486  
     185A      7.677603   186A      7.818540   187A      7.959516  
     188A      7.959619   189A      8.017276   190A      8.024654  
     191A      8.223296   192A      8.394259   193A      8.394389  
     194A      8.719829   195A      8.719888   196A      8.856777  
     197A      8.856905   198A      8.895788   199A      8.913754  
     200A      8.913904   201A      8.956488   202A      9.145638  
     203A      9.194956   204A      9.237524   205A      9.237546  
     206A      9.237646   207A      9.397981   208A      9.463142  
     209A      9.463430   210A      9.696937   211A      9.824204  
     212A      9.824311   213A     10.286894   214A     10.286975  
     215A     10.391119   216A     11.282195   217A     11.282733  
     218A     18.955067  

    Final Occupation by Irrep:
              A 
    DOCC [     4 ]

  @DF-RKS Final Energy:   -26.60736741861997

   => Energetics <=

    Nuclear Repulsion Energy =              7.5053806738882116
    One-Electron Energy =                 -49.2335421608261612
    Two-Electron Energy =                  18.4174144151833588
    DFT Exchange-Correlation Energy =      -3.3304827767196423
    Empirical Dispersion Energy =           0.0000000000000000
    VV10 Nonlocal Energy =                  0.0338624298542591
    Total Energy =                        -26.6073674186199725

Computation Completed


Properties will be evaluated at   0.000000,   0.000000,   0.000000 [a0]

Properties computed using the SCF density matrix

  Nuclear Dipole Moment: [e a0]
     X:    -0.0001      Y:     0.0002      Z:    -0.0002

  Electronic Dipole Moment: [e a0]
     X:     0.0001      Y:    -0.0002      Z:     0.0003

  Dipole Moment: [e a0]
     X:     0.0000      Y:    -0.0001      Z:     0.0001     Total:     0.0001

  Dipole Moment: [D]
     X:     0.0001      Y:    -0.0002      Z:     0.0002     Total:     0.0003


*** tstop() called on bp1-compute00115.data.bp.acrc.priv at Mon Apr 19 14:54:29 2021
Module time:
	user time   =     176.90 seconds =       2.95 minutes
	system time =      14.88 seconds =       0.25 minutes
	total time  =          6 seconds =       0.10 minutes
Total time:
	user time   =     176.90 seconds =       2.95 minutes
	system time =      14.88 seconds =       0.25 minutes
	total time  =          6 seconds =       0.10 minutes

  //>>>>>>>>>>>>>>>>>>>>>>>>>>>>>>>>>>>//
  //    Loading displacement 2 of 13   //
  //<<<<<<<<<<<<<<<<<<<<<<<<<<<<<<<<<<<//

*** tstart() called on bp1-compute00115.data.bp.acrc.priv
*** at Mon Apr 19 14:54:29 2021

   => Loading Basis Set <=

    Name: AUG-CC-PV(Q+D)Z
    Role: ORBITAL
    Keyword: BASIS
    atoms 1   entry B          line   259 file /work/zw18965/.conda/envs/p4env/share/psi4/basis/aug-cc-pv_qpd_z.gbs 
    atoms 2-4 entry H          line    56 file /work/zw18965/.conda/envs/p4env/share/psi4/basis/aug-cc-pv_qpd_z.gbs 


         ---------------------------------------------------------
                                   SCF
               by Justin Turney, Rob Parrish, Andy Simmonett
                          and Daniel G. A. Smith
                              RKS Reference
                       24 Threads, 137329 MiB Core
         ---------------------------------------------------------

  ==> Geometry <==

    Molecular point group: c1
    Full point group: C1

    Geometry (in Angstrom), charge = 0, multiplicity = 1:

       Center              X                  Y                   Z               Mass       
    ------------   -----------------  -----------------  -----------------  -----------------
         B           -0.000362763027    -0.000015096788     0.000017537099    11.009305360000
         H           -0.398292928437    -1.029821059494     0.413974732328     1.007825032230
         H           -0.169805246762     0.990471924508     0.617599451823     1.007825032230
         H            0.572060935412     0.039514049670    -1.031765756371     1.007825032230

  Running in c1 symmetry.

  Rotational constants: A =      8.01261  B =      8.01223  C =      4.00622 [cm^-1]
  Rotational constants: A = 240212.11345  B = 240200.54900  C = 120103.43574 [MHz]
  Nuclear repulsion =    7.505376816307760

  Charge       = 0
  Multiplicity = 1
  Electrons    = 8
  Nalpha       = 4
  Nbeta        = 4

  ==> Algorithm <==

  SCF Algorithm Type is DF.
  DIIS enabled.
  MOM disabled.
  Fractional occupation disabled.
  Guess Type is SAD.
  Energy threshold   = 1.00e-08
  Density threshold  = 1.00e-08
  Integral threshold = 0.00e+00

  ==> Primary Basis <==

  Basis Set: AUG-CC-PV(Q+D)Z
    Blend: AUG-CC-PV(Q+D)Z
    Number of shells: 62
    Number of basis function: 218
    Number of Cartesian functions: 270
    Spherical Harmonics?: true
    Max angular momentum: 4

  ==> DFT Potential <==

   => Composite Functional: WB97X-V <= 

    wB97X-V Hyb-GGA Exchange-Correlation Functional

    N. Mardirossian and M. Head-Gordon, Phys. Chem. Chem. Phys. 16, 9904 (2014)

    Deriv               =              1
    GGA                 =           TRUE
    Meta                =          FALSE

    Exchange Hybrid     =           TRUE
    MP2 Hybrid          =          FALSE

   => Exchange-Correlation Functionals <=

    1.0000   wB97X-V range-separated functional

   => Exact (HF) Exchange <=

    0.8330            HF,LR [omega = 0.3000]
    0.1670               HF 

   => VV10 Non-Local Parameters <=

    VV10 B              =     6.0000E+00
    VV10 C              =     1.0000E-02

   => Molecular Quadrature <=

    Radial Scheme          =       TREUTLER
    Pruning Scheme         =           FLAT
    Nuclear Scheme         =       TREUTLER

    BS radius alpha        =              1
    Pruning alpha          =              1
    Radial Points          =             75
    Spherical Points       =            302
    Total Points           =          90600
    Total Blocks           =            741
    Max Points             =            256
    Max Functions          =            218

   => Loading Basis Set <=

    Name: (AUG-CC-PV(Q+D)Z AUX)
    Role: JKFIT
    Keyword: DF_BASIS_SCF
    atoms 1   entry B          line   108 file /work/zw18965/.conda/envs/p4env/share/psi4/basis/aug-cc-pvqz-jkfit.gbs 
    atoms 2-4 entry H          line    70 file /work/zw18965/.conda/envs/p4env/share/psi4/basis/aug-cc-pvqz-jkfit.gbs 

  ==> Pre-Iterations <==

   -------------------------------------------------------
    Irrep   Nso     Nmo     Nalpha   Nbeta   Ndocc  Nsocc
   -------------------------------------------------------
     A        218     218       0       0       0       0
   -------------------------------------------------------
    Total     218     218       4       4       4       0
   -------------------------------------------------------

  ==> Integral Setup <==

  ==> DiskDFJK: Density-Fitted J/K Matrices <==

    J tasked:                  Yes
    K tasked:                  Yes
    wK tasked:                 Yes
    Omega:               3.000E-01
    OpenMP threads:             24
    Integrals threads:          24
    Memory [MiB]:           102452
    Algorithm:                Core
    Integral Cache:           NONE
    Schwarz Cutoff:          1E-12
    Fitting Condition:       1E-10

   => Auxiliary Basis Set <=

  Basis Set: (AUG-CC-PV(Q+D)Z AUX)
    Blend: AUG-CC-PVQZ-JKFIT
    Number of shells: 88
    Number of basis function: 370
    Number of Cartesian functions: 501
    Spherical Harmonics?: true
    Max angular momentum: 5

  Cached 100.0% of DFT collocation blocks in 0.531 [GiB].

  Minimum eigenvalue in the overlap matrix is 2.6448479058E-05.
  Using Symmetric Orthogonalization.

  SCF Guess: Superposition of Atomic Densities via on-the-fly atomic UHF.

  ==> Iterations <==

                           Total Energy        Delta E     RMS |[F,P]|

   @DF-RKS iter SAD:   -25.90981647393832   -2.59098e+01   0.00000e+00 
   @DF-RKS iter   1:   -26.59168606969175   -6.81870e-01   7.36525e-04 DIIS
   @DF-RKS iter   2:   -26.60595013571186   -1.42641e-02   2.24561e-04 DIIS
   @DF-RKS iter   3:   -26.60731996404573   -1.36983e-03   2.61850e-05 DIIS
   @DF-RKS iter   4:   -26.60736469388225   -4.47298e-05   4.31523e-06 DIIS
   @DF-RKS iter   5:   -26.60736634041001   -1.64653e-06   5.62110e-07 DIIS
   @DF-RKS iter   6:   -26.60736636246884   -2.20588e-08   7.82135e-08 DIIS
   @DF-RKS iter   7:   -26.60736636299084   -5.22000e-10   6.76408e-09 DIIS
  Energy and wave function converged.


  ==> Post-Iterations <==

    Orbital Energies [Eh]
    ---------------------

    Doubly Occupied:                                                      

       1A     -6.859416     2A     -0.638945     3A     -0.461246  
       4A     -0.460866  

    Virtual:                                                              

       5A      0.005937     6A      0.031750     7A      0.040838  
       8A      0.040859     9A      0.063632    10A      0.080964  
      11A      0.081004    12A      0.105160    13A      0.127454  
      14A      0.127487    15A      0.131894    16A      0.139451  
      17A      0.139486    18A      0.207945    19A      0.208020  
      20A      0.232876    21A      0.247957    22A      0.260597  
      23A      0.270070    24A      0.270193    25A      0.270263  
      26A      0.279621    27A      0.279682    28A      0.305615  
      29A      0.305643    30A      0.307176    31A      0.373053  
      32A      0.416709    33A      0.416749    34A      0.447076  
      35A      0.447296    36A      0.483680    37A      0.514565  
      38A      0.514619    39A      0.546333    40A      0.546384  
      41A      0.558969    42A      0.573867    43A      0.573896  
      44A      0.586280    45A      0.591377    46A      0.695625  
      47A      0.707248    48A      0.734805    49A      0.734879  
      50A      0.755317    51A      0.777916    52A      0.778321  
      53A      0.783274    54A      0.783336    55A      0.828586  
      56A      0.850941    57A      0.851179    58A      0.892503  
      59A      0.892526    60A      0.906135    61A      0.906412  
      62A      0.911361    63A      0.916146    64A      0.964425  
      65A      1.092471    66A      1.092618    67A      1.130282  
      68A      1.130385    69A      1.154641    70A      1.209053  
      71A      1.231827    72A      1.232404    73A      1.236692  
      74A      1.455283    75A      1.455325    76A      1.462846  
      77A      1.463101    78A      1.464107    79A      1.490045  
      80A      1.513875    81A      1.513991    82A      1.550122  
      83A      1.563309    84A      1.563378    85A      1.625197  
      86A      1.625563    87A      1.633117    88A      1.756646  
      89A      1.757110    90A      1.758105    91A      1.758251  
      92A      1.761074    93A      1.790871    94A      1.849239  
      95A      1.874627    96A      1.874957    97A      1.924134  
      98A      1.960288    99A      1.960482   100A      1.963711  
     101A      1.988824   102A      2.081293   103A      2.081354  
     104A      2.083704   105A      2.083790   106A      2.139424  
     107A      2.139471   108A      2.175709   109A      2.175797  
     110A      2.176505   111A      2.189233   112A      2.203170  
     113A      2.203441   114A      2.273173   115A      2.275698  
     116A      2.305813   117A      2.337193   118A      2.337576  
     119A      2.652291   120A      2.781907   121A      2.784111  
     122A      2.901241   123A      3.015124   124A      3.015559  
     125A      3.085841   126A      3.086032   127A      3.150306  
     128A      3.150528   129A      3.228860   130A      3.238538  
     131A      3.240140   132A      3.240486   133A      3.252075  
     134A      3.307137   135A      3.307482   136A      3.388439  
     137A      3.456842   138A      3.457669   139A      3.526096  
     140A      3.527242   141A      3.644835   142A      3.772562  
     143A      3.889901   144A      4.039159   145A      4.039355  
     146A      4.063809   147A      4.063892   148A      4.085151  
     149A      4.144313   150A      4.205307   151A      4.205564  
     152A      4.222937   153A      4.273613   154A      4.273975  
     155A      4.431472   156A      4.431551   157A      4.649521  
     158A      4.747569   159A      5.009048   160A      5.009909  
     161A      5.158563   162A      5.159481   163A      5.175523  
     164A      5.276865   165A      5.290670   166A      5.291186  
     167A      5.366915   168A      6.125601   169A      6.126753  
     170A      6.506392   171A      6.563810   172A      6.564139  
     173A      6.713823   174A      6.728888   175A      6.729150  
     176A      6.976841   177A      6.976916   178A      7.319246  
     179A      7.350727   180A      7.352745   181A      7.621756  
     182A      7.622190   183A      7.627949   184A      7.629079  
     185A      7.677607   186A      7.818534   187A      7.959035  
     188A      7.960095   189A      8.017186   190A      8.024713  
     191A      8.223317   192A      8.393445   193A      8.395188  
     194A      8.719558   195A      8.720158   196A      8.855918  
     197A      8.857645   198A      8.895858   199A      8.913025  
     200A      8.914663   201A      8.956482   202A      9.145607  
     203A      9.194982   204A      9.237080   205A      9.237527  
     206A      9.238124   207A      9.397961   208A      9.462063  
     209A      9.464515   210A      9.696945   211A      9.824036  
     212A      9.824476   213A     10.286656   214A     10.287144  
     215A     10.391145   216A     11.278877   217A     11.286031  
     218A     18.955077  

    Final Occupation by Irrep:
              A 
    DOCC [     4 ]

  @DF-RKS Final Energy:   -26.60736636299084

   => Energetics <=

    Nuclear Repulsion Energy =              7.5053768163077601
    One-Electron Energy =                 -49.2335328398708825
    Two-Electron Energy =                  18.4174094298329827
    DFT Exchange-Correlation Energy =      -3.3304822010836346
    Empirical Dispersion Energy =           0.0000000000000000
    VV10 Nonlocal Energy =                  0.0338624318229340
    Total Energy =                        -26.6073663629908381

Computation Completed


Properties will be evaluated at   0.000000,   0.000000,   0.000000 [a0]

Properties computed using the SCF density matrix

  Nuclear Dipole Moment: [e a0]
     X:     0.0041      Y:     0.0002      Z:    -0.0002

  Electronic Dipole Moment: [e a0]
     X:    -0.0056      Y:    -0.0003      Z:     0.0004

  Dipole Moment: [e a0]
     X:    -0.0015      Y:    -0.0001      Z:     0.0002     Total:     0.0015

  Dipole Moment: [D]
     X:    -0.0038      Y:    -0.0002      Z:     0.0005     Total:     0.0039


*** tstop() called on bp1-compute00115.data.bp.acrc.priv at Mon Apr 19 14:54:35 2021
Module time:
	user time   =     180.99 seconds =       3.02 minutes
	system time =      12.75 seconds =       0.21 minutes
	total time  =          6 seconds =       0.10 minutes
Total time:
	user time   =     358.04 seconds =       5.97 minutes
	system time =      27.65 seconds =       0.46 minutes
	total time  =         12 seconds =       0.20 minutes

  //>>>>>>>>>>>>>>>>>>>>>>>>>>>>>>>>>>>//
  //    Loading displacement 3 of 13   //
  //<<<<<<<<<<<<<<<<<<<<<<<<<<<<<<<<<<<//

*** tstart() called on bp1-compute00115.data.bp.acrc.priv
*** at Mon Apr 19 14:54:35 2021

   => Loading Basis Set <=

    Name: AUG-CC-PV(Q+D)Z
    Role: ORBITAL
    Keyword: BASIS
    atoms 1   entry B          line   259 file /work/zw18965/.conda/envs/p4env/share/psi4/basis/aug-cc-pv_qpd_z.gbs 
    atoms 2-4 entry H          line    56 file /work/zw18965/.conda/envs/p4env/share/psi4/basis/aug-cc-pv_qpd_z.gbs 


         ---------------------------------------------------------
                                   SCF
               by Justin Turney, Rob Parrish, Andy Simmonett
                          and Daniel G. A. Smith
                              RKS Reference
                       24 Threads, 137329 MiB Core
         ---------------------------------------------------------

  ==> Geometry <==

    Molecular point group: c1
    Full point group: C1

    Geometry (in Angstrom), charge = 0, multiplicity = 1:

       Center              X                  Y                   Z               Mass       
    ------------   -----------------  -----------------  -----------------  -----------------
         B            0.000377528031    -0.000015096790     0.000017537101    11.009305360000
         H           -0.400988924369    -1.029820973746     0.413974566910     1.007825032230
         H           -0.172500799472     0.990471945414     0.617599432405     1.007825032230
         H            0.569365673293     0.039513943044    -1.031765571555     1.007825032230

  Running in c1 symmetry.

  Rotational constants: A =      8.01261  B =      8.01223  C =      4.00622 [cm^-1]
  Rotational constants: A = 240212.00447  B = 240200.46725  C = 120103.45154 [MHz]
  Nuclear repulsion =    7.505375539775251

  Charge       = 0
  Multiplicity = 1
  Electrons    = 8
  Nalpha       = 4
  Nbeta        = 4

  ==> Algorithm <==

  SCF Algorithm Type is DF.
  DIIS enabled.
  MOM disabled.
  Fractional occupation disabled.
  Guess Type is SAD.
  Energy threshold   = 1.00e-08
  Density threshold  = 1.00e-08
  Integral threshold = 0.00e+00

  ==> Primary Basis <==

  Basis Set: AUG-CC-PV(Q+D)Z
    Blend: AUG-CC-PV(Q+D)Z
    Number of shells: 62
    Number of basis function: 218
    Number of Cartesian functions: 270
    Spherical Harmonics?: true
    Max angular momentum: 4

  ==> DFT Potential <==

   => Composite Functional: WB97X-V <= 

    wB97X-V Hyb-GGA Exchange-Correlation Functional

    N. Mardirossian and M. Head-Gordon, Phys. Chem. Chem. Phys. 16, 9904 (2014)

    Deriv               =              1
    GGA                 =           TRUE
    Meta                =          FALSE

    Exchange Hybrid     =           TRUE
    MP2 Hybrid          =          FALSE

   => Exchange-Correlation Functionals <=

    1.0000   wB97X-V range-separated functional

   => Exact (HF) Exchange <=

    0.8330            HF,LR [omega = 0.3000]
    0.1670               HF 

   => VV10 Non-Local Parameters <=

    VV10 B              =     6.0000E+00
    VV10 C              =     1.0000E-02

   => Molecular Quadrature <=

    Radial Scheme          =       TREUTLER
    Pruning Scheme         =           FLAT
    Nuclear Scheme         =       TREUTLER

    BS radius alpha        =              1
    Pruning alpha          =              1
    Radial Points          =             75
    Spherical Points       =            302
    Total Points           =          90600
    Total Blocks           =            743
    Max Points             =            254
    Max Functions          =            218

   => Loading Basis Set <=

    Name: (AUG-CC-PV(Q+D)Z AUX)
    Role: JKFIT
    Keyword: DF_BASIS_SCF
    atoms 1   entry B          line   108 file /work/zw18965/.conda/envs/p4env/share/psi4/basis/aug-cc-pvqz-jkfit.gbs 
    atoms 2-4 entry H          line    70 file /work/zw18965/.conda/envs/p4env/share/psi4/basis/aug-cc-pvqz-jkfit.gbs 

  ==> Pre-Iterations <==

   -------------------------------------------------------
    Irrep   Nso     Nmo     Nalpha   Nbeta   Ndocc  Nsocc
   -------------------------------------------------------
     A        218     218       0       0       0       0
   -------------------------------------------------------
    Total     218     218       4       4       4       0
   -------------------------------------------------------

  ==> Integral Setup <==

  ==> DiskDFJK: Density-Fitted J/K Matrices <==

    J tasked:                  Yes
    K tasked:                  Yes
    wK tasked:                 Yes
    Omega:               3.000E-01
    OpenMP threads:             24
    Integrals threads:          24
    Memory [MiB]:           102452
    Algorithm:                Core
    Integral Cache:           NONE
    Schwarz Cutoff:          1E-12
    Fitting Condition:       1E-10

   => Auxiliary Basis Set <=

  Basis Set: (AUG-CC-PV(Q+D)Z AUX)
    Blend: AUG-CC-PVQZ-JKFIT
    Number of shells: 88
    Number of basis function: 370
    Number of Cartesian functions: 501
    Spherical Harmonics?: true
    Max angular momentum: 5

  Cached 100.0% of DFT collocation blocks in 0.531 [GiB].

  Minimum eigenvalue in the overlap matrix is 2.6448486020E-05.
  Using Symmetric Orthogonalization.

  SCF Guess: Superposition of Atomic Densities via on-the-fly atomic UHF.

  ==> Iterations <==

                           Total Energy        Delta E     RMS |[F,P]|

   @DF-RKS iter SAD:   -25.90981656264714   -2.59098e+01   0.00000e+00 
   @DF-RKS iter   1:   -26.59168613598375   -6.81870e-01   7.36525e-04 DIIS
   @DF-RKS iter   2:   -26.60595020466398   -1.42641e-02   2.24561e-04 DIIS
   @DF-RKS iter   3:   -26.60732003145404   -1.36983e-03   2.61850e-05 DIIS
   @DF-RKS iter   4:   -26.60736476138078   -4.47299e-05   4.31524e-06 DIIS
   @DF-RKS iter   5:   -26.60736640792107   -1.64654e-06   5.62125e-07 DIIS
   @DF-RKS iter   6:   -26.60736642998199   -2.20609e-08   7.82219e-08 DIIS
   @DF-RKS iter   7:   -26.60736643050314   -5.21151e-10   6.76705e-09 DIIS
  Energy and wave function converged.


  ==> Post-Iterations <==

    Orbital Energies [Eh]
    ---------------------

    Doubly Occupied:                                                      

       1A     -6.859416     2A     -0.638945     3A     -0.461217  
       4A     -0.460895  

    Virtual:                                                              

       5A      0.005937     6A      0.031750     7A      0.040840  
       8A      0.040857     9A      0.063632    10A      0.080967  
      11A      0.081001    12A      0.105160    13A      0.127458  
      14A      0.127483    15A      0.131894    16A      0.139455  
      17A      0.139482    18A      0.207949    19A      0.208016  
      20A      0.232876    21A      0.247957    22A      0.260597  
      23A      0.270072    24A      0.270192    25A      0.270262  
      26A      0.279626    27A      0.279678    28A      0.305625  
      29A      0.305633    30A      0.307176    31A      0.373053  
      32A      0.416715    33A      0.416743    34A      0.447091  
      35A      0.447282    36A      0.483680    37A      0.514563  
      38A      0.514620    39A      0.546339    40A      0.546379  
      41A      0.558969    42A      0.573868    43A      0.573896  
      44A      0.586280    45A      0.591377    46A      0.695625  
      47A      0.707248    48A      0.734808    49A      0.734876  
      50A      0.755317    51A      0.777943    52A      0.778286  
      53A      0.783284    54A      0.783332    55A      0.828586  
      56A      0.850953    57A      0.851164    58A      0.892508  
      59A      0.892524    60A      0.906158    61A      0.906389  
      62A      0.911360    63A      0.916146    64A      0.964426  
      65A      1.092480    66A      1.092609    67A      1.130290  
      68A      1.130376    69A      1.154641    70A      1.209051  
      71A      1.231864    72A      1.232368    73A      1.236694  
      74A      1.455269    75A      1.455332    76A      1.462873  
      77A      1.463080    78A      1.464107    79A      1.490045  
      80A      1.513873    81A      1.513993    82A      1.550122  
      83A      1.563307    84A      1.563381    85A      1.625225  
      86A      1.625536    87A      1.633116    88A      1.756677  
      89A      1.757075    90A      1.758126    91A      1.758235  
      92A      1.761070    93A      1.790874    94A      1.849240  
      95A      1.874656    96A      1.874924    97A      1.924134  
      98A      1.960294    99A      1.960478   100A      1.963709  
     101A      1.988823   102A      2.081305   103A      2.081342  
     104A      2.083700   105A      2.083794   106A      2.139415  
     107A      2.139479   108A      2.175723   109A      2.175785  
     110A      2.176502   111A      2.189231   112A      2.203203  
     113A      2.203409   114A      2.273170   115A      2.275698  
     116A      2.305816   117A      2.337203   118A      2.337565  
     119A      2.652297   120A      2.782046   121A      2.783965  
     122A      2.901241   123A      3.015155   124A      3.015530  
     125A      3.085837   126A      3.086038   127A      3.150305  
     128A      3.150529   129A      3.228857   130A      3.238538  
     131A      3.240224   132A      3.240402   133A      3.252075  
     134A      3.307149   135A      3.307475   136A      3.388438  
     137A      3.456912   138A      3.457600   139A      3.526164  
     140A      3.527175   141A      3.644833   142A      3.772562  
     143A      3.889900   144A      4.039169   145A      4.039333  
     146A      4.063825   147A      4.063888   148A      4.085152  
     149A      4.144312   150A      4.205314   151A      4.205557  
     152A      4.222936   153A      4.273641   154A      4.273948  
     155A      4.431474   156A      4.431546   157A      4.649520  
     158A      4.747570   159A      5.009062   160A      5.009891  
     161A      5.158615   162A      5.159430   163A      5.175522  
     164A      5.276861   165A      5.290741   166A      5.291115  
     167A      5.366917   168A      6.125690   169A      6.126659  
     170A      6.506392   171A      6.563835   172A      6.564115  
     173A      6.713824   174A      6.728889   175A      6.729149  
     176A      6.976817   177A      6.976936   178A      7.319249  
     179A      7.350854   180A      7.352617   181A      7.621770  
     182A      7.622147   183A      7.628046   184A      7.629017  
     185A      7.677605   186A      7.818532   187A      7.959109  
     188A      7.960020   189A      8.017166   190A      8.024726  
     191A      8.223324   192A      8.393544   193A      8.395084  
     194A      8.719621   195A      8.720100   196A      8.856087  
     197A      8.857482   198A      8.895840   199A      8.913156  
     200A      8.914542   201A      8.956478   202A      9.145599  
     203A      9.194985   204A      9.237162   205A      9.237529  
     206A      9.238043   207A      9.397964   208A      9.462343  
     209A      9.464234   210A      9.696955   211A      9.824121  
     212A      9.824384   213A     10.286720   214A     10.287062  
     215A     10.391149   216A     11.279334   217A     11.285567  
     218A     18.955080  

    Final Occupation by Irrep:
              A 
    DOCC [     4 ]

  @DF-RKS Final Energy:   -26.60736643050314

   => Energetics <=

    Nuclear Repulsion Energy =              7.5053755397752511
    One-Electron Energy =                 -49.2335307616731583
    Two-Electron Energy =                  18.4174084230767221
    DFT Exchange-Correlation Energy =      -3.3304820576528584
    Empirical Dispersion Energy =           0.0000000000000000
    VV10 Nonlocal Energy =                  0.0338624259709041
    Total Energy =                        -26.6073664305031379

Computation Completed


Properties will be evaluated at   0.000000,   0.000000,   0.000000 [a0]

Properties computed using the SCF density matrix

  Nuclear Dipole Moment: [e a0]
     X:    -0.0042      Y:     0.0002      Z:    -0.0002

  Electronic Dipole Moment: [e a0]
     X:     0.0058      Y:    -0.0002      Z:     0.0002

  Dipole Moment: [e a0]
     X:     0.0016      Y:    -0.0000      Z:    -0.0000     Total:     0.0016

  Dipole Moment: [D]
     X:     0.0040      Y:    -0.0001      Z:    -0.0001     Total:     0.0040


*** tstop() called on bp1-compute00115.data.bp.acrc.priv at Mon Apr 19 14:54:41 2021
Module time:
	user time   =     175.73 seconds =       2.93 minutes
	system time =      11.62 seconds =       0.19 minutes
	total time  =          6 seconds =       0.10 minutes
Total time:
	user time   =     533.94 seconds =       8.90 minutes
	system time =      39.27 seconds =       0.65 minutes
	total time  =         18 seconds =       0.30 minutes

  //>>>>>>>>>>>>>>>>>>>>>>>>>>>>>>>>>>>//
  //    Loading displacement 4 of 13   //
  //<<<<<<<<<<<<<<<<<<<<<<<<<<<<<<<<<<<//

*** tstart() called on bp1-compute00115.data.bp.acrc.priv
*** at Mon Apr 19 14:54:41 2021

   => Loading Basis Set <=

    Name: AUG-CC-PV(Q+D)Z
    Role: ORBITAL
    Keyword: BASIS
    atoms 1   entry B          line   259 file /work/zw18965/.conda/envs/p4env/share/psi4/basis/aug-cc-pv_qpd_z.gbs 
    atoms 2-4 entry H          line    56 file /work/zw18965/.conda/envs/p4env/share/psi4/basis/aug-cc-pv_qpd_z.gbs 


         ---------------------------------------------------------
                                   SCF
               by Justin Turney, Rob Parrish, Andy Simmonett
                          and Daniel G. A. Smith
                              RKS Reference
                       24 Threads, 137329 MiB Core
         ---------------------------------------------------------

  ==> Geometry <==

    Molecular point group: c1
    Full point group: C1

    Geometry (in Angstrom), charge = 0, multiplicity = 1:

       Center              X                  Y                   Z               Mass       
    ------------   -----------------  -----------------  -----------------  -----------------
         B            0.000007382502    -0.000385242319     0.000017537102    11.009305360000
         H           -0.399640835497    -1.028473204989     0.413974761812     1.007825032230
         H           -0.171153118355     0.991819790259     0.617599329934     1.007825032230
         H            0.570713308685     0.040861734820    -1.031765663995     1.007825032230

  Running in c1 symmetry.

  Rotational constants: A =      8.01263  B =      8.01222  C =      4.00621 [cm^-1]
  Rotational constants: A = 240212.63702  B = 240200.43938  C = 120103.28372 [MHz]
  Nuclear repulsion =    7.505384021429273

  Charge       = 0
  Multiplicity = 1
  Electrons    = 8
  Nalpha       = 4
  Nbeta        = 4

  ==> Algorithm <==

  SCF Algorithm Type is DF.
  DIIS enabled.
  MOM disabled.
  Fractional occupation disabled.
  Guess Type is SAD.
  Energy threshold   = 1.00e-08
  Density threshold  = 1.00e-08
  Integral threshold = 0.00e+00

  ==> Primary Basis <==

  Basis Set: AUG-CC-PV(Q+D)Z
    Blend: AUG-CC-PV(Q+D)Z
    Number of shells: 62
    Number of basis function: 218
    Number of Cartesian functions: 270
    Spherical Harmonics?: true
    Max angular momentum: 4

  ==> DFT Potential <==

   => Composite Functional: WB97X-V <= 

    wB97X-V Hyb-GGA Exchange-Correlation Functional

    N. Mardirossian and M. Head-Gordon, Phys. Chem. Chem. Phys. 16, 9904 (2014)

    Deriv               =              1
    GGA                 =           TRUE
    Meta                =          FALSE

    Exchange Hybrid     =           TRUE
    MP2 Hybrid          =          FALSE

   => Exchange-Correlation Functionals <=

    1.0000   wB97X-V range-separated functional

   => Exact (HF) Exchange <=

    0.8330            HF,LR [omega = 0.3000]
    0.1670               HF 

   => VV10 Non-Local Parameters <=

    VV10 B              =     6.0000E+00
    VV10 C              =     1.0000E-02

   => Molecular Quadrature <=

    Radial Scheme          =       TREUTLER
    Pruning Scheme         =           FLAT
    Nuclear Scheme         =       TREUTLER

    BS radius alpha        =              1
    Pruning alpha          =              1
    Radial Points          =             75
    Spherical Points       =            302
    Total Points           =          90600
    Total Blocks           =            739
    Max Points             =            256
    Max Functions          =            218

   => Loading Basis Set <=

    Name: (AUG-CC-PV(Q+D)Z AUX)
    Role: JKFIT
    Keyword: DF_BASIS_SCF
    atoms 1   entry B          line   108 file /work/zw18965/.conda/envs/p4env/share/psi4/basis/aug-cc-pvqz-jkfit.gbs 
    atoms 2-4 entry H          line    70 file /work/zw18965/.conda/envs/p4env/share/psi4/basis/aug-cc-pvqz-jkfit.gbs 

  ==> Pre-Iterations <==

   -------------------------------------------------------
    Irrep   Nso     Nmo     Nalpha   Nbeta   Ndocc  Nsocc
   -------------------------------------------------------
     A        218     218       0       0       0       0
   -------------------------------------------------------
    Total     218     218       4       4       4       0
   -------------------------------------------------------

  ==> Integral Setup <==

  ==> DiskDFJK: Density-Fitted J/K Matrices <==

    J tasked:                  Yes
    K tasked:                  Yes
    wK tasked:                 Yes
    Omega:               3.000E-01
    OpenMP threads:             24
    Integrals threads:          24
    Memory [MiB]:           102452
    Algorithm:                Core
    Integral Cache:           NONE
    Schwarz Cutoff:          1E-12
    Fitting Condition:       1E-10

   => Auxiliary Basis Set <=

  Basis Set: (AUG-CC-PV(Q+D)Z AUX)
    Blend: AUG-CC-PVQZ-JKFIT
    Number of shells: 88
    Number of basis function: 370
    Number of Cartesian functions: 501
    Spherical Harmonics?: true
    Max angular momentum: 5

  Cached 100.0% of DFT collocation blocks in 0.532 [GiB].

  Minimum eigenvalue in the overlap matrix is 2.6448387775E-05.
  Using Symmetric Orthogonalization.

  SCF Guess: Superposition of Atomic Densities via on-the-fly atomic UHF.

  ==> Iterations <==

                           Total Energy        Delta E     RMS |[F,P]|

   @DF-RKS iter SAD:   -25.90981524241867   -2.59098e+01   0.00000e+00 
   @DF-RKS iter   1:   -26.59168464418111   -6.81869e-01   7.36527e-04 DIIS
   @DF-RKS iter   2:   -26.60594877739016   -1.42641e-02   2.24562e-04 DIIS
   @DF-RKS iter   3:   -26.60731862754303   -1.36985e-03   2.61849e-05 DIIS
   @DF-RKS iter   4:   -26.60736335734791   -4.47298e-05   4.31517e-06 DIIS
   @DF-RKS iter   5:   -26.60736500385196   -1.64650e-06   5.62052e-07 DIIS
   @DF-RKS iter   6:   -26.60736502590768   -2.20557e-08   7.81804e-08 DIIS
   @DF-RKS iter   7:   -26.60736502642860   -5.20917e-10   6.75224e-09 DIIS
  Energy and wave function converged.


  ==> Post-Iterations <==

    Orbital Energies [Eh]
    ---------------------

    Doubly Occupied:                                                      

       1A     -6.859416     2A     -0.638945     3A     -0.461418  
       4A     -0.460694  

    Virtual:                                                              

       5A      0.005937     6A      0.031750     7A      0.040829  
       8A      0.040868     9A      0.063632    10A      0.080946  
      11A      0.081022    12A      0.105159    13A      0.127441  
      14A      0.127500    15A      0.131894    16A      0.139437  
      17A      0.139500    18A      0.207909    19A      0.208056  
      20A      0.232877    21A      0.247957    22A      0.260596  
      23A      0.270062    24A      0.270161    25A      0.270303  
      26A      0.279594    27A      0.279710    28A      0.305612  
      29A      0.305646    30A      0.307174    31A      0.373052  
      32A      0.416695    33A      0.416766    34A      0.446973  
      35A      0.447395    36A      0.483680    37A      0.514533  
      38A      0.514650    39A      0.546310    40A      0.546407  
      41A      0.558970    42A      0.573853    43A      0.573910  
      44A      0.586282    45A      0.591379    46A      0.695626  
      47A      0.707247    48A      0.734766    49A      0.734917  
      50A      0.755316    51A      0.777747    52A      0.778520  
      53A      0.783233    54A      0.783350    55A      0.828582  
      56A      0.850835    57A      0.851298    58A      0.892482  
      59A      0.892529    60A      0.906008    61A      0.906535  
      62A      0.911370    63A      0.916146    64A      0.964423  
      65A      1.092403    66A      1.092685    67A      1.130238  
      68A      1.130434    69A      1.154643    70A      1.209058  
      71A      1.231555    72A      1.232669    73A      1.236685  
      74A      1.455260    75A      1.455372    76A      1.462717  
      77A      1.463203    78A      1.464107    79A      1.490046  
      80A      1.513813    81A      1.514056    82A      1.550124  
      83A      1.563269    84A      1.563415    85A      1.625028  
      86A      1.625718    87A      1.633130    88A      1.756438  
      89A      1.757330    90A      1.758036    91A      1.758297  
      92A      1.761091    93A      1.790859    94A      1.849238  
      95A      1.874492    96A      1.875106    97A      1.924135  
      98A      1.960192    99A      1.960569   100A      1.963718  
     101A      1.988827   102A      2.081269   103A      2.081376  
     104A      2.083667   105A      2.083827   106A      2.139386  
     107A      2.139508   108A      2.175666   109A      2.175823  
     110A      2.176515   111A      2.189250   112A      2.203066  
     113A      2.203540   114A      2.273186   115A      2.275699  
     116A      2.305797   117A      2.337003   118A      2.337772  
     119A      2.652260   120A      2.780894   121A      2.785160  
     122A      2.901240   123A      3.014922   124A      3.015750  
     125A      3.085735   126A      3.086128   127A      3.150186  
     128A      3.150646   129A      3.228875   130A      3.238533  
     131A      3.240063   132A      3.240574   133A      3.252070  
     134A      3.306964   135A      3.307638   136A      3.388438  
     137A      3.456468   138A      3.458038   139A      3.525559  
     140A      3.527778   141A      3.644840   142A      3.772562  
     143A      3.889904   144A      4.039093   145A      4.039462  
     146A      4.063752   147A      4.063897   148A      4.085151  
     149A      4.144319   150A      4.205192   151A      4.205672  
     152A      4.222947   153A      4.273446   154A      4.274143  
     155A      4.431445   156A      4.431587   157A      4.649530  
     158A      4.747555   159A      5.008636   160A      5.010344  
     161A      5.158130   162A      5.159876   163A      5.175530  
     164A      5.276919   165A      5.290464   166A      5.291394  
     167A      5.366908   168A      6.125090   169A      6.127278  
     170A      6.506394   171A      6.563662   172A      6.564283  
     173A      6.713824   174A      6.728757   175A      6.729283  
     176A      6.976800   177A      6.976968   178A      7.319191  
     179A      7.349800   180A      7.353714   181A      7.621610  
     182A      7.622451   183A      7.627351   184A      7.629530  
     185A      7.677629   186A      7.818548   187A      7.958539  
     188A      7.960593   189A      8.017273   190A      8.024665  
     191A      8.223282   192A      8.392645   193A      8.396020  
     194A      8.719293   195A      8.720379   196A      8.855133  
     197A      8.858267   198A      8.896076   199A      8.912266  
     200A      8.915384   201A      8.956498   202A      9.145643  
     203A      9.194983   204A      9.236606   205A      9.237518  
     206A      9.238598   207A      9.397913   208A      9.461069  
     209A      9.465536   210A      9.696883   211A      9.823896  
     212A      9.824661   213A     10.286511   214A     10.287376  
     215A     10.391136   216A     11.275614   217A     11.289331  
     218A     18.955065  

    Final Occupation by Irrep:
              A 
    DOCC [     4 ]

  @DF-RKS Final Energy:   -26.60736502642860

   => Energetics <=

    Nuclear Repulsion Energy =              7.5053840214292729
    One-Electron Energy =                 -49.2335425029813365
    Two-Electron Energy =                  18.4174139453180636
    DFT Exchange-Correlation Energy =      -3.3304829143943424
    Empirical Dispersion Energy =           0.0000000000000000
    VV10 Nonlocal Energy =                  0.0338624241997457
    Total Energy =                        -26.6073650264285959

Computation Completed


Properties will be evaluated at   0.000000,   0.000000,   0.000000 [a0]

Properties computed using the SCF density matrix

  Nuclear Dipole Moment: [e a0]
     X:    -0.0001      Y:     0.0043      Z:    -0.0002

  Electronic Dipole Moment: [e a0]
     X:     0.0001      Y:    -0.0061      Z:     0.0003

  Dipole Moment: [e a0]
     X:    -0.0000      Y:    -0.0018      Z:     0.0001     Total:     0.0018

  Dipole Moment: [D]
     X:    -0.0000      Y:    -0.0045      Z:     0.0001     Total:     0.0045


*** tstop() called on bp1-compute00115.data.bp.acrc.priv at Mon Apr 19 14:54:46 2021
Module time:
	user time   =     172.67 seconds =       2.88 minutes
	system time =      11.10 seconds =       0.19 minutes
	total time  =          5 seconds =       0.08 minutes
Total time:
	user time   =     706.78 seconds =      11.78 minutes
	system time =      50.38 seconds =       0.84 minutes
	total time  =         23 seconds =       0.38 minutes

  //>>>>>>>>>>>>>>>>>>>>>>>>>>>>>>>>>>>//
  //    Loading displacement 5 of 13   //
  //<<<<<<<<<<<<<<<<<<<<<<<<<<<<<<<<<<<//

*** tstart() called on bp1-compute00115.data.bp.acrc.priv
*** at Mon Apr 19 14:54:46 2021

   => Loading Basis Set <=

    Name: AUG-CC-PV(Q+D)Z
    Role: ORBITAL
    Keyword: BASIS
    atoms 1   entry B          line   259 file /work/zw18965/.conda/envs/p4env/share/psi4/basis/aug-cc-pv_qpd_z.gbs 
    atoms 2-4 entry H          line    56 file /work/zw18965/.conda/envs/p4env/share/psi4/basis/aug-cc-pv_qpd_z.gbs 


         ---------------------------------------------------------
                                   SCF
               by Justin Turney, Rob Parrish, Andy Simmonett
                          and Daniel G. A. Smith
                              RKS Reference
                       24 Threads, 137329 MiB Core
         ---------------------------------------------------------

  ==> Geometry <==

    Molecular point group: c1
    Full point group: C1

    Geometry (in Angstrom), charge = 0, multiplicity = 1:

       Center              X                  Y                   Z               Mass       
    ------------   -----------------  -----------------  -----------------  -----------------
         B            0.000007382502     0.000355048741     0.000017537098    11.009305360000
         H           -0.399641017309    -1.031168828251     0.413974537426     1.007825032230
         H           -0.171152927879     0.989124079663     0.617599554294     1.007825032230
         H            0.570713300021     0.038166257894    -1.031765663931     1.007825032230

  Running in c1 symmetry.

  Rotational constants: A =      8.01263  B =      8.01223  C =      4.00622 [cm^-1]
  Rotational constants: A = 240212.63859  B = 240200.58955  C = 120103.31098 [MHz]
  Nuclear repulsion =    7.505384006987323

  Charge       = 0
  Multiplicity = 1
  Electrons    = 8
  Nalpha       = 4
  Nbeta        = 4

  ==> Algorithm <==

  SCF Algorithm Type is DF.
  DIIS enabled.
  MOM disabled.
  Fractional occupation disabled.
  Guess Type is SAD.
  Energy threshold   = 1.00e-08
  Density threshold  = 1.00e-08
  Integral threshold = 0.00e+00

  ==> Primary Basis <==

  Basis Set: AUG-CC-PV(Q+D)Z
    Blend: AUG-CC-PV(Q+D)Z
    Number of shells: 62
    Number of basis function: 218
    Number of Cartesian functions: 270
    Spherical Harmonics?: true
    Max angular momentum: 4

  ==> DFT Potential <==

   => Composite Functional: WB97X-V <= 

    wB97X-V Hyb-GGA Exchange-Correlation Functional

    N. Mardirossian and M. Head-Gordon, Phys. Chem. Chem. Phys. 16, 9904 (2014)

    Deriv               =              1
    GGA                 =           TRUE
    Meta                =          FALSE

    Exchange Hybrid     =           TRUE
    MP2 Hybrid          =          FALSE

   => Exchange-Correlation Functionals <=

    1.0000   wB97X-V range-separated functional

   => Exact (HF) Exchange <=

    0.8330            HF,LR [omega = 0.3000]
    0.1670               HF 

   => VV10 Non-Local Parameters <=

    VV10 B              =     6.0000E+00
    VV10 C              =     1.0000E-02

   => Molecular Quadrature <=

    Radial Scheme          =       TREUTLER
    Pruning Scheme         =           FLAT
    Nuclear Scheme         =       TREUTLER

    BS radius alpha        =              1
    Pruning alpha          =              1
    Radial Points          =             75
    Spherical Points       =            302
    Total Points           =          90600
    Total Blocks           =            737
    Max Points             =            254
    Max Functions          =            218

   => Loading Basis Set <=

    Name: (AUG-CC-PV(Q+D)Z AUX)
    Role: JKFIT
    Keyword: DF_BASIS_SCF
    atoms 1   entry B          line   108 file /work/zw18965/.conda/envs/p4env/share/psi4/basis/aug-cc-pvqz-jkfit.gbs 
    atoms 2-4 entry H          line    70 file /work/zw18965/.conda/envs/p4env/share/psi4/basis/aug-cc-pvqz-jkfit.gbs 

  ==> Pre-Iterations <==

   -------------------------------------------------------
    Irrep   Nso     Nmo     Nalpha   Nbeta   Ndocc  Nsocc
   -------------------------------------------------------
     A        218     218       0       0       0       0
   -------------------------------------------------------
    Total     218     218       4       4       4       0
   -------------------------------------------------------

  ==> Integral Setup <==

  ==> DiskDFJK: Density-Fitted J/K Matrices <==

    J tasked:                  Yes
    K tasked:                  Yes
    wK tasked:                 Yes
    Omega:               3.000E-01
    OpenMP threads:             24
    Integrals threads:          24
    Memory [MiB]:           102452
    Algorithm:                Core
    Integral Cache:           NONE
    Schwarz Cutoff:          1E-12
    Fitting Condition:       1E-10

   => Auxiliary Basis Set <=

  Basis Set: (AUG-CC-PV(Q+D)Z AUX)
    Blend: AUG-CC-PVQZ-JKFIT
    Number of shells: 88
    Number of basis function: 370
    Number of Cartesian functions: 501
    Spherical Harmonics?: true
    Max angular momentum: 5

  Cached 100.0% of DFT collocation blocks in 0.532 [GiB].

  Minimum eigenvalue in the overlap matrix is 2.6448406342E-05.
  Using Symmetric Orthogonalization.

  SCF Guess: Superposition of Atomic Densities via on-the-fly atomic UHF.

  ==> Iterations <==

                           Total Energy        Delta E     RMS |[F,P]|

   @DF-RKS iter SAD:   -25.90981543084104   -2.59098e+01   0.00000e+00 
   @DF-RKS iter   1:   -26.59168493812025   -6.81870e-01   7.36527e-04 DIIS
   @DF-RKS iter   2:   -26.60594905989531   -1.42641e-02   2.24562e-04 DIIS
   @DF-RKS iter   3:   -26.60731890768297   -1.36985e-03   2.61848e-05 DIIS
   @DF-RKS iter   4:   -26.60736363734537   -4.47297e-05   4.31516e-06 DIIS
   @DF-RKS iter   5:   -26.60736528383882   -1.64649e-06   5.62048e-07 DIIS
   @DF-RKS iter   6:   -26.60736530589431   -2.20555e-08   7.81788e-08 DIIS
   @DF-RKS iter   7:   -26.60736530641519   -5.20881e-10   6.75171e-09 DIIS
  Energy and wave function converged.


  ==> Post-Iterations <==

    Orbital Energies [Eh]
    ---------------------

    Doubly Occupied:                                                      

       1A     -6.859416     2A     -0.638945     3A     -0.461394  
       4A     -0.460718  

    Virtual:                                                              

       5A      0.005937     6A      0.031750     7A      0.040830  
       8A      0.040866     9A      0.063632    10A      0.080949  
      11A      0.081020    12A      0.105159    13A      0.127444  
      14A      0.127498    15A      0.131894    16A      0.139437  
      17A      0.139499    18A      0.207914    19A      0.208051  
      20A      0.232877    21A      0.247957    22A      0.260596  
      23A      0.270063    24A      0.270165    25A      0.270298  
      26A      0.279599    27A      0.279705    28A      0.305609  
      29A      0.305649    30A      0.307174    31A      0.373052  
      32A      0.416698    33A      0.416762    34A      0.446987  
      35A      0.447382    36A      0.483680    37A      0.514541  
      38A      0.514643    39A      0.546317    40A      0.546400  
      41A      0.558970    42A      0.573854    43A      0.573910  
      44A      0.586282    45A      0.591379    46A      0.695626  
      47A      0.707247    48A      0.734776    49A      0.734907  
      50A      0.755316    51A      0.777772    52A      0.778496  
      53A      0.783238    54A      0.783345    55A      0.828583  
      56A      0.850850    57A      0.851282    58A      0.892487  
      59A      0.892525    60A      0.906030    61A      0.906513  
      62A      0.911369    63A      0.916146    64A      0.964421  
      65A      1.092410    66A      1.092678    67A      1.130245  
      68A      1.130427    69A      1.154642    70A      1.209059  
      71A      1.231594    72A      1.232632    73A      1.236685  
      74A      1.455270    75A      1.455364    76A      1.462743  
      77A      1.463177    78A      1.464108    79A      1.490045  
      80A      1.513821    81A      1.514048    82A      1.550124  
      83A      1.563273    84A      1.563412    85A      1.625047  
      86A      1.625702    87A      1.633128    88A      1.756466  
      89A      1.757302    90A      1.758046    91A      1.758287  
      92A      1.761090    93A      1.790859    94A      1.849238  
      95A      1.874511    96A      1.875087    97A      1.924135  
      98A      1.960192    99A      1.960569   100A      1.963718  
     101A      1.988828   102A      2.081279   103A      2.081368  
     104A      2.083650   105A      2.083844   106A      2.139400  
     107A      2.139494   108A      2.175680   109A      2.175814  
     110A      2.176512   111A      2.189248   112A      2.203065  
     113A      2.203541   114A      2.273186   115A      2.275699  
     116A      2.305798   117A      2.337031   118A      2.337744  
     119A      2.652261   120A      2.781057   121A      2.784997  
     122A      2.901239   123A      3.014943   124A      3.015730  
     125A      3.085738   126A      3.086125   127A      3.150203  
     128A      3.150630   129A      3.228875   130A      3.238532  
     131A      3.240051   132A      3.240586   133A      3.252072  
     134A      3.306967   135A      3.307633   136A      3.388438  
     137A      3.456531   138A      3.457975   139A      3.525632  
     140A      3.527705   141A      3.644841   142A      3.772562  
     143A      3.889905   144A      4.039106   145A      4.039453  
     146A      4.063751   147A      4.063897   148A      4.085150  
     149A      4.144317   150A      4.205175   151A      4.205693  
     152A      4.222945   153A      4.273474   154A      4.274112  
     155A      4.431437   156A      4.431594   157A      4.649530  
     158A      4.747558   159A      5.008655   160A      5.010322  
     161A      5.158160   162A      5.159855   163A      5.175530  
     164A      5.276910   165A      5.290509   166A      5.291348  
     167A      5.366909   168A      6.125170   169A      6.127200  
     170A      6.506393   171A      6.563678   172A      6.564266  
     173A      6.713824   174A      6.728761   175A      6.729279  
     176A      6.976778   177A      6.976991   178A      7.319198  
     179A      7.349944   180A      7.353566   181A      7.621612  
     182A      7.622456   183A      7.627396   184A      7.629478  
     185A      7.677627   186A      7.818548   187A      7.958633  
     188A      7.960499   189A      8.017276   190A      8.024662  
     191A      8.223283   192A      8.392749   193A      8.395915  
     194A      8.719307   195A      8.720369   196A      8.855205  
     197A      8.858231   198A      8.896042   199A      8.912373  
     200A      8.915277   201A      8.956496   202A      9.145644  
     203A      9.194979   204A      9.236681   205A      9.237519  
     206A      9.238521   207A      9.397922   208A      9.461220  
     209A      9.465380   210A      9.696890   211A      9.823974  
     212A      9.824577   213A     10.286540   214A     10.287348  
     215A     10.391134   216A     11.276004   217A     11.288940  
     218A     18.955066  

    Final Occupation by Irrep:
              A 
    DOCC [     4 ]

  @DF-RKS Final Energy:   -26.60736530641519

   => Energetics <=

    Nuclear Repulsion Energy =              7.5053840069873230
    One-Electron Energy =                 -49.2335431542091158
    Two-Electron Energy =                  18.4174143602389648
    DFT Exchange-Correlation Energy =      -3.3304829503162869
    Empirical Dispersion Energy =           0.0000000000000000
    VV10 Nonlocal Energy =                  0.0338624308839283
    Total Energy =                        -26.6073653064151898

Computation Completed


Properties will be evaluated at   0.000000,   0.000000,   0.000000 [a0]

Properties computed using the SCF density matrix

  Nuclear Dipole Moment: [e a0]
     X:    -0.0001      Y:    -0.0040      Z:    -0.0002

  Electronic Dipole Moment: [e a0]
     X:     0.0001      Y:     0.0056      Z:     0.0003

  Dipole Moment: [e a0]
     X:     0.0001      Y:     0.0017      Z:     0.0001     Total:     0.0017

  Dipole Moment: [D]
     X:     0.0001      Y:     0.0042      Z:     0.0002     Total:     0.0042


*** tstop() called on bp1-compute00115.data.bp.acrc.priv at Mon Apr 19 14:54:52 2021
Module time:
	user time   =     173.36 seconds =       2.89 minutes
	system time =      11.59 seconds =       0.19 minutes
	total time  =          6 seconds =       0.10 minutes
Total time:
	user time   =     880.30 seconds =      14.67 minutes
	system time =      61.98 seconds =       1.03 minutes
	total time  =         29 seconds =       0.48 minutes

  //>>>>>>>>>>>>>>>>>>>>>>>>>>>>>>>>>>>//
  //    Loading displacement 6 of 13   //
  //<<<<<<<<<<<<<<<<<<<<<<<<<<<<<<<<<<<//

*** tstart() called on bp1-compute00115.data.bp.acrc.priv
*** at Mon Apr 19 14:54:52 2021

   => Loading Basis Set <=

    Name: AUG-CC-PV(Q+D)Z
    Role: ORBITAL
    Keyword: BASIS
    atoms 1   entry B          line   259 file /work/zw18965/.conda/envs/p4env/share/psi4/basis/aug-cc-pv_qpd_z.gbs 
    atoms 2-4 entry H          line    56 file /work/zw18965/.conda/envs/p4env/share/psi4/basis/aug-cc-pv_qpd_z.gbs 


         ---------------------------------------------------------
                                   SCF
               by Justin Turney, Rob Parrish, Andy Simmonett
                          and Daniel G. A. Smith
                              RKS Reference
                       24 Threads, 137329 MiB Core
         ---------------------------------------------------------

  ==> Geometry <==

    Molecular point group: c1
    Full point group: C1

    Geometry (in Angstrom), charge = 0, multiplicity = 1:

       Center              X                  Y                   Z               Mass       
    ------------   -----------------  -----------------  -----------------  -----------------
         B            0.000007382502    -0.000015096789    -0.000352608431    11.009305360000
         H           -0.399640930728    -1.029820990108     0.415322513188     1.007825032230
         H           -0.171153094394     0.990471985415     0.618947143262     1.007825032230
         H            0.570713379955     0.039513919391    -1.030417823285     1.007825032230

  Running in c1 symmetry.

  Rotational constants: A =      8.01261  B =      8.01224  C =      4.00622 [cm^-1]
  Rotational constants: A = 240212.10648  B = 240200.99320  C = 120103.34835 [MHz]
  Nuclear repulsion =    7.505382045529150

  Charge       = 0
  Multiplicity = 1
  Electrons    = 8
  Nalpha       = 4
  Nbeta        = 4

  ==> Algorithm <==

  SCF Algorithm Type is DF.
  DIIS enabled.
  MOM disabled.
  Fractional occupation disabled.
  Guess Type is SAD.
  Energy threshold   = 1.00e-08
  Density threshold  = 1.00e-08
  Integral threshold = 0.00e+00

  ==> Primary Basis <==

  Basis Set: AUG-CC-PV(Q+D)Z
    Blend: AUG-CC-PV(Q+D)Z
    Number of shells: 62
    Number of basis function: 218
    Number of Cartesian functions: 270
    Spherical Harmonics?: true
    Max angular momentum: 4

  ==> DFT Potential <==

   => Composite Functional: WB97X-V <= 

    wB97X-V Hyb-GGA Exchange-Correlation Functional

    N. Mardirossian and M. Head-Gordon, Phys. Chem. Chem. Phys. 16, 9904 (2014)

    Deriv               =              1
    GGA                 =           TRUE
    Meta                =          FALSE

    Exchange Hybrid     =           TRUE
    MP2 Hybrid          =          FALSE

   => Exchange-Correlation Functionals <=

    1.0000   wB97X-V range-separated functional

   => Exact (HF) Exchange <=

    0.8330            HF,LR [omega = 0.3000]
    0.1670               HF 

   => VV10 Non-Local Parameters <=

    VV10 B              =     6.0000E+00
    VV10 C              =     1.0000E-02

   => Molecular Quadrature <=

    Radial Scheme          =       TREUTLER
    Pruning Scheme         =           FLAT
    Nuclear Scheme         =       TREUTLER

    BS radius alpha        =              1
    Pruning alpha          =              1
    Radial Points          =             75
    Spherical Points       =            302
    Total Points           =          90600
    Total Blocks           =            741
    Max Points             =            256
    Max Functions          =            218

   => Loading Basis Set <=

    Name: (AUG-CC-PV(Q+D)Z AUX)
    Role: JKFIT
    Keyword: DF_BASIS_SCF
    atoms 1   entry B          line   108 file /work/zw18965/.conda/envs/p4env/share/psi4/basis/aug-cc-pvqz-jkfit.gbs 
    atoms 2-4 entry H          line    70 file /work/zw18965/.conda/envs/p4env/share/psi4/basis/aug-cc-pvqz-jkfit.gbs 

  ==> Pre-Iterations <==

   -------------------------------------------------------
    Irrep   Nso     Nmo     Nalpha   Nbeta   Ndocc  Nsocc
   -------------------------------------------------------
     A        218     218       0       0       0       0
   -------------------------------------------------------
    Total     218     218       4       4       4       0
   -------------------------------------------------------

  ==> Integral Setup <==

  ==> DiskDFJK: Density-Fitted J/K Matrices <==

    J tasked:                  Yes
    K tasked:                  Yes
    wK tasked:                 Yes
    Omega:               3.000E-01
    OpenMP threads:             24
    Integrals threads:          24
    Memory [MiB]:           102452
    Algorithm:                Core
    Integral Cache:           NONE
    Schwarz Cutoff:          1E-12
    Fitting Condition:       1E-10

   => Auxiliary Basis Set <=

  Basis Set: (AUG-CC-PV(Q+D)Z AUX)
    Blend: AUG-CC-PVQZ-JKFIT
    Number of shells: 88
    Number of basis function: 370
    Number of Cartesian functions: 501
    Spherical Harmonics?: true
    Max angular momentum: 5

  Cached 100.0% of DFT collocation blocks in 0.532 [GiB].

  Minimum eigenvalue in the overlap matrix is 2.6448428702E-05.
  Using Symmetric Orthogonalization.

  SCF Guess: Superposition of Atomic Densities via on-the-fly atomic UHF.

  ==> Iterations <==

                           Total Energy        Delta E     RMS |[F,P]|

   @DF-RKS iter SAD:   -25.90981580141011   -2.59098e+01   0.00000e+00 
   @DF-RKS iter   1:   -26.59168530094865   -6.81869e-01   7.36526e-04 DIIS
   @DF-RKS iter   2:   -26.60594939447052   -1.42641e-02   2.24561e-04 DIIS
   @DF-RKS iter   3:   -26.60731923431088   -1.36984e-03   2.61849e-05 DIIS
   @DF-RKS iter   4:   -26.60736396404885   -4.47297e-05   4.31518e-06 DIIS
   @DF-RKS iter   5:   -26.60736561055018   -1.64650e-06   5.62064e-07 DIIS
   @DF-RKS iter   6:   -26.60736563260674   -2.20566e-08   7.81879e-08 DIIS
   @DF-RKS iter   7:   -26.60736563312769   -5.20949e-10   6.75493e-09 DIIS
  Energy and wave function converged.


  ==> Post-Iterations <==

    Orbital Energies [Eh]
    ---------------------

    Doubly Occupied:                                                      

       1A     -6.859416     2A     -0.638945     3A     -0.461356  
       4A     -0.460756  

    Virtual:                                                              

       5A      0.005937     6A      0.031750     7A      0.040832  
       8A      0.040864     9A      0.063632    10A      0.080953  
      11A      0.081016    12A      0.105159    13A      0.127447  
      14A      0.127494    15A      0.131894    16A      0.139442  
      17A      0.139494    18A      0.207921    19A      0.208044  
      20A      0.232877    21A      0.247957    22A      0.260597  
      23A      0.270068    24A      0.270165    25A      0.270293  
      26A      0.279603    27A      0.279700    28A      0.305618  
      29A      0.305640    30A      0.307174    31A      0.373052  
      32A      0.416702    33A      0.416758    34A      0.447008  
      35A      0.447361    36A      0.483680    37A      0.514541  
      38A      0.514643    39A      0.546320    40A      0.546397  
      41A      0.558970    42A      0.573857    43A      0.573907  
      44A      0.586281    45A      0.591378    46A      0.695625  
      47A      0.707247    48A      0.734779    49A      0.734904  
      50A      0.755316    51A      0.777809    52A      0.778451  
      53A      0.783248    54A      0.783342    55A      0.828584  
      56A      0.850868    57A      0.851260    58A      0.892491  
      59A      0.892526    60A      0.906054    61A      0.906489  
      62A      0.911367    63A      0.916146    64A      0.964422  
      65A      1.092426    66A      1.092663    67A      1.130255  
      68A      1.130416    69A      1.154642    70A      1.209057  
      71A      1.231647    72A      1.232580    73A      1.236687  
      74A      1.455262    75A      1.455365    76A      1.462768  
      77A      1.463159    78A      1.464108    79A      1.490045  
      80A      1.513828    81A      1.514040    82A      1.550123  
      83A      1.563278    84A      1.563407    85A      1.625091  
      86A      1.625661    87A      1.633125    88A      1.756510  
      89A      1.757256    90A      1.758065    91A      1.758274  
      92A      1.761085    93A      1.790862    94A      1.849238  
      95A      1.874544    96A      1.875050    97A      1.924134  
      98A      1.960217    99A      1.960546   100A      1.963716  
     101A      1.988827   102A      2.081284   103A      2.081363  
     104A      2.083668   105A      2.083825   106A      2.139393  
     107A      2.139501   108A      2.175688   109A      2.175811  
     110A      2.176509   111A      2.189242   112A      2.203108  
     113A      2.203499   114A      2.273183   115A      2.275698  
     116A      2.305802   117A      2.337054   118A      2.337717  
     119A      2.652269   120A      2.781240   121A      2.784804  
     122A      2.901239   123A      3.014991   124A      3.015685  
     125A      3.085757   126A      3.086110   127A      3.150218  
     128A      3.150616   129A      3.228871   130A      3.238533  
     131A      3.240128   132A      3.240507   133A      3.252073  
     134A      3.307006   135A      3.307598   136A      3.388438  
     137A      3.456608   138A      3.457899   139A      3.525739  
     140A      3.527598   141A      3.644839   142A      3.772562  
     143A      3.889904   144A      4.039122   145A      4.039425  
     146A      4.063771   147A      4.063891   148A      4.085151  
     149A      4.144316   150A      4.205215   151A      4.205653  
     152A      4.222943   153A      4.273503   154A      4.274083  
     155A      4.431452   156A      4.431576   157A      4.649527  
     158A      4.747562   159A      5.008733   160A      5.010238  
     161A      5.158282   162A      5.159742   163A      5.175528  
     164A      5.276897   165A      5.290564   166A      5.291294  
     167A      5.366910   168A      6.125282   169A      6.127084  
     170A      6.506393   171A      6.563713   172A      6.564231  
     173A      6.713823   174A      6.728787   175A      6.729254  
     176A      6.976792   177A      6.976974   178A      7.319215  
     179A      7.350095   180A      7.353400   181A      7.621663  
     182A      7.622373   183A      7.627541   184A      7.629374  
     185A      7.677622   186A      7.818543   187A      7.958718  
     188A      7.960414   189A      8.017252   190A      8.024676  
     191A      8.223291   192A      8.392903   193A      8.395750  
     194A      8.719401   195A      8.720293   196A      8.855487  
     197A      8.857984   198A      8.895995   199A      8.912535  
     200A      8.915121   201A      8.956498   202A      9.145632  
     203A      9.194980   204A      9.236777   205A      9.237521  
     206A      9.238426   207A      9.397932   208A      9.461504  
     209A      9.465093   210A      9.696904   211A      9.824000  
     212A      9.824541   213A     10.286586   214A     10.287278  
     215A     10.391136   216A     11.276709   217A     11.288224  
     218A     18.955069  

    Final Occupation by Irrep:
              A 
    DOCC [     4 ]

  @DF-RKS Final Energy:   -26.60736563312769

   => Energetics <=

    Nuclear Repulsion Energy =              7.5053820455291502
    One-Electron Energy =                 -49.2335403650279915
    Two-Electron Energy =                  18.4174129925894974
    DFT Exchange-Correlation Energy =      -3.3304827321184072
    Empirical Dispersion Energy =           0.0000000000000000
    VV10 Nonlocal Energy =                  0.0338624259000586
    Total Energy =                        -26.6073656331276922

Computation Completed


Properties will be evaluated at   0.000000,   0.000000,   0.000000 [a0]

Properties computed using the SCF density matrix

  Nuclear Dipole Moment: [e a0]
     X:    -0.0001      Y:     0.0002      Z:     0.0039

  Electronic Dipole Moment: [e a0]
     X:     0.0002      Y:    -0.0002      Z:    -0.0055

  Dipole Moment: [e a0]
     X:     0.0001      Y:    -0.0001      Z:    -0.0016     Total:     0.0016

  Dipole Moment: [D]
     X:     0.0003      Y:    -0.0002      Z:    -0.0040     Total:     0.0040


*** tstop() called on bp1-compute00115.data.bp.acrc.priv at Mon Apr 19 14:54:57 2021
Module time:
	user time   =     171.54 seconds =       2.86 minutes
	system time =      11.92 seconds =       0.20 minutes
	total time  =          5 seconds =       0.08 minutes
Total time:
	user time   =    1052.18 seconds =      17.54 minutes
	system time =      73.92 seconds =       1.23 minutes
	total time  =         34 seconds =       0.57 minutes

  //>>>>>>>>>>>>>>>>>>>>>>>>>>>>>>>>>>>//
  //    Loading displacement 7 of 13   //
  //<<<<<<<<<<<<<<<<<<<<<<<<<<<<<<<<<<<//

*** tstart() called on bp1-compute00115.data.bp.acrc.priv
*** at Mon Apr 19 14:54:57 2021

   => Loading Basis Set <=

    Name: AUG-CC-PV(Q+D)Z
    Role: ORBITAL
[...]
     149A      4.142721   150A      4.201739   151A      4.204250  
     152A      4.221649   153A      4.272975   154A      4.273223  
     155A      4.430110   156A      4.430944   157A      4.647088  
     158A      4.745438   159A      5.007282   160A      5.011376  
     161A      5.156003   162A      5.158717   163A      5.174680  
     164A      5.273782   165A      5.288287   166A      5.290308  
     167A      5.363156   168A      6.122504   169A      6.122969  
     170A      6.506361   171A      6.563418   172A      6.563479  
     173A      6.712110   174A      6.726905   175A      6.728459  
     176A      6.972623   177A      6.975692   178A      7.316314  
     179A      7.349642   180A      7.349770   181A      7.619821  
     182A      7.621267   183A      7.623690   184A      7.625436  
     185A      7.674819   186A      7.817318   187A      7.959615  
     188A      7.960506   189A      8.015347   190A      8.019755  
     191A      8.221895   192A      8.391348   193A      8.393450  
     194A      8.717913   195A      8.718103   196A      8.851548  
     197A      8.853609   198A      8.894079   199A      8.913653  
     200A      8.913764   201A      8.956402   202A      9.142579  
     203A      9.192456   204A      9.236947   205A      9.237622  
     206A      9.238874   207A      9.392828   208A      9.458488  
     209A      9.462643   210A      9.687865   211A      9.817357  
     212A      9.822735   213A     10.283192   214A     10.284706  
     215A     10.391717   216A     11.270510   217A     11.278082  
     218A     18.941248  

    Final Occupation by Irrep:
              A 
    DOCC [     4 ]

  @DF-RKS Final Energy:   -26.60740430972265

   => Energetics <=

    Nuclear Repulsion Energy =              7.4985436500372371
    One-Electron Energy =                 -49.2204998071170223
    Two-Electron Energy =                  18.4104607648917025
    DFT Exchange-Correlation Energy =      -3.3297705020590622
    Empirical Dispersion Energy =           0.0000000000000000
    VV10 Nonlocal Energy =                  0.0338615845245034
    Total Energy =                        -26.6074043097226465

Computation Completed


Properties will be evaluated at   0.000000,   0.000000,   0.000000 [a0]

Properties computed using the SCF density matrix

  Nuclear Dipole Moment: [e a0]
     X:    -0.0001      Y:     0.0002      Z:    -0.0002

  Electronic Dipole Moment: [e a0]
     X:    -0.0001      Y:    -0.0007      Z:     0.0005

  Dipole Moment: [e a0]
     X:    -0.0002      Y:    -0.0006      Z:     0.0003     Total:     0.0007

  Dipole Moment: [D]
     X:    -0.0004      Y:    -0.0014      Z:     0.0007     Total:     0.0017


*** tstop() called on bp1-compute00115.data.bp.acrc.priv at Mon Apr 19 14:55:30 2021
Module time:
	user time   =     175.59 seconds =       2.93 minutes
	system time =      11.21 seconds =       0.19 minutes
	total time  =          5 seconds =       0.08 minutes
Total time:
	user time   =    2099.91 seconds =      35.00 minutes
	system time =     144.32 seconds =       2.41 minutes
	total time  =         67 seconds =       1.12 minutes

  //>>>>>>>>>>>>>>>>>>>>>>>>>>>>>>>>>>>//
  //   Loading displacement 13 of 13   //
  //<<<<<<<<<<<<<<<<<<<<<<<<<<<<<<<<<<<//

*** tstart() called on bp1-compute00115.data.bp.acrc.priv
*** at Mon Apr 19 14:55:30 2021

   => Loading Basis Set <=

    Name: AUG-CC-PV(Q+D)Z
    Role: ORBITAL
    Keyword: BASIS
    atoms 1   entry B          line   259 file /work/zw18965/.conda/envs/p4env/share/psi4/basis/aug-cc-pv_qpd_z.gbs 
    atoms 2-4 entry H          line    56 file /work/zw18965/.conda/envs/p4env/share/psi4/basis/aug-cc-pv_qpd_z.gbs 


         ---------------------------------------------------------
                                   SCF
               by Justin Turney, Rob Parrish, Andy Simmonett
                          and Daniel G. A. Smith
                              RKS Reference
                       24 Threads, 137329 MiB Core
         ---------------------------------------------------------

  ==> Geometry <==

    Molecular point group: c1
    Full point group: C1

    Geometry (in Angstrom), charge = 0, multiplicity = 1:

       Center              X                  Y                   Z               Mass       
    ------------   -----------------  -----------------  -----------------  -----------------
         B            0.000007382502    -0.000015096789     0.000017537100    11.009305360000
         H           -0.399640926403    -1.029821016620     0.413974649619     1.007825032230
         H           -0.170476385391     0.989604590005     0.616095097445     1.007825032230
         H            0.570036666627     0.040381341313    -1.030261319294     1.007825032230

  Running in c1 symmetry.

  Rotational constants: A =      8.04195  B =      8.01225  C =      4.01354 [cm^-1]
  Rotational constants: A = 241091.49818  B = 240201.24224  C = 120322.77426 [MHz]
  Nuclear repulsion =    7.512233303271907

  Charge       = 0
  Multiplicity = 1
  Electrons    = 8
  Nalpha       = 4
  Nbeta        = 4

  ==> Algorithm <==

  SCF Algorithm Type is DF.
  DIIS enabled.
  MOM disabled.
  Fractional occupation disabled.
  Guess Type is SAD.
  Energy threshold   = 1.00e-08
  Density threshold  = 1.00e-08
  Integral threshold = 0.00e+00

  ==> Primary Basis <==

  Basis Set: AUG-CC-PV(Q+D)Z
    Blend: AUG-CC-PV(Q+D)Z
    Number of shells: 62
    Number of basis function: 218
    Number of Cartesian functions: 270
    Spherical Harmonics?: true
    Max angular momentum: 4

  ==> DFT Potential <==

   => Composite Functional: WB97X-V <= 

    wB97X-V Hyb-GGA Exchange-Correlation Functional

    N. Mardirossian and M. Head-Gordon, Phys. Chem. Chem. Phys. 16, 9904 (2014)

    Deriv               =              1
    GGA                 =           TRUE
    Meta                =          FALSE

    Exchange Hybrid     =           TRUE
    MP2 Hybrid          =          FALSE

   => Exchange-Correlation Functionals <=

    1.0000   wB97X-V range-separated functional

   => Exact (HF) Exchange <=

    0.8330            HF,LR [omega = 0.3000]
    0.1670               HF 

   => VV10 Non-Local Parameters <=

    VV10 B              =     6.0000E+00
    VV10 C              =     1.0000E-02

   => Molecular Quadrature <=

    Radial Scheme          =       TREUTLER
    Pruning Scheme         =           FLAT
    Nuclear Scheme         =       TREUTLER

    BS radius alpha        =              1
    Pruning alpha          =              1
    Radial Points          =             75
    Spherical Points       =            302
    Total Points           =          90600
    Total Blocks           =            748
    Max Points             =            256
    Max Functions          =            218

   => Loading Basis Set <=

    Name: (AUG-CC-PV(Q+D)Z AUX)
    Role: JKFIT
    Keyword: DF_BASIS_SCF
    atoms 1   entry B          line   108 file /work/zw18965/.conda/envs/p4env/share/psi4/basis/aug-cc-pvqz-jkfit.gbs 
    atoms 2-4 entry H          line    70 file /work/zw18965/.conda/envs/p4env/share/psi4/basis/aug-cc-pvqz-jkfit.gbs 

  ==> Pre-Iterations <==

   -------------------------------------------------------
    Irrep   Nso     Nmo     Nalpha   Nbeta   Ndocc  Nsocc
   -------------------------------------------------------
     A        218     218       0       0       0       0
   -------------------------------------------------------
    Total     218     218       4       4       4       0
   -------------------------------------------------------

  ==> Integral Setup <==

  ==> DiskDFJK: Density-Fitted J/K Matrices <==

    J tasked:                  Yes
    K tasked:                  Yes
    wK tasked:                 Yes
    Omega:               3.000E-01
    OpenMP threads:             24
    Integrals threads:          24
    Memory [MiB]:           102452
    Algorithm:                Core
    Integral Cache:           NONE
    Schwarz Cutoff:          1E-12
    Fitting Condition:       1E-10

   => Auxiliary Basis Set <=

  Basis Set: (AUG-CC-PV(Q+D)Z AUX)
    Blend: AUG-CC-PVQZ-JKFIT
    Number of shells: 88
    Number of basis function: 370
    Number of Cartesian functions: 501
    Spherical Harmonics?: true
    Max angular momentum: 5

  Cached 100.0% of DFT collocation blocks in 0.531 [GiB].

  Minimum eigenvalue in the overlap matrix is 2.6361473416E-05.
  Using Symmetric Orthogonalization.

  SCF Guess: Superposition of Atomic Densities via on-the-fly atomic UHF.

  ==> Iterations <==

                           Total Energy        Delta E     RMS |[F,P]|

   @DF-RKS iter SAD:   -25.91022256590970   -2.59102e+01   0.00000e+00 
   @DF-RKS iter   1:   -26.59157230860303   -6.81350e-01   7.38557e-04 DIIS
   @DF-RKS iter   2:   -26.60590387225709   -1.43316e-02   2.25107e-04 DIIS
   @DF-RKS iter   3:   -26.60727873937643   -1.37487e-03   2.61767e-05 DIIS
   @DF-RKS iter   4:   -26.60732341819325   -4.46788e-05   4.31588e-06 DIIS
   @DF-RKS iter   5:   -26.60732506377317   -1.64558e-06   5.62252e-07 DIIS
   @DF-RKS iter   6:   -26.60732508585343   -2.20803e-08   7.82684e-08 DIIS
   @DF-RKS iter   7:   -26.60732508637492   -5.21492e-10   6.75259e-09 DIIS
  Energy and wave function converged.


  ==> Post-Iterations <==

    Orbital Energies [Eh]
    ---------------------

    Doubly Occupied:                                                      

       1A     -6.859041     2A     -0.639116     3A     -0.461210  
       4A     -0.461157  

    Virtual:                                                              

       5A      0.005975     6A      0.031747     7A      0.040832  
       8A      0.040845     9A      0.063637    10A      0.081001  
      11A      0.081018    12A      0.105138    13A      0.127443  
      14A      0.127477    15A      0.131920    16A      0.139450  
      17A      0.139469    18A      0.208040    19A      0.208066  
      20A      0.232994    21A      0.247852    22A      0.260652  
      23A      0.270120    24A      0.270294    25A      0.270310  
      26A      0.279708    27A      0.279721    28A      0.305631  
      29A      0.305649    30A      0.307330    31A      0.373143  
      32A      0.416560    33A      0.416708    34A      0.447353  
      35A      0.447465    36A      0.483891    37A      0.514586  
      38A      0.514626    39A      0.546259    40A      0.546539  
      41A      0.558932    42A      0.573926    43A      0.574073  
      44A      0.586249    45A      0.591526    46A      0.695781  
      47A      0.707392    48A      0.734859    49A      0.734961  
      50A      0.755445    51A      0.778154    52A      0.778216  
      53A      0.783219    54A      0.783250    55A      0.828801  
      56A      0.851362    57A      0.851522    58A      0.892250  
      59A      0.892496    60A      0.906504    61A      0.906702  
      62A      0.911488    63A      0.916197    64A      0.964744  
      65A      1.092317    66A      1.092620    67A      1.130384  
      68A      1.130445    69A      1.154856    70A      1.208932  
      71A      1.231612    72A      1.231747    73A      1.236751  
      74A      1.455378    75A      1.455698    76A      1.463294  
      77A      1.464111    78A      1.464750    79A      1.490278  
      80A      1.514076    81A      1.514254    82A      1.550424  
      83A      1.563384    84A      1.563830    85A      1.625768  
      86A      1.626122    87A      1.633568    88A      1.757247  
      89A      1.757280    90A      1.758051    91A      1.758478  
      92A      1.761698    93A      1.791291    94A      1.849923  
      95A      1.875055    96A      1.875317    97A      1.924991  
      98A      1.960210    99A      1.960862   100A      1.963758  
     101A      1.988935   102A      2.080751   103A      2.081441  
     104A      2.083846   105A      2.085059   106A      2.139278  
     107A      2.139328   108A      2.175889   109A      2.176154  
     110A      2.177456   111A      2.189757   112A      2.204095  
     113A      2.204171   114A      2.274074   115A      2.275217  
     116A      2.305108   117A      2.335596   118A      2.336234  
     119A      2.653951   120A      2.783732   121A      2.784255  
     122A      2.899397   123A      3.015933   124A      3.016406  
     125A      3.086607   126A      3.087823   127A      3.150714  
     128A      3.151356   129A      3.229106   130A      3.238497  
     131A      3.240171   132A      3.240705   133A      3.252373  
     134A      3.308243   135A      3.310074   136A      3.390105  
     137A      3.457650   138A      3.458507   139A      3.528066  
     140A      3.528751   141A      3.645824   142A      3.773238  
     143A      3.891072   144A      4.039739   145A      4.040084  
     146A      4.064482   147A      4.064583   148A      4.085789  
     149A      4.145901   150A      4.206637   151A      4.209033  
     152A      4.224366   153A      4.274323   154A      4.274634  
     155A      4.432066   156A      4.432924   157A      4.651947  
     158A      4.749735   159A      5.007571   160A      5.011669  
     161A      5.159355   162A      5.162064   163A      5.176374  
     164A      5.279952   165A      5.291484   166A      5.293507  
     167A      5.370796   168A      6.129282   169A      6.129971  
     170A      6.506427   171A      6.564428   172A      6.564558  
     173A      6.715522   174A      6.729578   175A      6.731149  
     176A      6.978051   177A      6.981255   178A      7.321989  
     179A      7.353492   180A      7.354152   181A      7.622835  
     182A      7.624231   183A      7.631534   184A      7.633006  
     185A      7.680566   186A      7.819741   187A      7.958492  
     188A      7.959673   189A      8.019224   190A      8.029518  
     191A      8.224699   192A      8.395335   193A      8.397180  
     194A      8.721638   195A      8.721714   196A      8.860109  
     197A      8.862129   198A      8.897597   199A      8.913848  
     200A      8.914016   201A      8.956591   202A      9.148652  
     203A      9.197506   204A      9.236157   205A      9.237456  
     206A      9.238357   207A      9.403182   208A      9.463630  
     209A      9.468220   210A      9.706124   211A      9.825649  
     212A      9.831313   213A     10.289067   214A     10.290876  
     215A     10.390475   216A     11.287346   217A     11.293919  
     218A     18.968879  

    Final Occupation by Irrep:
              A 
    DOCC [     4 ]

  @DF-RKS Final Energy:   -26.60732508637492

   => Energetics <=

    Nuclear Repulsion Energy =              7.5122333032719073
    One-Electron Energy =                 -49.2466026326000659
    Two-Electron Energy =                  18.4243769709097158
    DFT Exchange-Correlation Energy =      -3.3311960126279092
    Empirical Dispersion Energy =           0.0000000000000000
    VV10 Nonlocal Energy =                  0.0338632846714366
    Total Energy =                        -26.6073250863749173

Computation Completed


Properties will be evaluated at   0.000000,   0.000000,   0.000000 [a0]

Properties computed using the SCF density matrix

  Nuclear Dipole Moment: [e a0]
     X:    -0.0001      Y:     0.0002      Z:    -0.0002

  Electronic Dipole Moment: [e a0]
     X:     0.0003      Y:     0.0003      Z:     0.0001

  Dipole Moment: [e a0]
     X:     0.0002      Y:     0.0004      Z:    -0.0001     Total:     0.0005

  Dipole Moment: [D]
     X:     0.0006      Y:     0.0011      Z:    -0.0003     Total:     0.0013


*** tstop() called on bp1-compute00115.data.bp.acrc.priv at Mon Apr 19 14:55:36 2021
Module time:
	user time   =     168.71 seconds =       2.81 minutes
	system time =      10.16 seconds =       0.17 minutes
	total time  =          6 seconds =       0.10 minutes
Total time:
	user time   =    2268.79 seconds =      37.81 minutes
	system time =     154.50 seconds =       2.58 minutes
	total time  =         73 seconds =       1.22 minutes

         ----------------------------------------------------------
                                   FINDIF
                     R. A. King and Jonathon Misiewicz
         ---------------------------------------------------------

  Computing gradient from energies.
    Using 3-point formula.
    Energy without displacement:  -26.6073674186
    Check energies below for precision!
    Forces are for mass-weighted, symmetry-adapted cartesians (in au).

     Coord      Energy(-1)        Energy(+1)            Force
        0    -26.6073663630    -26.6073664305     -0.0000067512
        1    -26.6073650264    -26.6073653064     -0.0000279987
        2    -26.6073656331    -26.6073653585      0.0000274643
        3    -26.6073966353    -26.6073333202      0.0063315057
        4    -26.6073891356    -26.6073410826      0.0048053070
        5    -26.6074043097    -26.6073250864      0.0079223348


-------------------------------------------------------------
  ## New Matrix (Symmetry 0) ##
  Irrep: 1 Size: 4 x 3

                 1                   2                   3

    1    -0.00001039786539    -0.00004312196287     0.00004229891149
    2     0.00220930026231     0.00570347621333    -0.00229823615823
    3     0.00094150069530    -0.00544982110422    -0.00341067045576
    4    -0.00314040309222    -0.00021053314623     0.00566660770250




			-----------------------------------------
			 OPTKING 2.0: for geometry optimizations 
			  - R.A. King,  Bethel University        
			-----------------------------------------

	Internal coordinates to be generated automatically.
	Detected frag 1 with atoms:  1 2 3 4
	---Fragment 1 Bond Connectivity---
	 1 : 2 3 4
	 2 : 1
	 3 : 1
	 4 : 1

	---Fragment 1 Geometry and Gradient---
	 B           0.0000139509       -0.0000285288        0.0000331403
	 H          -0.7552118994       -1.9460796797        0.7822987107
	 H          -0.3234323392        1.8717206920        1.1670938008
	 H           1.0784918414        0.0746706312       -1.9497545305
	            -0.0000103979       -0.0000431220        0.0000422989
	             0.0022093003        0.0057034762       -0.0022982362
	             0.0009415007       -0.0054498211       -0.0034106705
	            -0.0031404031       -0.0002105331        0.0056666077

	Previous optimization step data not found.  Starting new optimization.

	---Fragment 1 Intrafragment Coordinates---
	 - Coordinate -           - BOHR/RAD -       - ANG/DEG -
	 R(1,2)           =         2.229220	       1.179652
	 R(1,3)           =         2.229371	       1.179732
	 R(1,4)           =         2.229432	       1.179765
	 B(2,1,3)         =         2.094492	     120.005524
	 B(2,1,4)         =         2.094434	     120.002233
	 B(3,1,4)         =         2.094260	     119.992242

	Current energy   :       -26.6073674186

	Generating empirical Hessian (Schlegel '84) for each fragment.
	Taking RFO optimization step.
	Going to follow RFO solution 1.
	Using RFO vector 1.
	Norm of target step-size    0.49290
	Projected energy change by RFO approximation:        -0.0443574440

	Back-transformation to cartesian coordinates...
	Could not converge backtransformation.
	Using first guess instead.

	--- Internal Coordinate Step in ANG or DEG, aJ/ANG or AJ/DEG ---
	 ---------------------------------------------------------------------------
	   Coordinate                Previous        Force       Change         New 
	   ----------                --------       ------       ------       ------
	    1 R(1,2)          =      1.179652     0.053831  1449.548031  1450.727683
	    2 R(1,3)          =      1.179732     0.053532  1449.486894  1450.666627
	    3 R(1,4)          =      1.179765     0.053404  1449.464869  1450.644633
	    4 B(2,1,3)        =    120.005524     0.004567  -119.917458     0.088065
	    5 B(2,1,4)        =    120.002233     0.004568  -119.914168     0.088066
	    6 B(3,1,4)        =    119.992242     0.004569  -119.904175     0.088067
