
    -----------------------------------------------------------------------
          Psi4: An Open-Source Ab Initio Electronic Structure Package
                               Psi4 1.3.2 release

                         Git: Rev {HEAD} ecbda83 


    R. M. Parrish, L. A. Burns, D. G. A. Smith, A. C. Simmonett,
    A. E. DePrince III, E. G. Hohenstein, U. Bozkaya, A. Yu. Sokolov,
    R. Di Remigio, R. M. Richard, J. F. Gonthier, A. M. James,
    H. R. McAlexander, A. Kumar, M. Saitow, X. Wang, B. P. Pritchard,
    P. Verma, H. F. Schaefer III, K. Patkowski, R. A. King, E. F. Valeev,
    F. A. Evangelista, J. M. Turney, T. D. Crawford, and C. D. Sherrill,
    J. Chem. Theory Comput. 13(7) pp 3185--3197 (2017).
    (doi: 10.1021/acs.jctc.7b00174)


                         Additional Contributions by
    P. Kraus, H. Kruse, M. H. Lechner, M. C. Schieber, R. A. Shaw,
    A. Alenaizan, R. Galvelis, Z. L. Glick, S. Lehtola, and J. P. Misiewicz

    -----------------------------------------------------------------------


    Psi4 started on: Tuesday, 20 April 2021 11:01AM

    Process ID: 147567
    Host:       bp1-compute00151.data.bp.acrc.priv
    PSIDATADIR: /work/zw18965/.conda/envs/p4env/share/psi4
    Memory:     500.0 MiB
    Threads:    24
    
  ==> Input File <==

--------------------------------------------------------------------------
memory 144 GB

molecule {
0 1
C     0.000000000000   0.145395904951   0.000000000000
F     0.000000000000   0.927302045077  -1.034778476372
F     0.000000000000   0.927302045077   1.034778476372}

set basis aug-cc-pV(Q+d)Z
 
optimize("wB97X-V")
frequencies("wB97X-V")--------------------------------------------------------------------------

  Memory set to 134.110 GiB by Python driver.
gradient() will perform gradient computation by finite difference of analytic energies.

         ----------------------------------------------------------
                                   FINDIF
                     R. A. King and Jonathon Misiewicz
         ---------------------------------------------------------

  Using finite-differences of energies to determine gradients.
    Generating geometries for use with 3-point formula.
    Displacement size will be 5.00e-03.
    Number of atoms is 3.
    Number of symmetric SALCs is 2.
    Translations projected? 1. Rotations projected? 1.
    Number of geometries (including reference) is 5.

  //>>>>>>>>>>>>>>>>>>>>>>>>>>>>>>>>>>>//
  //    Loading displacement 1 of 5    //
  //<<<<<<<<<<<<<<<<<<<<<<<<<<<<<<<<<<<//

*** tstart() called on bp1-compute00151.data.bp.acrc.priv
*** at Tue Apr 20 11:01:42 2021

   => Loading Basis Set <=

    Name: AUG-CC-PV(Q+D)Z
    Role: ORBITAL
    Keyword: BASIS
    atoms 1   entry C          line   319 file /work/zw18965/.conda/envs/p4env/share/psi4/basis/aug-cc-pv_qpd_z.gbs 
    atoms 2-3 entry F          line   499 file /work/zw18965/.conda/envs/p4env/share/psi4/basis/aug-cc-pv_qpd_z.gbs 


         ---------------------------------------------------------
                                   SCF
               by Justin Turney, Rob Parrish, Andy Simmonett
                          and Daniel G. A. Smith
                              RKS Reference
                       24 Threads, 137329 MiB Core
         ---------------------------------------------------------

  ==> Geometry <==

    Molecular point group: c2v
    Full point group: C2v

    Geometry (in Angstrom), charge = 0, multiplicity = 1:

       Center              X                  Y                   Z               Mass       
    ------------   -----------------  -----------------  -----------------  -----------------
         C            0.000000000000     0.000000000000    -0.594236679392    12.000000000000
         F           -0.000000000000     1.034778476372     0.187669460734    18.998403162730
         F            0.000000000000    -1.034778476372     0.187669460734    18.998403162730

  Running in c2v symmetry.

  Rotational constants: A =      3.02344  B =      0.41434  C =      0.36440 [cm^-1]
  Rotational constants: A =  90640.41275  B =  12421.53681  C =  10924.43165 [MHz]
  Nuclear repulsion =   64.776323219259098

  Charge       = 0
  Multiplicity = 1
  Electrons    = 24
  Nalpha       = 12
  Nbeta        = 12

  ==> Algorithm <==

  SCF Algorithm Type is DF.
  DIIS enabled.
  MOM disabled.
  Fractional occupation disabled.
  Guess Type is SAD.
  Energy threshold   = 1.00e-08
  Density threshold  = 1.00e-08
  Integral threshold = 0.00e+00

  ==> Primary Basis <==

  Basis Set: AUG-CC-PV(Q+D)Z
    Blend: AUG-CC-PV(Q+D)Z
    Number of shells: 60
    Number of basis function: 240
    Number of Cartesian functions: 315
    Spherical Harmonics?: true
    Max angular momentum: 4

  ==> DFT Potential <==

   => Composite Functional: WB97X-V <= 

    wB97X-V Hyb-GGA Exchange-Correlation Functional

    N. Mardirossian and M. Head-Gordon, Phys. Chem. Chem. Phys. 16, 9904 (2014)

    Deriv               =              1
    GGA                 =           TRUE
    Meta                =          FALSE

    Exchange Hybrid     =           TRUE
    MP2 Hybrid          =          FALSE

   => Exchange-Correlation Functionals <=

    1.0000   wB97X-V range-separated functional

   => Exact (HF) Exchange <=

    0.8330            HF,LR [omega = 0.3000]
    0.1670               HF 

   => VV10 Non-Local Parameters <=

    VV10 B              =     6.0000E+00
    VV10 C              =     1.0000E-02

   => Molecular Quadrature <=

    Radial Scheme          =       TREUTLER
    Pruning Scheme         =           FLAT
    Nuclear Scheme         =       TREUTLER

    BS radius alpha        =              1
    Pruning alpha          =              1
    Radial Points          =             75
    Spherical Points       =            302
    Total Points           =          67950
    Total Blocks           =            590
    Max Points             =            256
    Max Functions          =            240

   => Loading Basis Set <=

    Name: (AUG-CC-PV(Q+D)Z AUX)
    Role: JKFIT
    Keyword: DF_BASIS_SCF
    atoms 1   entry C          line   178 file /work/zw18965/.conda/envs/p4env/share/psi4/basis/aug-cc-pvqz-jkfit.gbs 
    atoms 2-3 entry F          line   388 file /work/zw18965/.conda/envs/p4env/share/psi4/basis/aug-cc-pvqz-jkfit.gbs 

  ==> Pre-Iterations <==

   -------------------------------------------------------
    Irrep   Nso     Nmo     Nalpha   Nbeta   Ndocc  Nsocc
   -------------------------------------------------------
     A1        81      81       0       0       0       0
     A2        41      41       0       0       0       0
     B1        49      49       0       0       0       0
     B2        69      69       0       0       0       0
   -------------------------------------------------------
    Total     240     240      12      12      12       0
   -------------------------------------------------------

  ==> Integral Setup <==

  ==> DiskDFJK: Density-Fitted J/K Matrices <==

    J tasked:                  Yes
    K tasked:                  Yes
    wK tasked:                 Yes
    Omega:               3.000E-01
    OpenMP threads:             24
    Integrals threads:          24
    Memory [MiB]:           102593
    Algorithm:                Core
    Integral Cache:           NONE
    Schwarz Cutoff:          1E-12
    Fitting Condition:       1E-10

   => Auxiliary Basis Set <=

  Basis Set: (AUG-CC-PV(Q+D)Z AUX)
    Blend: AUG-CC-PVQZ-JKFIT
    Number of shells: 102
    Number of basis function: 426
    Number of Cartesian functions: 594
    Spherical Harmonics?: true
    Max angular momentum: 5

  Cached 100.0% of DFT collocation blocks in 0.394 [GiB].

  Minimum eigenvalue in the overlap matrix is 1.3034648930E-04.
  Using Symmetric Orthogonalization.

  SCF Guess: Superposition of Atomic Densities via on-the-fly atomic UHF.

  ==> Iterations <==

                           Total Energy        Delta E     RMS |[F,P]|

   @DF-RKS iter SAD:  -237.22672353481289   -2.37227e+02   0.00000e+00 
   @DF-RKS iter   1:  -237.70440540925185   -4.77682e-01   2.61953e-03 DIIS
   @DF-RKS iter   2:  -237.71392521299077   -9.51980e-03   2.46840e-03 DIIS
   @DF-RKS iter   3:  -237.73673270596936   -2.28075e-02   3.13883e-04 DIIS
   @DF-RKS iter   4:  -237.73724491239872   -5.12206e-04   4.62107e-05 DIIS
   @DF-RKS iter   5:  -237.73727512612646   -3.02137e-05   8.37783e-06 DIIS
   @DF-RKS iter   6:  -237.73727632086965   -1.19474e-06   1.91848e-06 DIIS
   @DF-RKS iter   7:  -237.73727639199686   -7.11272e-08   4.10698e-07 DIIS
   @DF-RKS iter   8:  -237.73727639504455   -3.04769e-09   1.05521e-07 DIIS
   @DF-RKS iter   9:  -237.73727639518719   -1.42649e-10   2.12183e-08 DIIS
   @DF-RKS iter  10:  -237.73727639519541   -8.21387e-12   4.69859e-09 DIIS
  Energy and wave function converged.


  ==> Post-Iterations <==

    Orbital Energies [Eh]
    ---------------------

    Doubly Occupied:                                                      

       1B2   -24.842317     1A1   -24.842305     2A1   -10.478322  
       3A1    -1.478392     2B2    -1.402011     4A1    -0.837434  
       3B2    -0.727482     1B1    -0.683383     5A1    -0.677958  
       1A2    -0.601505     4B2    -0.576523     6A1    -0.418028  

    Virtual:                                                              

       2B1     0.007646     7A1     0.061174     5B2     0.068845  
       8A1     0.075764     3B1     0.076330     6B2     0.155003  
       9A1     0.176740    10A1     0.187113     2A2     0.190176  
       4B1     0.198247     7B2     0.212592    11A1     0.227922  
       8B2     0.247602     5B1     0.266700    12A1     0.278684  
       3A2     0.301444    13A1     0.310902     9B2     0.336725  
      10B2     0.369467    14A1     0.377271     6B1     0.390664  
      15A1     0.435896    11B2     0.493394    16A1     0.554128  
       7B1     0.593325    17A1     0.639772     4A2     0.666471  
      12B2     0.709632    13B2     0.714525    18A1     0.726953  
       8B1     0.730607     5A2     0.746008    19A1     0.748102  
       9B1     0.765141    14B2     0.797450    20A1     0.806846  
       6A2     0.821151    21A1     0.852069    10B1     0.867113  
      15B2     0.871255    22A1     0.897793    16B2     0.915475  
       7A2     0.929520    11B1     0.955967    12B1     0.985955  
      23A1     0.995496    17B2     1.014405    24A1     1.039320  
      18B2     1.122124     8A2     1.178321    25A1     1.249677  
      19B2     1.336882    26A1     1.443815    20B2     1.606772  
      13B1     1.645474    27A1     1.676126    14B1     1.711926  
      28A1     1.777999    15B1     1.804237    21B2     1.806484  
      29A1     1.818247     9A2     1.819576    10A2     1.877148  
      22B2     1.879888    11A2     1.940808    30A1     1.957454  
      16B1     1.980439    23B2     1.986218    17B1     2.005139  
      24B2     2.007273    31A1     2.025742    32A1     2.065504  
      25B2     2.067644    12A2     2.120675    18B1     2.136802  
      33A1     2.207155    19B1     2.217120    34A1     2.219661  
      26B2     2.269995    13A2     2.273884    35A1     2.315625  
      27B2     2.340893    14A2     2.384671    20B1     2.415260  
      36A1     2.417081    37A1     2.496127    28B2     2.568790  
      38A1     2.579638    21B1     2.584974    15A2     2.673598  
      29B2     2.727051    30B2     2.784928    22B1     2.828346  
      16A2     2.842423    39A1     2.888339    31B2     2.888799  
      32B2     2.932370    17A2     2.997127    40A1     3.034141  
      23B1     3.035919    41A1     3.156994    33B2     3.225653  
      42A1     3.604454    43A1     3.979144    24B1     4.029470  
      18A2     4.069873    34B2     4.298820    44A1     4.412325  
      25B1     4.414647    45A1     4.477976    35B2     4.506322  
      19A2     4.591549    36B2     4.596190    26B1     4.698457  
      37B2     4.728534    20A2     4.738778    27B1     4.798922  
      46A1     4.801941    38B2     4.825267    47A1     4.840638  
      48A1     4.876737    21A2     4.882487    28B1     4.949691  
      22A2     5.055980    39B2     5.063353    49A1     5.077149  
      29B1     5.185902    40B2     5.199153    50A1     5.260320  
      23A2     5.270178    41B2     5.331727    42B2     5.353314  
      51A1     5.377881    43B2     5.382452    30B1     5.391556  
      52A1     5.424736    31B1     5.452226    24A2     5.472767  
      25A2     5.611951    32B1     5.615689    53A1     5.670737  
      44B2     5.686318    26A2     5.712038    54A1     5.783047  
      45B2     5.822537    33B1     5.882188    55A1     5.893070  
      34B1     5.994384    56A1     5.996801    27A2     6.021567  
      46B2     6.024533    47B2     6.143459    57A1     6.154394  
      48B2     6.230311    35B1     6.245008    58A1     6.284744  
      59A1     6.328626    36B1     6.478913    28A2     6.486305  
      49B2     6.502852    60A1     6.511124    50B2     6.748938  
      37B1     6.797905    29A2     6.931881    38B1     6.965877  
      30A2     7.061228    61A1     7.122961    62A1     7.289782  
      51B2     7.403319    63A1     7.460695    39B1     8.144198  
      31A2     8.191415    64A1     8.196354    52B2     8.260227  
      53B2     8.718464    65A1     8.941259    54B2     9.111386  
      40B1    13.051043    66A1    13.059763    32A2    13.075046  
      55B2    13.142492    41B1    13.144021    33A2    13.175558  
      67A1    13.213690    42B1    13.251226    56B2    13.280350  
      68A1    13.325700    34A2    13.493868    69A1    13.510707  
      57B2    13.535985    35A2    13.537890    43B1    13.540093  
      70A1    13.560422    44B1    13.584592    36A2    13.586527  
      58B2    13.616099    59B2    13.707374    71A1    13.732733  
      60B2    14.033972    72A1    14.174347    61B2    14.193618  
      45B1    15.221624    73A1    15.239894    62B2    15.253846  
      37A2    15.262746    63B2    15.411609    46B1    15.438808  
      38A2    15.439472    74A1    15.559060    75A1    15.701209  
      47B1    15.838995    39A2    15.929617    64B2    15.961698  
      76A1    16.039173    65B2    16.235414    48B1    16.253186  
      40A2    16.288433    66B2    16.308459    77A1    16.424534  
      78A1    16.595452    41A2    16.638947    49B1    16.639636  
      67B2    16.995736    68B2    17.310310    79A1    17.397916  
      80A1    24.449368    81A1    54.123558    69B2    54.147615  

    Final Occupation by Irrep:
             A1    A2    B1    B2 
    DOCC [     6,    1,    1,    4 ]

  @DF-RKS Final Energy:  -237.73727639519541

   => Energetics <=

    Nuclear Repulsion Energy =             64.7763232192590976
    One-Electron Energy =                -457.1936905262384698
    Two-Electron Energy =                 173.4291932568777383
    DFT Exchange-Correlation Energy =     -18.8497441451306926
    Empirical Dispersion Energy =           0.0000000000000000
    VV10 Nonlocal Energy =                  0.1006418000369277
    Total Energy =                       -237.7372763951954084

Computation Completed


Properties will be evaluated at   0.000000,   0.000000,   0.000000 [a0]

Properties computed using the SCF density matrix

  Nuclear Dipole Moment: [e a0]
     X:     0.0000      Y:     0.0000      Z:    -0.3541

  Electronic Dipole Moment: [e a0]
     X:     0.0000      Y:     0.0000      Z:     0.6137

  Dipole Moment: [e a0]
     X:     0.0000      Y:     0.0000      Z:     0.2596     Total:     0.2596

  Dipole Moment: [D]
     X:     0.0000      Y:     0.0000      Z:     0.6598     Total:     0.6598


*** tstop() called on bp1-compute00151.data.bp.acrc.priv at Tue Apr 20 11:01:49 2021
Module time:
	user time   =     114.71 seconds =       1.91 minutes
	system time =       6.11 seconds =       0.10 minutes
	total time  =          7 seconds =       0.12 minutes
Total time:
	user time   =     114.71 seconds =       1.91 minutes
	system time =       6.11 seconds =       0.10 minutes
	total time  =          7 seconds =       0.12 minutes

  //>>>>>>>>>>>>>>>>>>>>>>>>>>>>>>>>>>>//
  //    Loading displacement 2 of 5    //
  //<<<<<<<<<<<<<<<<<<<<<<<<<<<<<<<<<<<//

*** tstart() called on bp1-compute00151.data.bp.acrc.priv
*** at Tue Apr 20 11:01:49 2021

   => Loading Basis Set <=

    Name: AUG-CC-PV(Q+D)Z
    Role: ORBITAL
    Keyword: BASIS
    atoms 1   entry C          line   319 file /work/zw18965/.conda/envs/p4env/share/psi4/basis/aug-cc-pv_qpd_z.gbs 
    atoms 2-3 entry F          line   499 file /work/zw18965/.conda/envs/p4env/share/psi4/basis/aug-cc-pv_qpd_z.gbs 


         ---------------------------------------------------------
                                   SCF
               by Justin Turney, Rob Parrish, Andy Simmonett
                          and Daniel G. A. Smith
                              RKS Reference
                       24 Threads, 137329 MiB Core
         ---------------------------------------------------------

  ==> Geometry <==

    Molecular point group: c2v
    Full point group: C2v

    Geometry (in Angstrom), charge = 0, multiplicity = 1:

       Center              X                  Y                   Z               Mass       
    ------------   -----------------  -----------------  -----------------  -----------------
         C            0.000000000000     0.000000000000    -0.594902539398    12.000000000000
         F           -0.000000000000     1.034778476372     0.187879749988    18.998403162730
         F            0.000000000000    -1.034778476372     0.187879749988    18.998403162730

  Running in c2v symmetry.

  Rotational constants: A =      3.01667  B =      0.41434  C =      0.36430 [cm^-1]
  Rotational constants: A =  90437.62306  B =  12421.53681  C =  10921.48006 [MHz]
  Nuclear repulsion =   64.758378326607811

  Charge       = 0
  Multiplicity = 1
  Electrons    = 24
  Nalpha       = 12
  Nbeta        = 12

  ==> Algorithm <==

  SCF Algorithm Type is DF.
  DIIS enabled.
  MOM disabled.
  Fractional occupation disabled.
  Guess Type is SAD.
  Energy threshold   = 1.00e-08
  Density threshold  = 1.00e-08
  Integral threshold = 0.00e+00

  ==> Primary Basis <==

  Basis Set: AUG-CC-PV(Q+D)Z
    Blend: AUG-CC-PV(Q+D)Z
    Number of shells: 60
    Number of basis function: 240
    Number of Cartesian functions: 315
    Spherical Harmonics?: true
    Max angular momentum: 4

  ==> DFT Potential <==

   => Composite Functional: WB97X-V <= 

    wB97X-V Hyb-GGA Exchange-Correlation Functional

    N. Mardirossian and M. Head-Gordon, Phys. Chem. Chem. Phys. 16, 9904 (2014)

    Deriv               =              1
    GGA                 =           TRUE
    Meta                =          FALSE

    Exchange Hybrid     =           TRUE
    MP2 Hybrid          =          FALSE

   => Exchange-Correlation Functionals <=

    1.0000   wB97X-V range-separated functional

   => Exact (HF) Exchange <=

    0.8330            HF,LR [omega = 0.3000]
    0.1670               HF 

   => VV10 Non-Local Parameters <=

    VV10 B              =     6.0000E+00
    VV10 C              =     1.0000E-02

   => Molecular Quadrature <=

    Radial Scheme          =       TREUTLER
    Pruning Scheme         =           FLAT
    Nuclear Scheme         =       TREUTLER

    BS radius alpha        =              1
    Pruning alpha          =              1
    Radial Points          =             75
    Spherical Points       =            302
    Total Points           =          67950
    Total Blocks           =            590
    Max Points             =            255
    Max Functions          =            240

   => Loading Basis Set <=

    Name: (AUG-CC-PV(Q+D)Z AUX)
    Role: JKFIT
    Keyword: DF_BASIS_SCF
    atoms 1   entry C          line   178 file /work/zw18965/.conda/envs/p4env/share/psi4/basis/aug-cc-pvqz-jkfit.gbs 
    atoms 2-3 entry F          line   388 file /work/zw18965/.conda/envs/p4env/share/psi4/basis/aug-cc-pvqz-jkfit.gbs 

  ==> Pre-Iterations <==

   -------------------------------------------------------
    Irrep   Nso     Nmo     Nalpha   Nbeta   Ndocc  Nsocc
   -------------------------------------------------------
     A1        81      81       0       0       0       0
     A2        41      41       0       0       0       0
     B1        49      49       0       0       0       0
     B2        69      69       0       0       0       0
   -------------------------------------------------------
    Total     240     240      12      12      12       0
   -------------------------------------------------------

  ==> Integral Setup <==

  ==> DiskDFJK: Density-Fitted J/K Matrices <==

    J tasked:                  Yes
    K tasked:                  Yes
    wK tasked:                 Yes
    Omega:               3.000E-01
    OpenMP threads:             24
    Integrals threads:          24
    Memory [MiB]:           102593
    Algorithm:                Core
    Integral Cache:           NONE
    Schwarz Cutoff:          1E-12
    Fitting Condition:       1E-10

   => Auxiliary Basis Set <=

  Basis Set: (AUG-CC-PV(Q+D)Z AUX)
    Blend: AUG-CC-PVQZ-JKFIT
    Number of shells: 102
    Number of basis function: 426
    Number of Cartesian functions: 594
    Spherical Harmonics?: true
    Max angular momentum: 5

  Cached 100.0% of DFT collocation blocks in 0.394 [GiB].

  Minimum eigenvalue in the overlap matrix is 1.3056980054E-04.
  Using Symmetric Orthogonalization.

  SCF Guess: Superposition of Atomic Densities via on-the-fly atomic UHF.

  ==> Iterations <==

                           Total Energy        Delta E     RMS |[F,P]|

   @DF-RKS iter SAD:  -237.22514871986397   -2.37225e+02   0.00000e+00 
   @DF-RKS iter   1:  -237.70437963588438   -4.79231e-01   2.62145e-03 DIIS
   @DF-RKS iter   2:  -237.71382710775811   -9.44747e-03   2.47370e-03 DIIS
   @DF-RKS iter   3:  -237.73674821464309   -2.29211e-02   3.13600e-04 DIIS
   @DF-RKS iter   4:  -237.73725963322835   -5.11419e-04   4.61810e-05 DIIS
   @DF-RKS iter   5:  -237.73728979522230   -3.01620e-05   8.35217e-06 DIIS
   @DF-RKS iter   6:  -237.73729098494249   -1.18972e-06   1.90871e-06 DIIS
   @DF-RKS iter   7:  -237.73729105542344   -7.04810e-08   4.01757e-07 DIIS
   @DF-RKS iter   8:  -237.73729105838541   -2.96197e-09   1.03694e-07 DIIS
   @DF-RKS iter   9:  -237.73729105852254   -1.37135e-10   2.10515e-08 DIIS
   @DF-RKS iter  10:  -237.73729105853067   -8.12861e-12   4.69091e-09 DIIS
  Energy and wave function converged.


  ==> Post-Iterations <==

    Orbital Energies [Eh]
    ---------------------

    Doubly Occupied:                                                      

       1B2   -24.842219     1A1   -24.842206     2A1   -10.478506  
       3A1    -1.478112     2B2    -1.401737     4A1    -0.837344  
       3B2    -0.727243     1B1    -0.683172     5A1    -0.677790  
       1A2    -0.601355     4B2    -0.576345     6A1    -0.418294  

    Virtual:                                                              

       2B1     0.007447     7A1     0.061191     5B2     0.068837  
       8A1     0.075749     3B1     0.076323     6B2     0.154996  
       9A1     0.176791    10A1     0.187095     2A2     0.190217  
       4B1     0.198248     7B2     0.212423    11A1     0.227871  
       8B2     0.247595     5B1     0.266732    12A1     0.278708  
       3A2     0.301375    13A1     0.310849     9B2     0.336547  
      10B2     0.369237    14A1     0.376980     6B1     0.390690  
      15A1     0.435826    11B2     0.493291    16A1     0.554094  
       7B1     0.593264    17A1     0.639820     4A2     0.666496  
      12B2     0.709698    13B2     0.714504    18A1     0.726950  
       8B1     0.730578     5A2     0.745961    19A1     0.747975  
       9B1     0.765162    14B2     0.797398    20A1     0.806868  
       6A2     0.821182    21A1     0.852006    10B1     0.866997  
      15B2     0.871167    22A1     0.897804    16B2     0.915618  
       7A2     0.929433    11B1     0.956018    12B1     0.985840  
      23A1     0.995485    17B2     1.014300    24A1     1.039341  
      18B2     1.122072     8A2     1.178340    25A1     1.249360  
      19B2     1.336880    26A1     1.443577    20B2     1.606759  
      13B1     1.645236    27A1     1.676001    14B1     1.711685  
      28A1     1.777862    15B1     1.804239    21B2     1.806361  
      29A1     1.818378     9A2     1.819850    10A2     1.877111  
      22B2     1.880001    11A2     1.940662    30A1     1.957564  
      16B1     1.980267    23B2     1.986021    17B1     2.005203  
      24B2     2.007454    31A1     2.025721    32A1     2.065283  
      25B2     2.067625    12A2     2.120407    18B1     2.136497  
      33A1     2.207207    19B1     2.217096    34A1     2.219668  
      26B2     2.269706    13A2     2.273638    35A1     2.315405  
      27B2     2.340449    14A2     2.384789    20B1     2.414870  
      36A1     2.416634    37A1     2.496372    28B2     2.568926  
      38A1     2.579439    21B1     2.584980    15A2     2.673587  
      29B2     2.727190    30B2     2.785202    22B1     2.828606  
      16A2     2.842247    39A1     2.887732    31B2     2.888425  
      32B2     2.931647    17A2     2.996260    40A1     3.034219  
      23B1     3.035462    41A1     3.155601    33B2     3.224541  
      42A1     3.602925    43A1     3.978489    24B1     4.028336  
      18A2     4.069118    34B2     4.297961    44A1     4.412425  
      25B1     4.414114    45A1     4.478012    35B2     4.506649  
      19A2     4.591661    36B2     4.596130    26B1     4.698442  
      37B2     4.728308    20A2     4.738564    27B1     4.797877  
      46A1     4.802097    38B2     4.825013    47A1     4.840402  
      48A1     4.875962    21A2     4.882050    28B1     4.949484  
      22A2     5.056191    39B2     5.063199    49A1     5.076804  
      29B1     5.186177    40B2     5.198973    50A1     5.260189  
      23A2     5.270385    41B2     5.331664    42B2     5.353517  
      51A1     5.377538    43B2     5.381683    30B1     5.391639  
      52A1     5.424897    31B1     5.452056    24A2     5.472614  
      25A2     5.611905    32B1     5.616217    53A1     5.670906  
      44B2     5.685077    26A2     5.711823    54A1     5.782715  
      45B2     5.822032    33B1     5.881474    55A1     5.892376  
      34B1     5.993865    56A1     5.996726    27A2     6.020997  
      46B2     6.024020    47B2     6.143928    57A1     6.153897  
      48B2     6.230278    35B1     6.245313    58A1     6.284198  
      59A1     6.327118    36B1     6.478487    28A2     6.485799  
      49B2     6.503108    60A1     6.509793    50B2     6.747712  
      37B1     6.796762    29A2     6.929524    38B1     6.964648  
      30A2     7.059693    61A1     7.121978    62A1     7.288573  
      51B2     7.401981    63A1     7.459616    39B1     8.142104  
      31A2     8.190010    64A1     8.193995    52B2     8.258701  
      53B2     8.717191    65A1     8.939602    54B2     9.108285  
      40B1    13.050792    66A1    13.059181    32A2    13.073982  
      55B2    13.142421    41B1    13.142893    33A2    13.175414  
      67A1    13.213274    42B1    13.250767    56B2    13.280464  
      68A1    13.325238    34A2    13.493893    69A1    13.510381  
      57B2    13.535130    35A2    13.537972    43B1    13.539888  
      70A1    13.560146    44B1    13.584416    36A2    13.586578  
      58B2    13.615746    59B2    13.707131    71A1    13.732342  
      60B2    14.032994    72A1    14.174544    61B2    14.193178  
      45B1    15.221665    73A1    15.239944    62B2    15.253985  
      37A2    15.262835    63B2    15.411462    46B1    15.438633  
      38A2    15.439237    74A1    15.558510    75A1    15.701069  
      47B1    15.838217    39A2    15.928571    64B2    15.960952  
      76A1    16.038241    65B2    16.234199    48B1    16.252760  
      40A2    16.287754    66B2    16.308531    77A1    16.423228  
      78A1    16.595445    41A2    16.639156    49B1    16.639638  
      67B2    16.995667    68B2    17.308635    79A1    17.395762  
      80A1    24.442887    81A1    54.121449    69B2    54.146141  

    Final Occupation by Irrep:
             A1    A2    B1    B2 
    DOCC [     6,    1,    1,    4 ]

  @DF-RKS Final Energy:  -237.73729105853067

   => Energetics <=

    Nuclear Repulsion Energy =             64.7583783266078115
    One-Electron Energy =                -457.1607696679171795
    Two-Electron Energy =                 173.4137824193153676
    DFT Exchange-Correlation Energy =     -18.8493245191457319
    Empirical Dispersion Energy =           0.0000000000000000
    VV10 Nonlocal Energy =                  0.1006423826090347
    Total Energy =                       -237.7372910585306727

Computation Completed


Properties will be evaluated at   0.000000,   0.000000,   0.000000 [a0]

Properties computed using the SCF density matrix

  Nuclear Dipole Moment: [e a0]
     X:     0.0000      Y:     0.0000      Z:    -0.3545

  Electronic Dipole Moment: [e a0]
     X:     0.0000      Y:     0.0000      Z:     0.6124

  Dipole Moment: [e a0]
     X:     0.0000      Y:     0.0000      Z:     0.2579     Total:     0.2579

  Dipole Moment: [D]
     X:     0.0000      Y:     0.0000      Z:     0.6555     Total:     0.6555


*** tstop() called on bp1-compute00151.data.bp.acrc.priv at Tue Apr 20 11:01:55 2021
Module time:
	user time   =     121.99 seconds =       2.03 minutes
	system time =       4.63 seconds =       0.08 minutes
	total time  =          6 seconds =       0.10 minutes
Total time:
	user time   =     236.86 seconds =       3.95 minutes
	system time =      10.75 seconds =       0.18 minutes
	total time  =         13 seconds =       0.22 minutes

  //>>>>>>>>>>>>>>>>>>>>>>>>>>>>>>>>>>>//
  //    Loading displacement 3 of 5    //
  //<<<<<<<<<<<<<<<<<<<<<<<<<<<<<<<<<<<//

*** tstart() called on bp1-compute00151.data.bp.acrc.priv
*** at Tue Apr 20 11:01:55 2021

   => Loading Basis Set <=

    Name: AUG-CC-PV(Q+D)Z
    Role: ORBITAL
    Keyword: BASIS
    atoms 1   entry C          line   319 file /work/zw18965/.conda/envs/p4env/share/psi4/basis/aug-cc-pv_qpd_z.gbs 
    atoms 2-3 entry F          line   499 file /work/zw18965/.conda/envs/p4env/share/psi4/basis/aug-cc-pv_qpd_z.gbs 


         ---------------------------------------------------------
                                   SCF
               by Justin Turney, Rob Parrish, Andy Simmonett
                          and Daniel G. A. Smith
                              RKS Reference
                       24 Threads, 137329 MiB Core
         ---------------------------------------------------------

  ==> Geometry <==

    Molecular point group: c2v
    Full point group: C2v

    Geometry (in Angstrom), charge = 0, multiplicity = 1:

       Center              X                  Y                   Z               Mass       
    ------------   -----------------  -----------------  -----------------  -----------------
         C            0.000000000000     0.000000000000    -0.593570819387    12.000000000000
         F           -0.000000000000     1.034778476372     0.187459171480    18.998403162730
         F            0.000000000000    -1.034778476372     0.187459171480    18.998403162730

  Running in c2v symmetry.

  Rotational constants: A =      3.03023  B =      0.41434  C =      0.36450 [cm^-1]
  Rotational constants: A =  90843.88528  B =  12421.53681  C =  10927.38152 [MHz]
  Nuclear repulsion =   64.794269928808788

  Charge       = 0
  Multiplicity = 1
  Electrons    = 24
  Nalpha       = 12
  Nbeta        = 12

  ==> Algorithm <==

  SCF Algorithm Type is DF.
  DIIS enabled.
  MOM disabled.
  Fractional occupation disabled.
  Guess Type is SAD.
  Energy threshold   = 1.00e-08
  Density threshold  = 1.00e-08
  Integral threshold = 0.00e+00

  ==> Primary Basis <==

  Basis Set: AUG-CC-PV(Q+D)Z
    Blend: AUG-CC-PV(Q+D)Z
    Number of shells: 60
    Number of basis function: 240
    Number of Cartesian functions: 315
    Spherical Harmonics?: true
    Max angular momentum: 4

  ==> DFT Potential <==

   => Composite Functional: WB97X-V <= 

    wB97X-V Hyb-GGA Exchange-Correlation Functional

    N. Mardirossian and M. Head-Gordon, Phys. Chem. Chem. Phys. 16, 9904 (2014)

    Deriv               =              1
    GGA                 =           TRUE
    Meta                =          FALSE

    Exchange Hybrid     =           TRUE
    MP2 Hybrid          =          FALSE

   => Exchange-Correlation Functionals <=

    1.0000   wB97X-V range-separated functional

   => Exact (HF) Exchange <=

    0.8330            HF,LR [omega = 0.3000]
    0.1670               HF 

   => VV10 Non-Local Parameters <=

    VV10 B              =     6.0000E+00
    VV10 C              =     1.0000E-02

   => Molecular Quadrature <=

    Radial Scheme          =       TREUTLER
    Pruning Scheme         =           FLAT
    Nuclear Scheme         =       TREUTLER

    BS radius alpha        =              1
    Pruning alpha          =              1
    Radial Points          =             75
    Spherical Points       =            302
    Total Points           =          67950
    Total Blocks           =            592
    Max Points             =            256
    Max Functions          =            240

   => Loading Basis Set <=

    Name: (AUG-CC-PV(Q+D)Z AUX)
    Role: JKFIT
    Keyword: DF_BASIS_SCF
    atoms 1   entry C          line   178 file /work/zw18965/.conda/envs/p4env/share/psi4/basis/aug-cc-pvqz-jkfit.gbs 
    atoms 2-3 entry F          line   388 file /work/zw18965/.conda/envs/p4env/share/psi4/basis/aug-cc-pvqz-jkfit.gbs 

  ==> Pre-Iterations <==

   -------------------------------------------------------
    Irrep   Nso     Nmo     Nalpha   Nbeta   Ndocc  Nsocc
   -------------------------------------------------------
     A1        81      81       0       0       0       0
     A2        41      41       0       0       0       0
     B1        49      49       0       0       0       0
     B2        69      69       0       0       0       0
   -------------------------------------------------------
    Total     240     240      12      12      12       0
   -------------------------------------------------------

  ==> Integral Setup <==

  ==> DiskDFJK: Density-Fitted J/K Matrices <==

    J tasked:                  Yes
    K tasked:                  Yes
    wK tasked:                 Yes
    Omega:               3.000E-01
    OpenMP threads:             24
    Integrals threads:          24
    Memory [MiB]:           102593
    Algorithm:                Core
    Integral Cache:           NONE
    Schwarz Cutoff:          1E-12
    Fitting Condition:       1E-10

   => Auxiliary Basis Set <=

  Basis Set: (AUG-CC-PV(Q+D)Z AUX)
    Blend: AUG-CC-PVQZ-JKFIT
    Number of shells: 102
    Number of basis function: 426
    Number of Cartesian functions: 594
    Spherical Harmonics?: true
    Max angular momentum: 5

  Cached 100.0% of DFT collocation blocks in 0.394 [GiB].

  Minimum eigenvalue in the overlap matrix is 1.3012361535E-04.
  Using Symmetric Orthogonalization.

  SCF Guess: Superposition of Atomic Densities via on-the-fly atomic UHF.

  ==> Iterations <==

                           Total Energy        Delta E     RMS |[F,P]|

   @DF-RKS iter SAD:  -237.22829878316023   -2.37228e+02   0.00000e+00 
   @DF-RKS iter   1:  -237.70442946379086   -4.76131e-01   2.61762e-03 DIIS
   @DF-RKS iter   2:  -237.71402129008027   -9.59183e-03   2.46312e-03 DIIS
   @DF-RKS iter   3:  -237.73671586000617   -2.26946e-02   3.14165e-04 DIIS
   @DF-RKS iter   4:  -237.73722885376230   -5.12994e-04   4.62411e-05 DIIS
   @DF-RKS iter   5:  -237.73725911979980   -3.02660e-05   8.40423e-06 DIIS
   @DF-RKS iter   6:  -237.73726031966916   -1.19987e-06   1.92881e-06 DIIS
   @DF-RKS iter   7:  -237.73726039147584   -7.18067e-08   4.19604e-07 DIIS
   @DF-RKS iter   8:  -237.73726039461161   -3.13577e-09   1.07185e-07 DIIS
   @DF-RKS iter   9:  -237.73726039475991   -1.48304e-10   2.13776e-08 DIIS
   @DF-RKS iter  10:  -237.73726039476827   -8.35598e-12   4.70747e-09 DIIS
  Energy and wave function converged.


  ==> Post-Iterations <==

    Orbital Energies [Eh]
    ---------------------

    Doubly Occupied:                                                      

       1B2   -24.842416     1A1   -24.842403     2A1   -10.478138  
       3A1    -1.478672     2B2    -1.402286     4A1    -0.837524  
       3B2    -0.727722     1B1    -0.683594     5A1    -0.678127  
       1A2    -0.601654     4B2    -0.576701     6A1    -0.417762  

    Virtual:                                                              

       2B1     0.007845     7A1     0.061157     5B2     0.068852  
       8A1     0.075778     3B1     0.076338     6B2     0.155010  
       9A1     0.176689    10A1     0.187130     2A2     0.190136  
       4B1     0.198247     7B2     0.212761    11A1     0.227973  
       8B2     0.247609     5B1     0.266669    12A1     0.278659  
       3A2     0.301513    13A1     0.310954     9B2     0.336901  
      10B2     0.369700    14A1     0.377562     6B1     0.390638  
      15A1     0.435967    11B2     0.493497    16A1     0.554162  
       7B1     0.593385    17A1     0.639723     4A2     0.666446  
      12B2     0.709565    13B2     0.714547    18A1     0.726957  
       8B1     0.730635     5A2     0.746056    19A1     0.748229  
       9B1     0.765121    14B2     0.797502    20A1     0.806822  
       6A2     0.821119    21A1     0.852133    10B1     0.867229  
      15B2     0.871343    22A1     0.897782    16B2     0.915332  
       7A2     0.929607    11B1     0.955914    12B1     0.986073  
      23A1     0.995507    17B2     1.014511    24A1     1.039300  
      18B2     1.122176     8A2     1.178301    25A1     1.249996  
      19B2     1.336885    26A1     1.444054    20B2     1.606784  
      13B1     1.645712    27A1     1.676252    14B1     1.712168  
      28A1     1.778135    15B1     1.804234    21B2     1.806607  
      29A1     1.818115     9A2     1.819300    10A2     1.877185  
      22B2     1.879774    11A2     1.940955    30A1     1.957344  
      16B1     1.980611    23B2     1.986415    17B1     2.005075  
      24B2     2.007092    31A1     2.025762    32A1     2.065726  
      25B2     2.067664    12A2     2.120943    18B1     2.137108  
      33A1     2.207101    19B1     2.217143    34A1     2.219654  
      26B2     2.270284    13A2     2.274129    35A1     2.315846  
      27B2     2.341338    14A2     2.384553    20B1     2.415648  
      36A1     2.417528    37A1     2.495882    28B2     2.568652  
      38A1     2.579838    21B1     2.584967    15A2     2.673606  
      29B2     2.726911    30B2     2.784647    22B1     2.828086  
      16A2     2.842601    39A1     2.888946    31B2     2.889178  
      32B2     2.933096    17A2     2.997997    40A1     3.034063  
      23B1     3.036376    41A1     3.158388    33B2     3.226768  
      42A1     3.605978    43A1     3.979803    24B1     4.030605  
      18A2     4.070627    34B2     4.299674    44A1     4.412221  
      25B1     4.415182    45A1     4.477947    35B2     4.505997  
      19A2     4.591438    36B2     4.596249    26B1     4.698473  
      37B2     4.728760    20A2     4.738993    27B1     4.799969  
      46A1     4.801786    38B2     4.825522    47A1     4.840872  
      48A1     4.877512    21A2     4.882923    28B1     4.949898  
      22A2     5.055769    39B2     5.063501    49A1     5.077493  
      29B1     5.185628    40B2     5.199332    50A1     5.260449  
      23A2     5.269972    41B2     5.331789    42B2     5.353111  
      51A1     5.378225    43B2     5.383230    30B1     5.391469  
      52A1     5.424576    31B1     5.452399    24A2     5.472921  
      25A2     5.611992    32B1     5.615160    53A1     5.670564  
      44B2     5.687562    26A2     5.712255    54A1     5.783382  
      45B2     5.823037    33B1     5.882900    55A1     5.893758  
      34B1     5.994902    56A1     5.996877    27A2     6.022143  
      46B2     6.025045    47B2     6.142990    57A1     6.154888  
      48B2     6.230350    35B1     6.244703    58A1     6.285217  
      59A1     6.330204    36B1     6.479337    28A2     6.486809  
      49B2     6.502596    60A1     6.512458    50B2     6.750165  
      37B1     6.799046    29A2     6.934235    38B1     6.967109  
      30A2     7.062771    61A1     7.123934    62A1     7.290997  
      51B2     7.404658    63A1     7.461784    39B1     8.146294  
      31A2     8.192817    64A1     8.198724    52B2     8.261747  
      53B2     8.719734    65A1     8.942903    54B2     9.114495  
      40B1    13.051289    66A1    13.060339    32A2    13.076103  
      55B2    13.142563    41B1    13.145151    33A2    13.175709  
      67A1    13.214110    42B1    13.251688    56B2    13.280236  
      68A1    13.326167    34A2    13.493840    69A1    13.511033  
      57B2    13.536831    35A2    13.537809    43B1    13.540301  
      70A1    13.560700    44B1    13.584768    36A2    13.586475  
      58B2    13.616456    59B2    13.707615    71A1    13.733123  
      60B2    14.034956    72A1    14.174150    61B2    14.194062  
      45B1    15.221583    73A1    15.239844    62B2    15.253708  
      37A2    15.262657    63B2    15.411757    46B1    15.438984  
      38A2    15.439709    74A1    15.559611    75A1    15.701356  
      47B1    15.839771    39A2    15.930662    64B2    15.962443  
      76A1    16.040110    65B2    16.236630    48B1    16.253613  
      40A2    16.289114    66B2    16.308388    77A1    16.425841  
      78A1    16.595460    41A2    16.638738    49B1    16.639636  
      67B2    16.995809    68B2    17.311987    79A1    17.400063  
      80A1    24.455847    81A1    54.125666    69B2    54.149090  

    Final Occupation by Irrep:
             A1    A2    B1    B2 
    DOCC [     6,    1,    1,    4 ]

  @DF-RKS Final Energy:  -237.73726039476827

   => Energetics <=

    Nuclear Repulsion Energy =             64.7942699288087880
    One-Electron Energy =                -457.2266118569079936
    Two-Electron Energy =                 173.4446042280686697
    DFT Exchange-Correlation Energy =     -18.8501639121563116
    Empirical Dispersion Energy =           0.0000000000000000
    VV10 Nonlocal Energy =                  0.1006412174185983
    Total Energy =                       -237.7372603947682705

Computation Completed


Properties will be evaluated at   0.000000,   0.000000,   0.000000 [a0]

Properties computed using the SCF density matrix

  Nuclear Dipole Moment: [e a0]
     X:     0.0000      Y:     0.0000      Z:    -0.3537

  Electronic Dipole Moment: [e a0]
     X:     0.0000      Y:     0.0000      Z:     0.6150

  Dipole Moment: [e a0]
     X:     0.0000      Y:     0.0000      Z:     0.2613     Total:     0.2613

  Dipole Moment: [D]
     X:     0.0000      Y:     0.0000      Z:     0.6642     Total:     0.6642


*** tstop() called on bp1-compute00151.data.bp.acrc.priv at Tue Apr 20 11:02:00 2021
Module time:
	user time   =     114.99 seconds =       1.92 minutes
	system time =       3.67 seconds =       0.06 minutes
	total time  =          5 seconds =       0.08 minutes
Total time:
	user time   =     352.00 seconds =       5.87 minutes
	system time =      14.42 seconds =       0.24 minutes
	total time  =         18 seconds =       0.30 minutes

  //>>>>>>>>>>>>>>>>>>>>>>>>>>>>>>>>>>>//
  //    Loading displacement 4 of 5    //
  //<<<<<<<<<<<<<<<<<<<<<<<<<<<<<<<<<<<//

*** tstart() called on bp1-compute00151.data.bp.acrc.priv
*** at Tue Apr 20 11:02:00 2021

   => Loading Basis Set <=

    Name: AUG-CC-PV(Q+D)Z
    Role: ORBITAL
    Keyword: BASIS
    atoms 1   entry C          line   319 file /work/zw18965/.conda/envs/p4env/share/psi4/basis/aug-cc-pv_qpd_z.gbs 
    atoms 2-3 entry F          line   499 file /work/zw18965/.conda/envs/p4env/share/psi4/basis/aug-cc-pv_qpd_z.gbs 


         ---------------------------------------------------------
                                   SCF
               by Justin Turney, Rob Parrish, Andy Simmonett
                          and Daniel G. A. Smith
                              RKS Reference
                       24 Threads, 137329 MiB Core
         ---------------------------------------------------------

  ==> Geometry <==

    Molecular point group: c2v
    Full point group: C2v

    Geometry (in Angstrom), charge = 0, multiplicity = 1:

       Center              X                  Y                   Z               Mass       
    ------------   -----------------  -----------------  -----------------  -----------------
         C           -0.000000000000     0.000000000000    -0.594236679392    12.000000000000
         F           -0.000000000000     1.034349238938     0.187669460734    18.998403162730
         F            0.000000000000    -1.034349238938     0.187669460734    18.998403162730

  Running in c2v symmetry.

  Rotational constants: A =      3.02344  B =      0.41468  C =      0.36467 [cm^-1]
  Rotational constants: A =  90640.41275  B =  12431.84840  C =  10932.40662 [MHz]
  Nuclear repulsion =   64.796555518192662

  Charge       = 0
  Multiplicity = 1
  Electrons    = 24
  Nalpha       = 12
  Nbeta        = 12

  ==> Algorithm <==

  SCF Algorithm Type is DF.
  DIIS enabled.
  MOM disabled.
  Fractional occupation disabled.
  Guess Type is SAD.
  Energy threshold   = 1.00e-08
  Density threshold  = 1.00e-08
  Integral threshold = 0.00e+00

  ==> Primary Basis <==

  Basis Set: AUG-CC-PV(Q+D)Z
    Blend: AUG-CC-PV(Q+D)Z
    Number of shells: 60
    Number of basis function: 240
    Number of Cartesian functions: 315
    Spherical Harmonics?: true
    Max angular momentum: 4

  ==> DFT Potential <==

   => Composite Functional: WB97X-V <= 

    wB97X-V Hyb-GGA Exchange-Correlation Functional

    N. Mardirossian and M. Head-Gordon, Phys. Chem. Chem. Phys. 16, 9904 (2014)

    Deriv               =              1
    GGA                 =           TRUE
    Meta                =          FALSE

    Exchange Hybrid     =           TRUE
    MP2 Hybrid          =          FALSE

   => Exchange-Correlation Functionals <=

    1.0000   wB97X-V range-separated functional

   => Exact (HF) Exchange <=

    0.8330            HF,LR [omega = 0.3000]
    0.1670               HF 

   => VV10 Non-Local Parameters <=

    VV10 B              =     6.0000E+00
    VV10 C              =     1.0000E-02

   => Molecular Quadrature <=

    Radial Scheme          =       TREUTLER
    Pruning Scheme         =           FLAT
    Nuclear Scheme         =       TREUTLER

    BS radius alpha        =              1
    Pruning alpha          =              1
    Radial Points          =             75
    Spherical Points       =            302
    Total Points           =          67950
    Total Blocks           =            590
    Max Points             =            256
    Max Functions          =            240

   => Loading Basis Set <=

    Name: (AUG-CC-PV(Q+D)Z AUX)
    Role: JKFIT
    Keyword: DF_BASIS_SCF
    atoms 1   entry C          line   178 file /work/zw18965/.conda/envs/p4env/share/psi4/basis/aug-cc-pvqz-jkfit.gbs 
    atoms 2-3 entry F          line   388 file /work/zw18965/.conda/envs/p4env/share/psi4/basis/aug-cc-pvqz-jkfit.gbs 

  ==> Pre-Iterations <==

   -------------------------------------------------------
    Irrep   Nso     Nmo     Nalpha   Nbeta   Ndocc  Nsocc
   -------------------------------------------------------
     A1        81      81       0       0       0       0
     A2        41      41       0       0       0       0
     B1        49      49       0       0       0       0
     B2        69      69       0       0       0       0
   -------------------------------------------------------
    Total     240     240      12      12      12       0
   -------------------------------------------------------

  ==> Integral Setup <==

  ==> DiskDFJK: Density-Fitted J/K Matrices <==

    J tasked:                  Yes
    K tasked:                  Yes
    wK tasked:                 Yes
    Omega:               3.000E-01
    OpenMP threads:             24
    Integrals threads:          24
    Memory [MiB]:           102593
    Algorithm:                Core
    Integral Cache:           NONE
    Schwarz Cutoff:          1E-12
    Fitting Condition:       1E-10

   => Auxiliary Basis Set <=

  Basis Set: (AUG-CC-PV(Q+D)Z AUX)
    Blend: AUG-CC-PVQZ-JKFIT
    Number of shells: 102
    Number of basis function: 426
    Number of Cartesian functions: 594
    Spherical Harmonics?: true
    Max angular momentum: 5

  Cached 100.0% of DFT collocation blocks in 0.394 [GiB].

  Minimum eigenvalue in the overlap matrix is 1.3023766911E-04.
  Using Symmetric Orthogonalization.

  SCF Guess: Superposition of Atomic Densities via on-the-fly atomic UHF.

  ==> Iterations <==

                           Total Energy        Delta E     RMS |[F,P]|

   @DF-RKS iter SAD:  -237.22784787007120   -2.37228e+02   0.00000e+00 
   @DF-RKS iter   1:  -237.70442565220901   -4.76578e-01   2.61891e-03 DIIS
   @DF-RKS iter   2:  -237.71397387131236   -9.54822e-03   2.46627e-03 DIIS
   @DF-RKS iter   3:  -237.73673379178413   -2.27599e-02   3.13811e-04 DIIS
   @DF-RKS iter   4:  -237.73724577934695   -5.11988e-04   4.62161e-05 DIIS
   @DF-RKS iter   5:  -237.73727597536254   -3.01960e-05   8.38298e-06 DIIS
   @DF-RKS iter   6:  -237.73727716961523   -1.19425e-06   1.92189e-06 DIIS
   @DF-RKS iter   7:  -237.73727724086268   -7.12475e-08   4.15441e-07 DIIS
   @DF-RKS iter   8:  -237.73727724394885   -3.08617e-09   1.06216e-07 DIIS
   @DF-RKS iter   9:  -237.73727724409355   -1.44695e-10   2.12503e-08 DIIS
   @DF-RKS iter  10:  -237.73727724410224   -8.69704e-12   4.68081e-09 DIIS
  Energy and wave function converged.


  ==> Post-Iterations <==

    Orbital Energies [Eh]
    ---------------------

    Doubly Occupied:                                                      

       1B2   -24.842326     1A1   -24.842313     2A1   -10.478205  
       3A1    -1.478614     2B2    -1.402091     4A1    -0.837482  
       3B2    -0.727565     1B1    -0.683518     5A1    -0.678083  
       1A2    -0.601540     4B2    -0.576503     6A1    -0.417980  

    Virtual:                                                              

       2B1     0.007764     7A1     0.061175     5B2     0.068844  
       8A1     0.075768     3B1     0.076334     6B2     0.154995  
       9A1     0.176745    10A1     0.187121     2A2     0.190176  
       4B1     0.198231     7B2     0.212618    11A1     0.227990  
       8B2     0.247619     5B1     0.266722    12A1     0.278697  
       3A2     0.301440    13A1     0.310916     9B2     0.336783  
      10B2     0.369560    14A1     0.377587     6B1     0.390680  
      15A1     0.435980    11B2     0.493439    16A1     0.554156  
       7B1     0.593317    17A1     0.639860     4A2     0.666466  
      12B2     0.709634    13B2     0.714587    18A1     0.727003  
       8B1     0.730624     5A2     0.745983    19A1     0.748151  
       9B1     0.765172    14B2     0.797499    20A1     0.806859  
       6A2     0.821244    21A1     0.852001    10B1     0.867148  
      15B2     0.871256    22A1     0.897864    16B2     0.915432  
       7A2     0.929611    11B1     0.955944    12B1     0.985863  
      23A1     0.995564    17B2     1.014366    24A1     1.039268  
      18B2     1.122071     8A2     1.178356    25A1     1.249778  
      19B2     1.337032    26A1     1.443804    20B2     1.607022  
      13B1     1.645453    27A1     1.676045    14B1     1.711983  
      28A1     1.778022    15B1     1.804299    21B2     1.806422  
      29A1     1.818239     9A2     1.819670    10A2     1.877294  
      22B2     1.880062    11A2     1.940788    30A1     1.957333  
      16B1     1.980659    23B2     1.986372    17B1     2.005130  
      24B2     2.007448    31A1     2.025904    32A1     2.065597  
      25B2     2.067692    12A2     2.120782    18B1     2.136778  
      33A1     2.207275    19B1     2.217208    34A1     2.219751  
      26B2     2.270078    13A2     2.273983    35A1     2.315643  
      27B2     2.341109    14A2     2.385178    20B1     2.415365  
      36A1     2.417197    37A1     2.496128    28B2     2.568838  
      38A1     2.579534    21B1     2.584911    15A2     2.673688  
      29B2     2.727870    30B2     2.784680    22B1     2.828413  
      16A2     2.842155    39A1     2.888815    31B2     2.889052  
      32B2     2.932372    17A2     2.997260    40A1     3.034462  
      23B1     3.036364    41A1     3.157214    33B2     3.226323  
      42A1     3.604860    43A1     3.979864    24B1     4.029984  
      18A2     4.070534    34B2     4.299050    44A1     4.411752  
      25B1     4.414266    45A1     4.478143    35B2     4.506327  
      19A2     4.591780    36B2     4.596451    26B1     4.698573  
      37B2     4.728922    20A2     4.739275    27B1     4.798769  
      46A1     4.801542    38B2     4.825441    47A1     4.840615  
      48A1     4.876594    21A2     4.882570    28B1     4.949412  
      22A2     5.056785    39B2     5.064166    49A1     5.076891  
      29B1     5.186081    40B2     5.199707    50A1     5.260422  
      23A2     5.270190    41B2     5.331883    42B2     5.353583  
      51A1     5.377822    43B2     5.382366    30B1     5.391508  
      52A1     5.425126    31B1     5.452235    24A2     5.472975  
      25A2     5.612123    32B1     5.615415    53A1     5.671442  
      44B2     5.686604    26A2     5.711884    54A1     5.783657  
      45B2     5.823145    33B1     5.882470    55A1     5.893568  
      34B1     5.994680    56A1     5.997288    27A2     6.022373  
      46B2     6.024929    47B2     6.143081    57A1     6.154719  
      48B2     6.230351    35B1     6.245071    58A1     6.284704  
      59A1     6.328599    36B1     6.479323    28A2     6.486448  
      49B2     6.503406    60A1     6.511847    50B2     6.750424  
      37B1     6.799284    29A2     6.932599    38B1     6.966886  
      30A2     7.062119    61A1     7.124172    62A1     7.290702  
      51B2     7.404673    63A1     7.461720    39B1     8.145410  
      31A2     8.192449    64A1     8.197086    52B2     8.261204  
      53B2     8.718839    65A1     8.942122    54B2     9.113736  
      40B1    13.051187    66A1    13.059631    32A2    13.075957  
      55B2    13.142605    41B1    13.144456    33A2    13.175683  
      67A1    13.214920    42B1    13.251145    56B2    13.280946  
      68A1    13.325713    34A2    13.494484    69A1    13.510339  
      57B2    13.536490    35A2    13.538092    43B1    13.540129  
      70A1    13.560137    44B1    13.584438    36A2    13.586844  
      58B2    13.616258    59B2    13.708462    71A1    13.732976  
      60B2    14.034047    72A1    14.174432    61B2    14.194185  
      45B1    15.221682    73A1    15.239950    62B2    15.253896  
      37A2    15.262796    63B2    15.411654    46B1    15.439145  
      38A2    15.439450    74A1    15.559534    75A1    15.701567  
      47B1    15.839609    39A2    15.930223    64B2    15.961735  
      76A1    16.040455    65B2    16.235949    48B1    16.253291  
      40A2    16.288796    66B2    16.308929    77A1    16.424663  
      78A1    16.594537    41A2    16.639070    49B1    16.639511  
      67B2    16.997136    68B2    17.311485    79A1    17.399217  
      80A1    24.453874    81A1    54.124338    69B2    54.149406  

    Final Occupation by Irrep:
             A1    A2    B1    B2 
    DOCC [     6,    1,    1,    4 ]

  @DF-RKS Final Energy:  -237.73727724410224

   => Energetics <=

    Nuclear Repulsion Energy =             64.7965555181926618
    One-Electron Energy =                -457.2328256654521965
    Two-Electron Energy =                 173.4484368216619714
    DFT Exchange-Correlation Energy =     -18.8500844148950897
    Empirical Dispersion Energy =           0.0000000000000000
    VV10 Nonlocal Energy =                  0.1006404963903828
    Total Energy =                       -237.7372772441022448

Computation Completed


Properties will be evaluated at   0.000000,   0.000000,   0.000000 [a0]

Properties computed using the SCF density matrix

  Nuclear Dipole Moment: [e a0]
     X:    -0.0000      Y:     0.0000      Z:    -0.3541

  Electronic Dipole Moment: [e a0]
     X:     0.0000      Y:     0.0000      Z:     0.6141

  Dipole Moment: [e a0]
     X:    -0.0000      Y:     0.0000      Z:     0.2600     Total:     0.2600

  Dipole Moment: [D]
     X:    -0.0000      Y:     0.0000      Z:     0.6610     Total:     0.6610


*** tstop() called on bp1-compute00151.data.bp.acrc.priv at Tue Apr 20 11:02:05 2021
Module time:
	user time   =     114.37 seconds =       1.91 minutes
	system time =       3.40 seconds =       0.06 minutes
	total time  =          5 seconds =       0.08 minutes
Total time:
	user time   =     466.51 seconds =       7.78 minutes
	system time =      17.83 seconds =       0.30 minutes
	total time  =         23 seconds =       0.38 minutes

  //>>>>>>>>>>>>>>>>>>>>>>>>>>>>>>>>>>>//
  //    Loading displacement 5 of 5    //
  //<<<<<<<<<<<<<<<<<<<<<<<<<<<<<<<<<<<//

*** tstart() called on bp1-compute00151.data.bp.acrc.priv
*** at Tue Apr 20 11:02:05 2021

   => Loading Basis Set <=

    Name: AUG-CC-PV(Q+D)Z
    Role: ORBITAL
    Keyword: BASIS
    atoms 1   entry C          line   319 file /work/zw18965/.conda/envs/p4env/share/psi4/basis/aug-cc-pv_qpd_z.gbs 
    atoms 2-3 entry F          line   499 file /work/zw18965/.conda/envs/p4env/share/psi4/basis/aug-cc-pv_qpd_z.gbs 


         ---------------------------------------------------------
                                   SCF
               by Justin Turney, Rob Parrish, Andy Simmonett
                          and Daniel G. A. Smith
                              RKS Reference
                       24 Threads, 137329 MiB Core
         ---------------------------------------------------------

  ==> Geometry <==

    Molecular point group: c2v
    Full point group: C2v

    Geometry (in Angstrom), charge = 0, multiplicity = 1:

       Center              X                  Y                   Z               Mass       
    ------------   -----------------  -----------------  -----------------  -----------------
         C            0.000000000000     0.000000000000    -0.594236679392    12.000000000000
         F           -0.000000000000     1.035207713806     0.187669460734    18.998403162730
         F            0.000000000000    -1.035207713806     0.187669460734    18.998403162730

  Running in c2v symmetry.

  Rotational constants: A =      3.02344  B =      0.41399  C =      0.36413 [cm^-1]
  Rotational constants: A =  90640.41275  B =  12411.23804  C =  10916.46500 [MHz]
  Nuclear repulsion =   64.756102438196606

  Charge       = 0
  Multiplicity = 1
  Electrons    = 24
  Nalpha       = 12
  Nbeta        = 12

  ==> Algorithm <==

  SCF Algorithm Type is DF.
  DIIS enabled.
  MOM disabled.
  Fractional occupation disabled.
  Guess Type is SAD.
  Energy threshold   = 1.00e-08
  Density threshold  = 1.00e-08
  Integral threshold = 0.00e+00

  ==> Primary Basis <==

  Basis Set: AUG-CC-PV(Q+D)Z
    Blend: AUG-CC-PV(Q+D)Z
    Number of shells: 60
    Number of basis function: 240
    Number of Cartesian functions: 315
    Spherical Harmonics?: true
    Max angular momentum: 4

  ==> DFT Potential <==

   => Composite Functional: WB97X-V <= 

    wB97X-V Hyb-GGA Exchange-Correlation Functional

    N. Mardirossian and M. Head-Gordon, Phys. Chem. Chem. Phys. 16, 9904 (2014)

    Deriv               =              1
    GGA                 =           TRUE
    Meta                =          FALSE

    Exchange Hybrid     =           TRUE
    MP2 Hybrid          =          FALSE

   => Exchange-Correlation Functionals <=

    1.0000   wB97X-V range-separated functional

   => Exact (HF) Exchange <=

    0.8330            HF,LR [omega = 0.3000]
    0.1670               HF 

   => VV10 Non-Local Parameters <=

    VV10 B              =     6.0000E+00
    VV10 C              =     1.0000E-02

   => Molecular Quadrature <=

    Radial Scheme          =       TREUTLER
    Pruning Scheme         =           FLAT
    Nuclear Scheme         =       TREUTLER

    BS radius alpha        =              1
    Pruning alpha          =              1
    Radial Points          =             75
    Spherical Points       =            302
    Total Points           =          67950
    Total Blocks           =            590
    Max Points             =            256
    Max Functions          =            240

   => Loading Basis Set <=

    Name: (AUG-CC-PV(Q+D)Z AUX)
    Role: JKFIT
    Keyword: DF_BASIS_SCF
    atoms 1   entry C          line   178 file /work/zw18965/.conda/envs/p4env/share/psi4/basis/aug-cc-pvqz-jkfit.gbs 
    atoms 2-3 entry F          line   388 file /work/zw18965/.conda/envs/p4env/share/psi4/basis/aug-cc-pvqz-jkfit.gbs 

  ==> Pre-Iterations <==

   -------------------------------------------------------
    Irrep   Nso     Nmo     Nalpha   Nbeta   Ndocc  Nsocc
   -------------------------------------------------------
     A1        81      81       0       0       0       0
     A2        41      41       0       0       0       0
     B1        49      49       0       0       0       0
     B2        69      69       0       0       0       0
   -------------------------------------------------------
    Total     240     240      12      12      12       0
   -------------------------------------------------------

  ==> Integral Setup <==

  ==> DiskDFJK: Density-Fitted J/K Matrices <==

    J tasked:                  Yes
    K tasked:                  Yes
    wK tasked:                 Yes
    Omega:               3.000E-01
    OpenMP threads:             24
    Integrals threads:          24
    Memory [MiB]:           102593
    Algorithm:                Core
    Integral Cache:           NONE
    Schwarz Cutoff:          1E-12
    Fitting Condition:       1E-10

   => Auxiliary Basis Set <=

  Basis Set: (AUG-CC-PV(Q+D)Z AUX)
    Blend: AUG-CC-PVQZ-JKFIT
    Number of shells: 102
    Number of basis function: 426
    Number of Cartesian functions: 594
    Spherical Harmonics?: true
    Max angular momentum: 5

  Cached 100.0% of DFT collocation blocks in 0.394 [GiB].

  Minimum eigenvalue in the overlap matrix is 1.3045544119E-04.
  Using Symmetric Orthogonalization.

  SCF Guess: Superposition of Atomic Densities via on-the-fly atomic UHF.

  ==> Iterations <==

                           Total Energy        Delta E     RMS |[F,P]|

   @DF-RKS iter SAD:  -237.22560001479269   -2.37226e+02   0.00000e+00 
   @DF-RKS iter   1:  -237.70438446015783   -4.78784e-01   2.62015e-03 DIIS
   @DF-RKS iter   2:  -237.71387576323397   -9.49130e-03   2.47053e-03 DIIS
   @DF-RKS iter   3:  -237.73673101720465   -2.28553e-02   3.13954e-04 DIIS
   @DF-RKS iter   4:  -237.73724344209552   -5.12425e-04   4.62055e-05 DIIS
   @DF-RKS iter   5:  -237.73727367363324   -3.02315e-05   8.37292e-06 DIIS
   @DF-RKS iter   6:  -237.73727486889183   -1.19526e-06   1.91525e-06 DIIS
   @DF-RKS iter   7:  -237.73727493990555   -7.10137e-08   4.05938e-07 DIIS
   @DF-RKS iter   8:  -237.73727494291492   -3.00938e-09   1.04766e-07 DIIS
   @DF-RKS iter   9:  -237.73727494305513   -1.40204e-10   2.11828e-08 DIIS
   @DF-RKS iter  10:  -237.73727494306331   -8.18545e-12   4.71701e-09 DIIS
  Energy and wave function converged.


  ==> Post-Iterations <==

    Orbital Energies [Eh]
    ---------------------

    Doubly Occupied:                                                      

       1B2   -24.842309     1A1   -24.842296     2A1   -10.478439  
       3A1    -1.478169     2B2    -1.401931     4A1    -0.837386  
       3B2    -0.727400     1B1    -0.683248     5A1    -0.677834  
       1A2    -0.601469     4B2    -0.576543     6A1    -0.418077  

    Virtual:                                                              

       2B1     0.007527     7A1     0.061173     5B2     0.068846  
       8A1     0.075759     3B1     0.076326     6B2     0.155010  
       9A1     0.176735    10A1     0.187105     2A2     0.190176  
       4B1     0.198264     7B2     0.212567    11A1     0.227854  
       8B2     0.247585     5B1     0.266679    12A1     0.278671  
       3A2     0.301448    13A1     0.310887     9B2     0.336667  
      10B2     0.369373    14A1     0.376955     6B1     0.390648  
      15A1     0.435814    11B2     0.493349    16A1     0.554099  
       7B1     0.593333    17A1     0.639684     4A2     0.666476  
      12B2     0.709628    13B2     0.714464    18A1     0.726903  
       8B1     0.730589     5A2     0.746033    19A1     0.748052  
       9B1     0.765111    14B2     0.797401    20A1     0.806832  
       6A2     0.821056    21A1     0.852137    10B1     0.867078  
      15B2     0.871254    22A1     0.897722    16B2     0.915517  
       7A2     0.929429    11B1     0.955989    12B1     0.986047  
      23A1     0.995428    17B2     1.014445    24A1     1.039373  
      18B2     1.122177     8A2     1.178285    25A1     1.249577  
      19B2     1.336733    26A1     1.443826    20B2     1.606520  
      13B1     1.645495    27A1     1.676208    14B1     1.711870  
      28A1     1.777976    15B1     1.804175    21B2     1.806545  
      29A1     1.818254     9A2     1.819482    10A2     1.877003  
      22B2     1.879714    11A2     1.940829    30A1     1.957575  
      16B1     1.980219    23B2     1.986063    17B1     2.005149  
      24B2     2.007100    31A1     2.025579    32A1     2.065411  
      25B2     2.067598    12A2     2.120568    18B1     2.136827  
      33A1     2.207034    19B1     2.217032    34A1     2.219572  
      26B2     2.269911    13A2     2.273785    35A1     2.315607  
      27B2     2.340678    14A2     2.384165    20B1     2.415154  
      36A1     2.416965    37A1     2.496127    28B2     2.568739  
      38A1     2.579742    21B1     2.585038    15A2     2.673507  
      29B2     2.726232    30B2     2.785176    22B1     2.828278  
      16A2     2.842692    39A1     2.887864    31B2     2.888545  
      32B2     2.932370    17A2     2.996994    40A1     3.033819  
      23B1     3.035473    41A1     3.156775    33B2     3.224983  
      42A1     3.604048    43A1     3.978422    24B1     4.028957  
      18A2     4.069212    34B2     4.298589    44A1     4.412896  
      25B1     4.415029    45A1     4.477811    35B2     4.506318  
      19A2     4.591319    36B2     4.595930    26B1     4.698341  
      37B2     4.728147    20A2     4.738281    27B1     4.799075  
      46A1     4.802342    38B2     4.825094    47A1     4.840661  
      48A1     4.876879    21A2     4.882404    28B1     4.949969  
      22A2     5.055177    39B2     5.062541    49A1     5.077406  
      29B1     5.185724    40B2     5.198596    50A1     5.260216  
      23A2     5.270166    41B2     5.331569    42B2     5.353045  
      51A1     5.377940    43B2     5.382542    30B1     5.391603  
      52A1     5.424348    31B1     5.452216    24A2     5.472560  
      25A2     5.611776    32B1     5.615963    53A1     5.670032  
      44B2     5.686032    26A2     5.712192    54A1     5.782435  
      45B2     5.821929    33B1     5.881906    55A1     5.892572  
      34B1     5.994087    56A1     5.996315    27A2     6.020764  
      46B2     6.024134    47B2     6.143837    57A1     6.154069  
      48B2     6.230272    35B1     6.244944    58A1     6.284785  
      59A1     6.328654    36B1     6.478502    28A2     6.486162  
      49B2     6.502296    60A1     6.510402    50B2     6.747455  
      37B1     6.796527    29A2     6.931162    38B1     6.964871  
      30A2     7.060336    61A1     7.121747    62A1     7.288864  
      51B2     7.401967    63A1     7.459674    39B1     8.142986  
      31A2     8.190381    64A1     8.195621    52B2     8.259250  
      53B2     8.718090    65A1     8.940392    54B2     9.109037  
      40B1    13.050895    66A1    13.059894    32A2    13.074135  
      55B2    13.142379    41B1    13.143590    33A2    13.175434  
      67A1    13.212460    42B1    13.251308    56B2    13.279754  
      68A1    13.325689    34A2    13.493247    69A1    13.511072  
      57B2    13.535482    35A2    13.537692    43B1    13.540057  
      70A1    13.560710    44B1    13.584745    36A2    13.586213  
      58B2    13.615940    59B2    13.706289    71A1    13.732490  
      60B2    14.033885    72A1    14.174263    61B2    14.193057  
      45B1    15.221566    73A1    15.239838    62B2    15.253797  
      37A2    15.262696    63B2    15.411567    46B1    15.438472  
      38A2    15.439493    74A1    15.558585    75A1    15.700855  
      47B1    15.838381    39A2    15.929010    64B2    15.961663  
      76A1    16.037891    65B2    16.234877    48B1    16.253080  
      40A2    16.288070    66B2    16.307990    77A1    16.424400  
      78A1    16.596370    41A2    16.638826    49B1    16.639760  
      67B2    16.994339    68B2    17.309138    79A1    17.396612  
      80A1    24.444865    81A1    54.122780    69B2    54.145826  

    Final Occupation by Irrep:
             A1    A2    B1    B2 
    DOCC [     6,    1,    1,    4 ]

  @DF-RKS Final Energy:  -237.73727494306331

   => Energetics <=

    Nuclear Repulsion Energy =             64.7561024381966064
    One-Electron Energy =                -457.1545774480517821
    Two-Electron Energy =                 173.4099611872872231
    DFT Exchange-Correlation Energy =     -18.8494042237882198
    Empirical Dispersion Energy =           0.0000000000000000
    VV10 Nonlocal Energy =                  0.1006431032928624
    Total Energy =                       -237.7372749430633121

Computation Completed


Properties will be evaluated at   0.000000,   0.000000,   0.000000 [a0]

Properties computed using the SCF density matrix

  Nuclear Dipole Moment: [e a0]
     X:    -0.0000      Y:    -0.0000      Z:    -0.3541

  Electronic Dipole Moment: [e a0]
     X:     0.0000      Y:     0.0000      Z:     0.6132

  Dipole Moment: [e a0]
     X:    -0.0000      Y:    -0.0000      Z:     0.2592     Total:     0.2592

  Dipole Moment: [D]
     X:    -0.0000      Y:    -0.0000      Z:     0.6587     Total:     0.6587


*** tstop() called on bp1-compute00151.data.bp.acrc.priv at Tue Apr 20 11:02:10 2021
Module time:
	user time   =     112.64 seconds =       1.88 minutes
	system time =       3.13 seconds =       0.05 minutes
	total time  =          5 seconds =       0.08 minutes
Total time:
	user time   =     579.29 seconds =       9.65 minutes
	system time =      20.96 seconds =       0.35 minutes
	total time  =         28 seconds =       0.47 minutes

         ----------------------------------------------------------
                                   FINDIF
                     R. A. King and Jonathon Misiewicz
         ---------------------------------------------------------

  Computing gradient from energies.
    Using 3-point formula.
    Energy without displacement: -237.7372763952
    Check energies below for precision!
    Forces are for mass-weighted, symmetry-adapted cartesians (in au).

     Coord      Energy(-1)        Energy(+1)            Force
        0   -237.7372910585   -237.7372603948      0.0030663762
        1   -237.7372772441   -237.7372749431      0.0002301039


-------------------------------------------------------------
  ## New Matrix (Symmetry 0) ##
  Irrep: 1 Size: 3 x 3

                 1                   2                   3

    1     0.00000000000000     0.00000000000000     0.00926015977318
    2     0.00000000000000     0.00070919802709    -0.00463007988659
    3     0.00000000000000    -0.00070919802709    -0.00463007988659




			-----------------------------------------
			 OPTKING 2.0: for geometry optimizations 
			  - R.A. King,  Bethel University        
			-----------------------------------------

	Internal coordinates to be generated automatically.
	Detected frag 1 with atoms:  1 2 3
	---Fragment 1 Bond Connectivity---
	 1 : 2 3
	 2 : 1
	 3 : 1

	---Fragment 1 Geometry and Gradient---
	 C           0.0000000000        0.0000000000       -1.1229445778
	 F          -0.0000000000        1.9554479209        0.3546438829
	 F           0.0000000000       -1.9554479209        0.3546438829
	             0.0000000000        0.0000000000        0.0092601598
	             0.0000000000        0.0007091980       -0.0046300799
	             0.0000000000       -0.0007091980       -0.0046300799

	Previous optimization step data not found.  Starting new optimization.

	---Fragment 1 Intrafragment Coordinates---
	 - Coordinate -           - BOHR/RAD -       - ANG/DEG -
	 R(1,2)           =         2.450927	       1.296975
	 R(1,3)           =         2.450927	       1.296975
	 B(2,1,3)         =         1.847408	     105.848671

	Current energy   :      -237.7372763952

	Generating empirical Hessian (Schlegel '84) for each fragment.
	Taking RFO optimization step.
	Going to follow RFO solution 1.
	Using RFO vector 1.
	Norm of target step-size    0.04060
	Projected energy change by RFO approximation:        -0.0003939973

	Back-transformation to cartesian coordinates...
	Successfully converged to displaced geometry.

	--- Internal Coordinate Step in ANG or DEG, aJ/ANG or AJ/DEG ---
	 ---------------------------------------------------------------------------
	   Coordinate                Previous        Force       Change         New 
	   ----------                --------       ------       ------       ------
	    1 R(1,2)          =      1.296975     0.018335     0.001730     1.298705
	    2 R(1,3)          =      1.296975     0.018335     0.001730     1.298705
	    3 B(2,1,3)        =    105.848671    -0.000769    -2.311256   103.537415
	 ---------------------------------------------------------------------------
	Successfully symmetrized geometry.

  ==> Convergence Check <==

  Measures of convergence in internal coordinates in au.
  Criteria marked as inactive (o), active & met (*), and active & unmet ( ).
  --------------------------------------------------------------------------------------------- ~
   Step     Total Energy     Delta E     MAX Force     RMS Force      MAX Disp      RMS Disp    ~
  --------------------------------------------------------------------------------------------- ~
    Convergence Criteria    1.00e-06 *    3.00e-04 *             o    1.20e-03 *             o  ~
  --------------------------------------------------------------------------------------------- ~
      1    -237.73727640   -2.38e+02      1.01e-02      6.11e-03 o    4.03e-02      2.34e-02 o  ~
  ---------------------------------------------------------------------------------------------

	Writing optimization data to binary file.
	Structure for next step:
	Cartesian Geometry (in Angstrom)
	    C    -0.0000000000   0.0000000000  -0.6087573362
	    F    -0.0000000000   1.0201571869   0.1949297896
	    F     0.0000000000  -1.0201571869   0.1949297896
			--------------------------
			 OPTKING Finished Execution 
			--------------------------

    Structure for next step:
    Molecular point group: c2v
    Full point group: C2v

    Geometry (in Angstrom), charge = 0, multiplicity = 1:

    C            0.000000000000     0.000000000000    -0.610789896962
    F           -0.000000000000     1.020157190935     0.192897231961
    F            0.000000000000    -1.020157190935     0.192897231961

gradient() will perform gradient computation by finite difference of analytic energies.

         ----------------------------------------------------------
                                   FINDIF
                     R. A. King and Jonathon Misiewicz
         ---------------------------------------------------------

  Using finite-differences of energies to determine gradients.
    Generating geometries for use with 3-point formula.
    Displacement size will be 5.00e-03.
    Number of atoms is 3.
    Number of symmetric SALCs is 2.
    Translations projected? 1. Rotations projected? 1.
    Number of geometries (including reference) is 5.

  //>>>>>>>>>>>>>>>>>>>>>>>>>>>>>>>>>>>//
  //    Loading displacement 1 of 5    //
  //<<<<<<<<<<<<<<<<<<<<<<<<<<<<<<<<<<<//

*** tstart() called on bp1-compute00151.data.bp.acrc.priv
*** at Tue Apr 20 11:02:10 2021

   => Loading Basis Set <=

    Name: AUG-CC-PV(Q+D)Z
    Role: ORBITAL
    Keyword: BASIS
    atoms 1   entry C          line   319 file /work/zw18965/.conda/envs/p4env/share/psi4/basis/aug-cc-pv_qpd_z.gbs 
    atoms 2-3 entry F          line   499 file /work/zw18965/.conda/envs/p4env/share/psi4/basis/aug-cc-pv_qpd_z.gbs 


         ---------------------------------------------------------
                                   SCF
               by Justin Turney, Rob Parrish, Andy Simmonett
                          and Daniel G. A. Smith
                              RKS Reference
                       24 Threads, 137329 MiB Core
         ---------------------------------------------------------

  ==> Geometry <==

    Molecular point group: c2v
    Full point group: C2v

    Geometry (in Angstrom), charge = 0, multiplicity = 1:

       Center              X                  Y                   Z               Mass       
    ------------   -----------------  -----------------  -----------------  -----------------
         C            0.000000000000     0.000000000000    -0.610789896962    12.000000000000
         F           -0.000000000000     1.020157190935     0.192897231961    18.998403162730
         F            0.000000000000    -1.020157190935     0.192897231961    18.998403162730

  Running in c2v symmetry.

  Rotational constants: A =      2.86178  B =      0.42630  C =      0.37103 [cm^-1]
  Rotational constants: A =  85794.03532  B =  12780.14890  C =  11123.20183 [MHz]
  Nuclear repulsion =   65.014474748636914

  Charge       = 0
  Multiplicity = 1
  Electrons    = 24
  Nalpha       = 12
  Nbeta        = 12

  ==> Algorithm <==

  SCF Algorithm Type is DF.
  DIIS enabled.
  MOM disabled.
  Fractional occupation disabled.
  Guess Type is READ.
  Energy threshold   = 1.00e-08
  Density threshold  = 1.00e-08
  Integral threshold = 0.00e+00

  ==> Primary Basis <==

  Basis Set: AUG-CC-PV(Q+D)Z
    Blend: AUG-CC-PV(Q+D)Z
    Number of shells: 60
    Number of basis function: 240
    Number of Cartesian functions: 315
    Spherical Harmonics?: true
    Max angular momentum: 4

  ==> DFT Potential <==

   => Composite Functional: WB97X-V <= 

    wB97X-V Hyb-GGA Exchange-Correlation Functional

    N. Mardirossian and M. Head-Gordon, Phys. Chem. Chem. Phys. 16, 9904 (2014)

    Deriv               =              1
    GGA                 =           TRUE
    Meta                =          FALSE

    Exchange Hybrid     =           TRUE
    MP2 Hybrid          =          FALSE

   => Exchange-Correlation Functionals <=

    1.0000   wB97X-V range-separated functional

   => Exact (HF) Exchange <=

    0.8330            HF,LR [omega = 0.3000]
    0.1670               HF 

   => VV10 Non-Local Parameters <=

    VV10 B              =     6.0000E+00
    VV10 C              =     1.0000E-02

   => Molecular Quadrature <=

    Radial Scheme          =       TREUTLER
    Pruning Scheme         =           FLAT
    Nuclear Scheme         =       TREUTLER

    BS radius alpha        =              1
    Pruning alpha          =              1
    Radial Points          =             75
    Spherical Points       =            302
    Total Points           =          67950
    Total Blocks           =            590
    Max Points             =            256
    Max Functions          =            240

[...]
  Nuclear repulsion =   64.746985882465680

  Charge       = 0
  Multiplicity = 1
  Electrons    = 24
  Nalpha       = 12
  Nbeta        = 12

  ==> Algorithm <==

  SCF Algorithm Type is DF.
  DIIS enabled.
  MOM disabled.
  Fractional occupation disabled.
  Guess Type is SAD.
  Energy threshold   = 1.00e-10
  Density threshold  = 1.00e-10
  Integral threshold = 0.00e+00

  ==> Primary Basis <==

  Basis Set: AUG-CC-PV(Q+D)Z
    Blend: AUG-CC-PV(Q+D)Z
    Number of shells: 60
    Number of basis function: 240
    Number of Cartesian functions: 315
    Spherical Harmonics?: true
    Max angular momentum: 4

  ==> DFT Potential <==

   => Composite Functional: WB97X-V <= 

    wB97X-V Hyb-GGA Exchange-Correlation Functional

    N. Mardirossian and M. Head-Gordon, Phys. Chem. Chem. Phys. 16, 9904 (2014)

    Deriv               =              1
    GGA                 =           TRUE
    Meta                =          FALSE

    Exchange Hybrid     =           TRUE
    MP2 Hybrid          =          FALSE

   => Exchange-Correlation Functionals <=

    1.0000   wB97X-V range-separated functional

   => Exact (HF) Exchange <=

    0.8330            HF,LR [omega = 0.3000]
    0.1670               HF 

   => VV10 Non-Local Parameters <=

    VV10 B              =     6.0000E+00
    VV10 C              =     1.0000E-02

   => Molecular Quadrature <=

    Radial Scheme          =       TREUTLER
    Pruning Scheme         =           FLAT
    Nuclear Scheme         =       TREUTLER

    BS radius alpha        =              1
    Pruning alpha          =              1
    Radial Points          =             75
    Spherical Points       =            302
    Total Points           =          67950
    Total Blocks           =            581
    Max Points             =            256
    Max Functions          =            240

   => Loading Basis Set <=

    Name: (AUG-CC-PV(Q+D)Z AUX)
    Role: JKFIT
    Keyword: DF_BASIS_SCF
    atoms 1   entry C          line   178 file /work/zw18965/.conda/envs/p4env/share/psi4/basis/aug-cc-pvqz-jkfit.gbs 
    atoms 2-3 entry F          line   388 file /work/zw18965/.conda/envs/p4env/share/psi4/basis/aug-cc-pvqz-jkfit.gbs 

  ==> Pre-Iterations <==

   -------------------------------------------------------
    Irrep   Nso     Nmo     Nalpha   Nbeta   Ndocc  Nsocc
   -------------------------------------------------------
     A'       150     150       0       0       0       0
     A"        90      90       0       0       0       0
   -------------------------------------------------------
    Total     240     240      12      12      12       0
   -------------------------------------------------------

  ==> Integral Setup <==

  ==> DiskDFJK: Density-Fitted J/K Matrices <==

    J tasked:                  Yes
    K tasked:                  Yes
    wK tasked:                 Yes
    Omega:               3.000E-01
    OpenMP threads:             24
    Integrals threads:          24
    Memory [MiB]:           102592
    Algorithm:                Core
    Integral Cache:           NONE
    Schwarz Cutoff:          1E-12
    Fitting Condition:       1E-10

   => Auxiliary Basis Set <=

  Basis Set: (AUG-CC-PV(Q+D)Z AUX)
    Blend: AUG-CC-PVQZ-JKFIT
    Number of shells: 102
    Number of basis function: 426
    Number of Cartesian functions: 594
    Spherical Harmonics?: true
    Max angular momentum: 5

  Cached 100.0% of DFT collocation blocks in 0.395 [GiB].

  Minimum eigenvalue in the overlap matrix is 1.3243896081E-04.
  Using Symmetric Orthogonalization.

  SCF Guess: Superposition of Atomic Densities via on-the-fly atomic UHF.

  ==> Iterations <==

                           Total Energy        Delta E     RMS |[F,P]|

   @DF-RKS iter SAD:  -237.21634884799121   -2.37216e+02   0.00000e+00 
   @DF-RKS iter   1:  -237.70412385196337   -4.87775e-01   1.87435e-03 DIIS
   @DF-RKS iter   2:  -237.71287867468041   -8.75482e-03   1.79085e-03 DIIS
   @DF-RKS iter   3:  -237.73686984241419   -2.39912e-02   2.19104e-04 DIIS
   @DF-RKS iter   4:  -237.73736777407262   -4.97932e-04   3.25483e-05 DIIS
   @DF-RKS iter   5:  -237.73739703926023   -2.92652e-05   5.92063e-06 DIIS
   @DF-RKS iter   6:  -237.73739814615323   -1.10689e-06   2.29956e-06 DIIS
   @DF-RKS iter   7:  -237.73739821799512   -7.18419e-08   1.51759e-06 DIIS
   @DF-RKS iter   8:  -237.73739824241210   -2.44170e-08   1.60021e-07 DIIS
   @DF-RKS iter   9:  -237.73739824318659   -7.74492e-10   3.25547e-08 DIIS
   @DF-RKS iter  10:  -237.73739824321606   -2.94733e-11   7.03109e-09 DIIS
   @DF-RKS iter  11:  -237.73739824321720   -1.13687e-12   2.05204e-09 DIIS
   @DF-RKS iter  12:  -237.73739824321748   -2.84217e-13   2.98282e-10 DIIS
   @DF-RKS iter  13:  -237.73739824321748    0.00000e+00   4.47690e-11 DIIS
  Energy and wave function converged.


  ==> Post-Iterations <==

    Orbital Energies [Eh]
    ---------------------

    Doubly Occupied:                                                      

       1Ap   -24.841238     2Ap   -24.840596     3Ap   -10.479720  
       4Ap    -1.476812     5Ap    -1.398809     6Ap    -0.836645  
       7Ap    -0.724841     1App   -0.681806     8Ap    -0.676908  
       2App   -0.599663     9Ap    -0.573563    10Ap    -0.421441  

    Virtual:                                                              

       3App    0.006041    11Ap     0.061439    12Ap     0.068717  
      13Ap     0.075599     4App    0.076262    14Ap     0.154805  
      15Ap     0.177561    16Ap     0.186947     5App    0.190781  
       6App    0.198067    17Ap     0.210287    18Ap     0.227941  
      19Ap     0.247678     7App    0.267424    20Ap     0.279179  
       8App    0.300371    21Ap     0.310281    22Ap     0.334577  
      23Ap     0.367370    24Ap     0.376557     9App    0.391216  
      25Ap     0.435792    26Ap     0.492397    27Ap     0.553962  
      10App    0.592354    28Ap     0.641510    11App    0.666792  
      29Ap     0.710164    30Ap     0.715420    31Ap     0.727550  
      12App    0.730376    13App    0.744994    32Ap     0.746809  
      14App    0.765799    33Ap     0.797260    34Ap     0.807321  
      15App    0.822723    35Ap     0.850344    16App    0.865755  
      36Ap     0.869951    37Ap     0.898778    38Ap     0.917135  
      17App    0.929332    18App    0.956317    19App    0.983330  
      39Ap     0.996115    40Ap     1.012360    41Ap     1.039033  
      42Ap     1.120649    20App    1.179073    43Ap     1.246126  
      44Ap     1.338661    45Ap     1.440255    46Ap     1.609526  
      21App    1.641688    47Ap     1.673329    22App    1.708935  
      48Ap     1.776129    49Ap     1.804051    23App    1.805048  
      50Ap     1.820280    24App    1.824737    25App    1.878281  
      51Ap     1.883571    26App    1.938501    52Ap     1.957634  
      27App    1.980539    53Ap     1.984790    28App    2.006035  
      54Ap     2.012383    55Ap     2.027209    56Ap     2.063406  
      57Ap     2.067937    29App    2.117903    30App    2.132029  
      58Ap     2.209084    31App    2.217749    59Ap     2.220770  
      60Ap     2.266660    32App    2.271378    61Ap     2.312595  
      62Ap     2.336859    33App    2.392382    34App    2.410558  
      63Ap     2.411633    64Ap     2.499855    65Ap     2.571093  
      66Ap     2.575545    35App    2.584280    36App    2.674466  
      67Ap     2.739061    68Ap     2.785833    37App    2.833109  
      38App    2.836603    69Ap     2.884738    70Ap     2.886401  
      71Ap     2.922310    39App    2.985942    40App    3.034164  
      72Ap     3.038968    73Ap     3.138608    74Ap     3.217027  
      75Ap     3.585927    76Ap     3.977882    41App    4.018665  
      42App    4.066229    77Ap     4.288642    43App    4.401895  
      78Ap     4.406627    79Ap     4.480968    80Ap     4.511165  
      44App    4.596073    81Ap     4.598184    45App    4.699581  
      82Ap     4.730151    46App    4.741690    47App    4.781755  
      83Ap     4.799553    84Ap     4.823843    85Ap     4.836616  
      86Ap     4.863835    48App    4.876833    49App    4.943232  
      50App    5.068746    87Ap     5.069188    88Ap     5.070304  
      51App    5.192454    89Ap     5.202503    90Ap     5.259307  
      52App    5.273718    91Ap     5.332413    92Ap     5.359815  
      93Ap     5.371185    94Ap     5.372324    53App    5.392083  
      95Ap     5.431785    54App    5.450131    55App    5.472879  
      56App    5.612807    57App    5.620373    96Ap     5.671078  
      97Ap     5.681209    58App    5.706740    98Ap     5.785883  
      99Ap     5.822272    59App    5.874766   100Ap     5.888033  
      60App    5.990116   101Ap     6.001939   102Ap     6.021828  
      61App    6.023743   103Ap     6.146443   104Ap     6.150315  
     105Ap     6.230574    62App    6.250326   106Ap     6.266815  
     107Ap     6.314219    63App    6.477135    64App    6.480205  
     108Ap     6.499983   109Ap     6.512288   110Ap     6.748314  
      65App    6.796464    66App    6.904350    67App    6.959751  
      68App    7.049684   111Ap     7.120421   112Ap     7.284100  
     113Ap     7.399435   114Ap     7.456245    69App    8.127110  
     115Ap     8.171360    70App    8.182514   116Ap     8.248434  
     117Ap     8.703465   118Ap     8.925959   119Ap     9.093555  
     120Ap    13.049193    71App   13.049225    72App   13.069516  
      73App   13.131989   121Ap    13.142862    74App   13.175371  
     122Ap    13.221895    75App   13.243677   123Ap    13.289327  
     124Ap    13.319922    76App   13.500316   125Ap    13.500803  
     126Ap    13.528753    77App   13.537451    78App   13.541748  
     127Ap    13.553857    79App   13.580346    80App   13.592123  
     128Ap    13.612896   129Ap    13.715768   130Ap    13.729652  
     131Ap    14.019182   132Ap    14.178114   133Ap    14.194595  
      81App   15.223000   134Ap    15.241292   135Ap    15.256521  
      82App   15.264669   136Ap    15.410373    83App   15.435804  
      84App   15.440120   137Ap    15.556009   138Ap    15.703594  
      85App   15.834500    86App   15.921087   139Ap    15.951157  
     140Ap    16.041296   141Ap    16.223553    87App   16.247880  
      88App   16.282935   142Ap    16.315521   143Ap    16.405598  
     144Ap    16.585224    89App   16.638228    90App   16.643691  
     145Ap    17.011295   146Ap    17.299447   147Ap    17.380597  
     148Ap    24.404668   149Ap    54.101635   150Ap    54.147115  

    Final Occupation by Irrep:
             Ap   App 
    DOCC [    10,    2 ]

  @DF-RKS Final Energy:  -237.73739824321748

   => Energetics <=

    Nuclear Repulsion Energy =             64.7469858824656797
    One-Electron Energy =                -457.1639099215624356
    Two-Electron Energy =                 173.4263517021175574
    DFT Exchange-Correlation Energy =     -18.8474607858018928
    Empirical Dispersion Energy =           0.0000000000000000
    VV10 Nonlocal Energy =                  0.1006348795636427
    Total Energy =                       -237.7373982432174842

Computation Completed


Properties will be evaluated at   0.000000,   0.000000,   0.000000 [a0]

Properties computed using the SCF density matrix

  Nuclear Dipole Moment: [e a0]
     X:     0.0000      Y:    -0.0004      Z:    -0.3600

  Electronic Dipole Moment: [e a0]
     X:     0.0000      Y:    -0.0028      Z:     0.5991

  Dipole Moment: [e a0]
     X:     0.0000      Y:    -0.0032      Z:     0.2390     Total:     0.2391

  Dipole Moment: [D]
     X:     0.0000      Y:    -0.0080      Z:     0.6076     Total:     0.6077


*** tstop() called on bp1-compute00151.data.bp.acrc.priv at Tue Apr 20 11:04:13 2021
Module time:
	user time   =     126.18 seconds =       2.10 minutes
	system time =       3.09 seconds =       0.05 minutes
	total time  =          6 seconds =       0.10 minutes
Total time:
	user time   =    3263.03 seconds =      54.38 minutes
	system time =      93.54 seconds =       1.56 minutes
	total time  =        151 seconds =       2.52 minutes

         ----------------------------------------------------------
                                   FINDIF
                     R. A. King and Jonathon Misiewicz
         ---------------------------------------------------------

  Computing second-derivative from energies using projected, 
  symmetry-adapted, cartesian coordinates.

  8 energies passed in, including the reference geometry.
    Using 3-point formula.
    Energy without displacement: -237.7373988621
    Check energies below for precision!
    0: -1        :      -237.7373983167
    0: 1         :      -237.7373980891
    1: -1        :      -237.7373984365
    1: 1         :      -237.7373986794
    0: 1, 1: 1   :      -237.7373982896
    0: -1, 1: -1 :      -237.7373982831
    2: -1        :      -237.7373982432

-------------------------------------------------------------


  ==> Harmonic Vibrational Analysis <==

  non-mass-weighted Hessian:       Symmetric? True   Hermitian? True   Lin Dep Dim?  6 (0)
  projection of translations (True) and rotations (True) removed 6 degrees of freedom (6)
  total projector:                 Symmetric? True   Hermitian? True   Lin Dep Dim?  6 (6)
  mass-weighted Hessian:           Symmetric? True   Hermitian? True   Lin Dep Dim?  6 (0)
  pre-proj  low-frequency mode:    0.0000i [cm^-1]
  pre-proj  low-frequency mode:    0.0000i [cm^-1]
  pre-proj  low-frequency mode:    0.0000  [cm^-1]
  pre-proj  low-frequency mode:    0.0000  [cm^-1]
  pre-proj  low-frequency mode:    0.0000  [cm^-1]
  pre-proj  low-frequency mode:    0.0000  [cm^-1]
  pre-proj  all modes:['0.0000i' '0.0000i' '0.0000' '0.0000' '0.0000' '0.0000' '680.1489'
 '1143.7926' '1254.4997']
  projected mass-weighted Hessian: Symmetric? True   Hermitian? True   Lin Dep Dim?  6 (6)
  post-proj low-frequency mode:    0.0000i [cm^-1] (TR)
  post-proj low-frequency mode:    0.0000i [cm^-1] (TR)
  post-proj low-frequency mode:    0.0000  [cm^-1] (TR)
  post-proj low-frequency mode:    0.0000  [cm^-1] (TR)
  post-proj low-frequency mode:    0.0000  [cm^-1] (TR)
  post-proj low-frequency mode:    0.0000  [cm^-1] (TR)
  post-proj  all modes:['0.0000i' '0.0000i' '0.0000' '0.0000' '0.0000' '0.0000' '680.1489'
 '1143.7926' '1254.4997']

  Vibration                       7                   8                   9           
  Freq [cm^-1]                 680.1489           1143.7926           1254.4997       
  Irrep                           A1                  B2                  A1          
  Reduced mass [u]             17.7239             13.6902             13.8542        
  Force const [mDyne/A]         4.8308             10.5525             12.8461        
  Turning point v=0 [a0]        0.0999              0.0877              0.0832        
  RMS dev v=0 [a0 u^1/2]        0.2975              0.2294              0.2191        
  Char temp [K]                978.5828           1645.6628           1804.9458       
  ----------------------------------------------------------------------------------
      1   C               -0.00 -0.00  0.43   -0.00  0.87 -0.00   -0.00  0.00  0.86   
      2   F                0.00  0.63 -0.13    0.00 -0.28 -0.21    0.00 -0.24 -0.27   
      3   F                0.00 -0.63 -0.13   -0.00 -0.28  0.21   -0.00  0.24 -0.27   

  ==> Thermochemistry Components <==

  Entropy, S
    Electronic S            0.000 [cal/(mol K)]        0.000 [J/(mol K)]       0.00000000 [mEh/K] (multiplicity = 1)
    Translational S        37.652 [cal/(mol K)]      157.535 [J/(mol K)]       0.06000175 [mEh/K] (mol. weight = 49.9968 [u], P = 101325.00 [Pa])
    Rotational S           19.438 [cal/(mol K)]       81.327 [J/(mol K)]       0.03097594 [mEh/K] (symmetry no. = 2)
    Vibrational S           0.416 [cal/(mol K)]        1.739 [J/(mol K)]       0.00066231 [mEh/K]
  Total S                  57.505 [cal/(mol K)]      240.601 [J/(mol K)]       0.09163999 [mEh/K]
  Correction S              0.000 [cal/(mol K)]        0.000 [J/(mol K)]       0.00000000 [mEh/K]

  Constant volume heat capacity, Cv
    Electronic Cv           0.000 [cal/(mol K)]        0.000 [J/(mol K)]       0.00000000 [mEh/K]
    Translational Cv        2.981 [cal/(mol K)]       12.472 [J/(mol K)]       0.00475022 [mEh/K]
    Rotational Cv           2.981 [cal/(mol K)]       12.472 [J/(mol K)]       0.00475022 [mEh/K]
    Vibrational Cv          1.284 [cal/(mol K)]        5.373 [J/(mol K)]       0.00204644 [mEh/K]
  Total Cv                  7.246 [cal/(mol K)]       30.316 [J/(mol K)]       0.01154687 [mEh/K]
  Correction Cv             0.000 [cal/(mol K)]        0.000 [J/(mol K)]       0.00000000 [mEh/K]

  Constant pressure heat capacity, Cp
    Electronic Cp           0.000 [cal/(mol K)]        0.000 [J/(mol K)]       0.00000000 [mEh/K]
    Translational Cp        4.968 [cal/(mol K)]       20.786 [J/(mol K)]       0.00791703 [mEh/K]
    Rotational Cp           2.981 [cal/(mol K)]       12.472 [J/(mol K)]       0.00475022 [mEh/K]
    Vibrational Cp          1.284 [cal/(mol K)]        5.373 [J/(mol K)]       0.00204644 [mEh/K]
  Total Cp                  9.233 [cal/(mol K)]       38.631 [J/(mol K)]       0.01471368 [mEh/K]
  Correction Cp             0.000 [cal/(mol K)]        0.000 [J/(mol K)]       0.00000000 [mEh/K]

  ==> Thermochemistry Energy Analysis <==

  Raw electronic energy, E0
  Total E0, Electronic energy at well bottom at 0 [K]                 -237.73739886 [Eh]

  Zero-point energy, ZPE_vib = Sum_i nu_i / 2
    Electronic ZPE          0.000 [kcal/mol]        0.000 [kJ/mol]       0.00000000 [Eh]
    Translational ZPE       0.000 [kcal/mol]        0.000 [kJ/mol]       0.00000000 [Eh]
    Rotational ZPE          0.000 [kcal/mol]        0.000 [kJ/mol]       0.00000000 [Eh]
    Vibrational ZPE         4.401 [kcal/mol]       18.413 [kJ/mol]       0.00701320 [Eh]        1539.221 [cm^-1]
  Correction ZPE            4.401 [kcal/mol]       18.413 [kJ/mol]       0.00701320 [Eh]        1539.221 [cm^-1]
  Total ZPE, Electronic energy at 0 [K]                               -237.73038566 [Eh]

  Thermal Energy, E (includes ZPE)
    Electronic E            0.000 [kcal/mol]        0.000 [kJ/mol]       0.00000000 [Eh]
    Translational E         0.889 [kcal/mol]        3.718 [kJ/mol]       0.00141628 [Eh]
    Rotational E            0.889 [kcal/mol]        3.718 [kJ/mol]       0.00141628 [Eh]
    Vibrational E           4.498 [kcal/mol]       18.821 [kJ/mol]       0.00716853 [Eh]
  Correction E              6.276 [kcal/mol]       26.258 [kJ/mol]       0.01000108 [Eh]
  Total E, Electronic energy at  298.15 [K]                           -237.72739778 [Eh]

  Enthalpy, H_trans = E_trans + k_B * T
    Electronic H            0.000 [kcal/mol]        0.000 [kJ/mol]       0.00000000 [Eh]
    Translational H         1.481 [kcal/mol]        6.197 [kJ/mol]       0.00236046 [Eh]
    Rotational H            0.889 [kcal/mol]        3.718 [kJ/mol]       0.00141628 [Eh]
    Vibrational H           4.498 [kcal/mol]       18.821 [kJ/mol]       0.00716853 [Eh]
  Correction H              6.868 [kcal/mol]       28.737 [kJ/mol]       0.01094526 [Eh]
  Total H, Enthalpy at  298.15 [K]                                    -237.72645360 [Eh]

  Gibbs free energy, G = H - T * S
    Electronic G            0.000 [kcal/mol]        0.000 [kJ/mol]       0.00000000 [Eh]
    Translational G        -9.745 [kcal/mol]      -40.772 [kJ/mol]      -0.01552906 [Eh]
    Rotational G           -4.907 [kcal/mol]      -20.529 [kJ/mol]      -0.00781920 [Eh]
    Vibrational G           4.374 [kcal/mol]       18.303 [kJ/mol]       0.00697106 [Eh]
  Correction G            -10.277 [kcal/mol]      -42.998 [kJ/mol]      -0.01637720 [Eh]
  Total G, Free enthalpy at  298.15 [K]                               -237.75377606 [Eh]

    Psi4 stopped on: Tuesday, 20 April 2021 11:04AM
    Psi4 wall time for execution: 0:02:34.12

*** Psi4 exiting successfully. Buy a developer a beer!
