
    -----------------------------------------------------------------------
          Psi4: An Open-Source Ab Initio Electronic Structure Package
                               Psi4 1.3.2 release

                         Git: Rev {HEAD} ecbda83 


    R. M. Parrish, L. A. Burns, D. G. A. Smith, A. C. Simmonett,
    A. E. DePrince III, E. G. Hohenstein, U. Bozkaya, A. Yu. Sokolov,
    R. Di Remigio, R. M. Richard, J. F. Gonthier, A. M. James,
    H. R. McAlexander, A. Kumar, M. Saitow, X. Wang, B. P. Pritchard,
    P. Verma, H. F. Schaefer III, K. Patkowski, R. A. King, E. F. Valeev,
    F. A. Evangelista, J. M. Turney, T. D. Crawford, and C. D. Sherrill,
    J. Chem. Theory Comput. 13(7) pp 3185--3197 (2017).
    (doi: 10.1021/acs.jctc.7b00174)


                         Additional Contributions by
    P. Kraus, H. Kruse, M. H. Lechner, M. C. Schieber, R. A. Shaw,
    A. Alenaizan, R. Galvelis, Z. L. Glick, S. Lehtola, and J. P. Misiewicz

    -----------------------------------------------------------------------


    Psi4 started on: Tuesday, 20 April 2021 11:50AM

    Process ID: 118883
    Host:       bp1-compute00130.data.bp.acrc.priv
    PSIDATADIR: /work/zw18965/.conda/envs/p4env/share/psi4
    Memory:     500.0 MiB
    Threads:    24
    
  ==> Input File <==

--------------------------------------------------------------------------
memory 144 GB

molecule {
0 1
C    -0.000019357302   0.000019463138   0.000000000000
H     0.550957583976   0.795028935898   0.493665371846
H     0.679411832894  -0.808753517287  -0.252148612326
H    -0.773764775194  -0.371369697892   0.665364273486
H    -0.456685282991   0.385174814760  -0.906881128258}

set basis aug-cc-pV(Q+d)Z

frequencies("wB97X-V")
optimize("wB97X-V")
frequencies("wB97X-V")
--------------------------------------------------------------------------

  Memory set to 134.110 GiB by Python driver.
gradient() will perform gradient computation by finite difference of analytic energies.

         ----------------------------------------------------------
                                   FINDIF
                     R. A. King and Jonathon Misiewicz
         ---------------------------------------------------------

  Using finite-differences of energies to determine gradients.
    Generating geometries for use with 3-point formula.
    Displacement size will be 5.00e-03.
    Number of atoms is 5.
    Number of symmetric SALCs is 9.
    Translations projected? 1. Rotations projected? 1.
    Number of geometries (including reference) is 19.

  //>>>>>>>>>>>>>>>>>>>>>>>>>>>>>>>>>>>//
  //    Loading displacement 1 of 19   //
  //<<<<<<<<<<<<<<<<<<<<<<<<<<<<<<<<<<<//

*** tstart() called on bp1-compute00130.data.bp.acrc.priv
*** at Tue Apr 20 11:51:00 2021

   => Loading Basis Set <=

    Name: AUG-CC-PV(Q+D)Z
    Role: ORBITAL
    Keyword: BASIS
    atoms 1   entry C          line   319 file /work/zw18965/.conda/envs/p4env/share/psi4/basis/aug-cc-pv_qpd_z.gbs 
    atoms 2-5 entry H          line    56 file /work/zw18965/.conda/envs/p4env/share/psi4/basis/aug-cc-pv_qpd_z.gbs 


         ---------------------------------------------------------
                                   SCF
               by Justin Turney, Rob Parrish, Andy Simmonett
                          and Daniel G. A. Smith
                              RKS Reference
                       24 Threads, 137329 MiB Core
         ---------------------------------------------------------

  ==> Geometry <==

    Molecular point group: c1
    Full point group: C1

    Geometry (in Angstrom), charge = 0, multiplicity = 1:

       Center              X                  Y                   Z               Mass       
    ------------   -----------------  -----------------  -----------------  -----------------
         C            0.000000201933    -0.000000168665     0.000000005988    12.000000000000
         H            0.550977143211     0.795009304095     0.493665377834     1.007825032230
         H            0.679431392129    -0.808773149090    -0.252148606338     1.007825032230
         H           -0.773745215959    -0.371389329695     0.665364279474     1.007825032230
         H           -0.456665723756     0.385155182957    -0.906881122270     1.007825032230

  Running in c1 symmetry.

  Rotational constants: A =      5.31876  B =      5.31876  C =      5.31876 [cm^-1]
  Rotational constants: A = 159452.53341  B = 159452.48487  C = 159452.45514 [MHz]
  Nuclear repulsion =   13.485304041280616

  Charge       = 0
  Multiplicity = 1
  Electrons    = 10
  Nalpha       = 5
  Nbeta        = 5

  ==> Algorithm <==

  SCF Algorithm Type is DF.
  DIIS enabled.
  MOM disabled.
  Fractional occupation disabled.
  Guess Type is SAD.
  Energy threshold   = 1.00e-08
  Density threshold  = 1.00e-08
  Integral threshold = 0.00e+00

  ==> Primary Basis <==

  Basis Set: AUG-CC-PV(Q+D)Z
    Blend: AUG-CC-PV(Q+D)Z
    Number of shells: 76
    Number of basis function: 264
    Number of Cartesian functions: 325
    Spherical Harmonics?: true
    Max angular momentum: 4

  ==> DFT Potential <==

   => Composite Functional: WB97X-V <= 

    wB97X-V Hyb-GGA Exchange-Correlation Functional

    N. Mardirossian and M. Head-Gordon, Phys. Chem. Chem. Phys. 16, 9904 (2014)

    Deriv               =              1
    GGA                 =           TRUE
    Meta                =          FALSE

    Exchange Hybrid     =           TRUE
    MP2 Hybrid          =          FALSE

   => Exchange-Correlation Functionals <=

    1.0000   wB97X-V range-separated functional

   => Exact (HF) Exchange <=

    0.8330            HF,LR [omega = 0.3000]
    0.1670               HF 

   => VV10 Non-Local Parameters <=

    VV10 B              =     6.0000E+00
    VV10 C              =     1.0000E-02

   => Molecular Quadrature <=

    Radial Scheme          =       TREUTLER
    Pruning Scheme         =           FLAT
    Nuclear Scheme         =       TREUTLER

    BS radius alpha        =              1
    Pruning alpha          =              1
    Radial Points          =             75
    Spherical Points       =            302
    Total Points           =         113250
    Total Blocks           =            908
    Max Points             =            254
    Max Functions          =            264

   => Loading Basis Set <=

    Name: (AUG-CC-PV(Q+D)Z AUX)
    Role: JKFIT
    Keyword: DF_BASIS_SCF
    atoms 1   entry C          line   178 file /work/zw18965/.conda/envs/p4env/share/psi4/basis/aug-cc-pvqz-jkfit.gbs 
    atoms 2-5 entry H          line    70 file /work/zw18965/.conda/envs/p4env/share/psi4/basis/aug-cc-pvqz-jkfit.gbs 

  ==> Pre-Iterations <==

   -------------------------------------------------------
    Irrep   Nso     Nmo     Nalpha   Nbeta   Ndocc  Nsocc
   -------------------------------------------------------
     A        264     264       0       0       0       0
   -------------------------------------------------------
    Total     264     264       5       5       5       0
   -------------------------------------------------------

  ==> Integral Setup <==

  ==> DiskDFJK: Density-Fitted J/K Matrices <==

    J tasked:                  Yes
    K tasked:                  Yes
    wK tasked:                 Yes
    Omega:               3.000E-01
    OpenMP threads:             24
    Integrals threads:          24
    Memory [MiB]:           102173
    Algorithm:                Core
    Integral Cache:           NONE
    Schwarz Cutoff:          1E-12
    Fitting Condition:       1E-10

   => Auxiliary Basis Set <=

  Basis Set: (AUG-CC-PV(Q+D)Z AUX)
    Blend: AUG-CC-PVQZ-JKFIT
    Number of shells: 106
    Number of basis function: 446
    Number of Cartesian functions: 602
    Spherical Harmonics?: true
    Max angular momentum: 5

  Cached 100.0% of DFT collocation blocks in 0.804 [GiB].

  Minimum eigenvalue in the overlap matrix is 1.9108528770E-05.
  Using Symmetric Orthogonalization.

  SCF Guess: Superposition of Atomic Densities via on-the-fly atomic UHF.

  ==> Iterations <==

                           Total Energy        Delta E     RMS |[F,P]|

   @DF-RKS iter SAD:   -39.95748002244207   -3.99575e+01   0.00000e+00 
   @DF-RKS iter   1:   -40.38855644459011   -4.31076e-01   1.98488e-03 DIIS
   @DF-RKS iter   2:   -40.46099463613911   -7.24382e-02   1.31620e-03 DIIS
   @DF-RKS iter   3:   -40.51833383514587   -5.73392e-02   5.60776e-05 DIIS
   @DF-RKS iter   4:   -40.51860841406054   -2.74579e-04   1.03039e-05 DIIS
   @DF-RKS iter   5:   -40.51861821968050   -9.80562e-06   1.11907e-06 DIIS
   @DF-RKS iter   6:   -40.51861835065625   -1.30976e-07   1.30303e-07 DIIS
   @DF-RKS iter   7:   -40.51861835219261   -1.53636e-09   8.53802e-09 DIIS
  Energy and wave function converged.


  ==> Post-Iterations <==

    Orbital Energies [Eh]
    ---------------------

    Doubly Occupied:                                                      

       1A    -10.246497     2A     -0.824155     3A     -0.499585  
       4A     -0.499584     5A     -0.499584  

    Virtual:                                                              

       6A      0.029557     7A      0.049081     8A      0.049095  
       9A      0.049123    10A      0.108249    11A      0.108260  
      12A      0.108272    13A      0.117865    14A      0.176404  
      15A      0.176409    16A      0.176419    17A      0.200062  
      18A      0.200063    19A      0.262300    20A      0.262301  
      21A      0.262303    22A      0.264972    23A      0.280750  
      24A      0.280751    25A      0.280752    26A      0.292076  
      27A      0.292078    28A      0.292078    29A      0.316436  
      30A      0.355799    31A      0.355802    32A      0.355807  
      33A      0.393507    34A      0.393508    35A      0.521075  
      36A      0.521076    37A      0.525800    38A      0.525800  
      39A      0.525802    40A      0.565374    41A      0.659352  
      42A      0.659353    43A      0.659354    44A      0.673255  
      45A      0.673255    46A      0.673258    47A      0.705096  
      48A      0.705098    49A      0.705099    50A      0.715287  
      51A      0.736397    52A      0.736399    53A      0.736400  
      54A      0.782818    55A      0.782820    56A      0.782820  
      57A      0.858293    58A      0.872397    59A      0.872402  
      60A      0.872408    61A      0.890016    62A      0.890016  
      63A      0.937417    64A      0.937418    65A      1.040973  
      66A      1.046348    67A      1.046351    68A      1.046354  
      69A      1.095907    70A      1.095909    71A      1.095910  
      72A      1.180893    73A      1.180894    74A      1.180896  
      75A      1.308642    76A      1.308643    77A      1.308645  
      78A      1.406270    79A      1.406270    80A      1.406271  
      81A      1.448102    82A      1.499129    83A      1.499140  
      84A      1.499143    85A      1.598213    86A      1.598215  
      87A      1.750289    88A      1.750292    89A      1.750294  
      90A      1.802180    91A      1.802182    92A      1.802186  
      93A      1.814243    94A      1.832855    95A      1.832857  
      96A      1.863003    97A      1.863005    98A      1.863007  
      99A      1.897953   100A      1.913772   101A      1.913774  
     102A      1.940839   103A      1.940843   104A      1.940847  
     105A      2.012339   106A      2.012341   107A      2.012342  
     108A      2.030803   109A      2.030804   110A      2.030806  
     111A      2.080740   112A      2.106685   113A      2.152918  
     114A      2.152919   115A      2.152920   116A      2.196570  
     117A      2.196572   118A      2.196575   119A      2.309541  
     120A      2.309546   121A      2.309547   122A      2.554439  
     123A      2.554446   124A      2.554457   125A      2.581628  
     126A      2.581630   127A      2.667119   128A      2.667123  
     129A      2.667126   130A      2.683477   131A      2.683483  
     132A      2.683488   133A      2.684858   134A      2.888915  
     135A      2.888917   136A      2.888919   137A      2.890202  
     138A      2.890207   139A      3.027929   140A      3.027933  
     141A      3.027934   142A      3.065477   143A      3.225606  
     144A      3.225607   145A      3.546475   146A      3.546479  
     147A      3.546485   148A      3.551771   149A      3.551786  
     150A      3.551790   151A      3.703022   152A      3.753842  
     153A      3.753854   154A      3.753863   155A      3.857716  
     156A      3.857725   157A      3.857725   158A      3.929102  
     159A      3.929107   160A      3.929110   161A      4.004414  
     162A      4.088669   163A      4.088670   164A      4.129949  
     165A      4.129950   166A      4.129954   167A      4.169091  
     168A      4.169106   169A      4.538024   170A      4.538025  
     171A      4.538027   172A      4.751352   173A      4.751358  
     174A      4.751367   175A      4.922575   176A      5.849883  
     177A      5.849883   178A      5.883249   179A      5.883253  
     180A      5.883254   181A      5.988651   182A      5.988652  
     183A      5.988656   184A      6.264758   185A      6.526870  
     186A      6.566730   187A      6.566731   188A      6.566733  
     189A      6.634619   190A      6.634620   191A      6.634621  
     192A      6.682965   193A      6.682967   194A      6.682970  
     195A      6.745326   196A      6.745328   197A      6.745333  
     198A      6.960164   199A      6.960165   200A      6.960166  
     201A      7.093548   202A      7.273796   203A      7.273797  
     204A      7.273799   205A      7.291068   206A      7.487615  
     207A      7.487616   208A      7.630385   209A      7.630387  
     210A      7.630388   211A      7.642224   212A      7.642227  
     213A      7.642233   214A      7.799285   215A      7.799286  
     216A      8.228911   217A      8.228913   218A      8.228913  
     219A      8.277647   220A      8.341237   221A      8.341238  
     222A      8.395429   223A      8.395431   224A      8.395432  
     225A      8.871886   226A      8.871893   227A      8.871900  
     228A      8.930308   229A      8.930316   230A      8.930320  
     231A      9.016501   232A      9.016511   233A      9.016518  
     234A      9.142063   235A      9.142067   236A      9.142071  
     237A      9.352802   238A      9.352804   239A      9.440399  
     240A      9.693375   241A      9.693380   242A      9.765168  
     243A      9.765172   244A      9.765173   245A      9.977463  
     246A      9.977471   247A      9.977477   248A     10.029138  
     249A     10.029142   250A     10.287389   251A     10.287394  
     252A     10.287395   253A     10.594269   254A     10.673322  
     255A     10.673322   256A     10.673325   257A     11.212683  
     258A     11.212692   259A     11.212693   260A     12.800311  
     261A     12.800315   262A     12.800320   263A     13.458444  
     264A     28.639297  

    Final Occupation by Irrep:
              A 
    DOCC [     5 ]

  @DF-RKS Final Energy:   -40.51861835219261

   => Energetics <=

    Nuclear Repulsion Energy =             13.4853040412806156
    One-Electron Energy =                 -79.9204315797189366
    Two-Electron Energy =                  30.4265788745168102
    DFT Exchange-Correlation Energy =      -4.5514382111940908
    Empirical Dispersion Energy =           0.0000000000000000
    VV10 Nonlocal Energy =                  0.0413685229229926
    Total Energy =                        -40.5186183521926111

Computation Completed


Properties will be evaluated at   0.000000,   0.000000,   0.000000 [a0]

Properties computed using the SCF density matrix

  Nuclear Dipole Moment: [e a0]
     X:    -0.0000      Y:     0.0000      Z:    -0.0000

  Electronic Dipole Moment: [e a0]
     X:     0.0000      Y:    -0.0000      Z:     0.0000

  Dipole Moment: [e a0]
     X:     0.0000      Y:     0.0000      Z:     0.0000     Total:     0.0000

  Dipole Moment: [D]
     X:     0.0000      Y:     0.0000      Z:     0.0000     Total:     0.0000


*** tstop() called on bp1-compute00130.data.bp.acrc.priv at Tue Apr 20 11:51:07 2021
Module time:
	user time   =     140.64 seconds =       2.34 minutes
	system time =       7.63 seconds =       0.13 minutes
	total time  =          7 seconds =       0.12 minutes
Total time:
	user time   =     140.64 seconds =       2.34 minutes
	system time =       7.63 seconds =       0.13 minutes
	total time  =          7 seconds =       0.12 minutes

  //>>>>>>>>>>>>>>>>>>>>>>>>>>>>>>>>>>>//
  //    Loading displacement 2 of 19   //
  //<<<<<<<<<<<<<<<<<<<<<<<<<<<<<<<<<<<//

*** tstart() called on bp1-compute00130.data.bp.acrc.priv
*** at Tue Apr 20 11:51:07 2021

   => Loading Basis Set <=

    Name: AUG-CC-PV(Q+D)Z
    Role: ORBITAL
    Keyword: BASIS
    atoms 1   entry C          line   319 file /work/zw18965/.conda/envs/p4env/share/psi4/basis/aug-cc-pv_qpd_z.gbs 
    atoms 2-5 entry H          line    56 file /work/zw18965/.conda/envs/p4env/share/psi4/basis/aug-cc-pv_qpd_z.gbs 


         ---------------------------------------------------------
                                   SCF
               by Justin Turney, Rob Parrish, Andy Simmonett
                          and Daniel G. A. Smith
                              RKS Reference
                       24 Threads, 137329 MiB Core
         ---------------------------------------------------------

  ==> Geometry <==

    Molecular point group: c1
    Full point group: C1

    Geometry (in Angstrom), charge = 0, multiplicity = 1:

       Center              X                  Y                   Z               Mass       
    ------------   -----------------  -----------------  -----------------  -----------------
         C           -0.000382815647    -0.000000168665     0.000000005988    12.000000000000
         H            0.552117273631     0.795009304631     0.493665377815     1.007825032230
         H            0.680571524083    -0.808773148429    -0.252148606361     1.007825032230
         H           -0.772605084399    -0.371389330448     0.665364279501     1.007825032230
         H           -0.455525592986     0.385155182513    -0.906881122254     1.007825032230

  Running in c1 symmetry.

  Rotational constants: A =      5.31876  B =      5.31875  C =      5.31875 [cm^-1]
  Rotational constants: A = 159452.49893  B = 159452.16695  C = 159452.10389 [MHz]
  Nuclear repulsion =   13.485304046207210

  Charge       = 0
  Multiplicity = 1
  Electrons    = 10
  Nalpha       = 5
  Nbeta        = 5

  ==> Algorithm <==

  SCF Algorithm Type is DF.
  DIIS enabled.
  MOM disabled.
  Fractional occupation disabled.
  Guess Type is SAD.
  Energy threshold   = 1.00e-08
  Density threshold  = 1.00e-08
  Integral threshold = 0.00e+00

  ==> Primary Basis <==

  Basis Set: AUG-CC-PV(Q+D)Z
    Blend: AUG-CC-PV(Q+D)Z
    Number of shells: 76
    Number of basis function: 264
    Number of Cartesian functions: 325
    Spherical Harmonics?: true
    Max angular momentum: 4

  ==> DFT Potential <==

   => Composite Functional: WB97X-V <= 

    wB97X-V Hyb-GGA Exchange-Correlation Functional

    N. Mardirossian and M. Head-Gordon, Phys. Chem. Chem. Phys. 16, 9904 (2014)

    Deriv               =              1
    GGA                 =           TRUE
    Meta                =          FALSE

    Exchange Hybrid     =           TRUE
    MP2 Hybrid          =          FALSE

   => Exchange-Correlation Functionals <=

    1.0000   wB97X-V range-separated functional

   => Exact (HF) Exchange <=

    0.8330            HF,LR [omega = 0.3000]
    0.1670               HF 

   => VV10 Non-Local Parameters <=

    VV10 B              =     6.0000E+00
    VV10 C              =     1.0000E-02

   => Molecular Quadrature <=

    Radial Scheme          =       TREUTLER
    Pruning Scheme         =           FLAT
    Nuclear Scheme         =       TREUTLER

    BS radius alpha        =              1
    Pruning alpha          =              1
    Radial Points          =             75
    Spherical Points       =            302
    Total Points           =         113250
    Total Blocks           =            898
    Max Points             =            256
    Max Functions          =            264

   => Loading Basis Set <=

    Name: (AUG-CC-PV(Q+D)Z AUX)
    Role: JKFIT
    Keyword: DF_BASIS_SCF
    atoms 1   entry C          line   178 file /work/zw18965/.conda/envs/p4env/share/psi4/basis/aug-cc-pvqz-jkfit.gbs 
    atoms 2-5 entry H          line    70 file /work/zw18965/.conda/envs/p4env/share/psi4/basis/aug-cc-pvqz-jkfit.gbs 

  ==> Pre-Iterations <==

   -------------------------------------------------------
    Irrep   Nso     Nmo     Nalpha   Nbeta   Ndocc  Nsocc
   -------------------------------------------------------
     A        264     264       0       0       0       0
   -------------------------------------------------------
    Total     264     264       5       5       5       0
   -------------------------------------------------------

  ==> Integral Setup <==

  ==> DiskDFJK: Density-Fitted J/K Matrices <==

    J tasked:                  Yes
    K tasked:                  Yes
    wK tasked:                 Yes
    Omega:               3.000E-01
    OpenMP threads:             24
    Integrals threads:          24
    Memory [MiB]:           102171
    Algorithm:                Core
    Integral Cache:           NONE
    Schwarz Cutoff:          1E-12
    Fitting Condition:       1E-10

   => Auxiliary Basis Set <=

  Basis Set: (AUG-CC-PV(Q+D)Z AUX)
    Blend: AUG-CC-PVQZ-JKFIT
    Number of shells: 106
    Number of basis function: 446
    Number of Cartesian functions: 602
    Spherical Harmonics?: true
    Max angular momentum: 5

  Cached 100.0% of DFT collocation blocks in 0.806 [GiB].

  Minimum eigenvalue in the overlap matrix is 1.9108253696E-05.
  Using Symmetric Orthogonalization.

  SCF Guess: Superposition of Atomic Densities via on-the-fly atomic UHF.

  ==> Iterations <==

                           Total Energy        Delta E     RMS |[F,P]|

   @DF-RKS iter SAD:   -39.95747755016014   -3.99575e+01   0.00000e+00 
   @DF-RKS iter   1:   -40.38855295456238   -4.31075e-01   1.98489e-03 DIIS
   @DF-RKS iter   2:   -40.46099134528979   -7.24384e-02   1.31621e-03 DIIS
   @DF-RKS iter   3:   -40.51833123389471   -5.73399e-02   5.60779e-05 DIIS
   @DF-RKS iter   4:   -40.51860581690428   -2.74583e-04   1.03040e-05 DIIS
   @DF-RKS iter   5:   -40.51861562278167   -9.80588e-06   1.11910e-06 DIIS
   @DF-RKS iter   6:   -40.51861575376583   -1.30984e-07   1.30314e-07 DIIS
   @DF-RKS iter   7:   -40.51861575530373   -1.53791e-09   8.55231e-09 DIIS
  Energy and wave function converged.


  ==> Post-Iterations <==

    Orbital Energies [Eh]
    ---------------------

    Doubly Occupied:                                                      

       1A    -10.246497     2A     -0.824155     3A     -0.500009  
       4A     -0.499572     5A     -0.499171  

    Virtual:                                                              

       6A      0.029548     7A      0.049023     8A      0.049083  
       9A      0.049114    10A      0.108214    11A      0.108247  
      12A      0.108277    13A      0.117851    14A      0.176365  
      15A      0.176403    16A      0.176434    17A      0.200062  
      18A      0.200063    19A      0.262245    20A      0.262298  
      21A      0.262356    22A      0.264970    23A      0.280741  
      24A      0.280751    25A      0.280761    26A      0.292049  
      27A      0.292074    28A      0.292108    29A      0.316430  
      30A      0.355586    31A      0.355792    32A      0.356012  
      33A      0.393508    34A      0.393508    35A      0.521074  
      36A      0.521076    37A      0.525790    38A      0.525802  
      39A      0.525812    40A      0.565373    41A      0.659320  
      42A      0.659350    43A      0.659388    44A      0.673212  
      45A      0.673253    46A      0.673296    47A      0.705041  
      48A      0.705096    49A      0.705156    50A      0.715286  
      51A      0.736195    52A      0.736394    53A      0.736608  
      54A      0.782803    55A      0.782816    56A      0.782839  
      57A      0.858290    58A      0.872259    59A      0.872408  
      60A      0.872548    61A      0.890015    62A      0.890018  
      63A      0.937418    64A      0.937419    65A      1.040969  
      66A      1.046202    67A      1.046358    68A      1.046493  
      69A      1.095815    70A      1.095914    71A      1.096005  
      72A      1.180836    73A      1.180891    74A      1.180955  
      75A      1.308542    76A      1.308648    77A      1.308741  
      78A      1.405716    79A      1.406249    80A      1.406841  
      81A      1.448106    82A      1.498941    83A      1.499134  
      84A      1.499335    85A      1.598212    86A      1.598216  
      87A      1.750117    88A      1.750294    89A      1.750457  
      90A      1.801916    91A      1.802161    92A      1.802462  
      93A      1.814246    94A      1.832853    95A      1.832869  
      96A      1.862449    97A      1.863009    98A      1.863538  
      99A      1.897960   100A      1.913747   101A      1.913771  
     102A      1.940467   103A      1.940859   104A      1.941224  
     105A      2.011496   106A      2.012315   107A      2.013205  
     108A      2.030747   109A      2.030805   110A      2.030867  
     111A      2.080734   112A      2.106683   113A      2.152509  
     114A      2.152919   115A      2.153342   116A      2.196497  
     117A      2.196572   118A      2.196643   119A      2.309134  
     120A      2.309558   121A      2.309942   122A      2.553793  
     123A      2.554463   124A      2.555084   125A      2.581629  
     126A      2.581633   127A      2.666561   128A      2.667089  
     129A      2.667698   130A      2.683340   131A      2.683488  
     132A      2.683616   133A      2.684876   134A      2.888692  
     135A      2.888805   136A      2.889026   137A      2.890219  
     138A      2.890404   139A      3.026859   140A      3.027887  
     141A      3.029035   142A      3.065486   143A      3.225606  
     144A      3.225607   145A      3.546157   146A      3.546458  
     147A      3.546516   148A      3.551763   149A      3.551798  
     150A      3.552062   151A      3.703030   152A      3.753375  
     153A      3.753865   154A      3.754316   155A      3.857204  
     156A      3.857701   157A      3.858254   158A      3.928522  
     159A      3.929120   160A      3.929681   161A      4.004421  
     162A      4.088643   163A      4.088675   164A      4.129680  
     165A      4.129940   166A      4.130233   167A      4.169093  
     168A      4.169133   169A      4.537883   170A      4.538041  
     171A      4.538152   172A      4.749818   173A      4.751388  
     174A      4.752864   175A      4.922576   176A      5.849843  
     177A      5.849887   178A      5.882084   179A      5.883273  
     180A      5.884447   181A      5.988090   182A      5.988645  
     183A      5.989267   184A      6.264754   185A      6.526869  
     186A      6.565923   187A      6.566750   188A      6.567449  
     189A      6.634516   190A      6.634621   191A      6.634770  
     192A      6.681389   193A      6.682923   194A      6.684608  
     195A      6.741688   196A      6.745224   197A      6.749082  
     198A      6.959386   199A      6.960179   200A      6.960921  
     201A      7.093546   202A      7.273585   203A      7.273670  
     204A      7.273918   205A      7.291254   206A      7.487608  
     207A      7.487619   208A      7.629844   209A      7.630376  
     210A      7.630912   211A      7.639892   212A      7.642286  
     213A      7.644567   214A      7.799286   215A      7.799294  
     216A      8.228576   217A      8.228803   218A      8.229216  
     219A      8.277779   220A      8.341232   221A      8.341261  
     222A      8.394522   223A      8.395502   224A      8.396314  
     225A      8.870416   226A      8.871911   227A      8.873296  
     228A      8.930086   229A      8.930302   230A      8.930547  
     231A      9.015125   232A      9.016531   233A      9.017869  
     234A      9.141069   235A      9.142036   236A      9.143041  
     237A      9.352792   238A      9.352834   239A      9.440417  
     240A      9.693269   241A      9.693304   242A      9.764557  
     243A      9.765284   244A      9.765768   245A      9.977094  
     246A      9.977473   247A      9.977856   248A     10.029132  
     249A     10.029143   250A     10.285949   251A     10.287477  
     252A     10.288846   253A     10.594289   254A     10.672202  
     255A     10.673372   256A     10.674437   257A     11.208558  
     258A     11.212817   259A     11.216712   260A     12.793057  
     261A     12.800080   262A     12.807774   263A     13.458432  
     264A     28.639248  

    Final Occupation by Irrep:
              A 
    DOCC [     5 ]

  @DF-RKS Final Energy:   -40.51861575530373

   => Energetics <=

    Nuclear Repulsion Energy =             13.4853040462072098
    One-Electron Energy =                 -79.9204255734441631
    Two-Electron Energy =                  30.4265750763528473
    DFT Exchange-Correlation Energy =      -4.5514380040107829
    Empirical Dispersion Energy =           0.0000000000000000
    VV10 Nonlocal Energy =                  0.0413686995911620
    Total Energy =                        -40.5186157553037347

Computation Completed


Properties will be evaluated at   0.000000,   0.000000,   0.000000 [a0]

Properties computed using the SCF density matrix

  Nuclear Dipole Moment: [e a0]
     X:     0.0043      Y:     0.0000      Z:    -0.0000

  Electronic Dipole Moment: [e a0]
     X:    -0.0043      Y:    -0.0000      Z:    -0.0000

  Dipole Moment: [e a0]
     X:     0.0000      Y:     0.0000      Z:    -0.0000     Total:     0.0000

  Dipole Moment: [D]
     X:     0.0000      Y:     0.0000      Z:    -0.0000     Total:     0.0000


*** tstop() called on bp1-compute00130.data.bp.acrc.priv at Tue Apr 20 11:51:13 2021
Module time:
	user time   =     142.30 seconds =       2.37 minutes
	system time =       3.87 seconds =       0.06 minutes
	total time  =          6 seconds =       0.10 minutes
Total time:
	user time   =     283.11 seconds =       4.72 minutes
	system time =      11.51 seconds =       0.19 minutes
	total time  =         13 seconds =       0.22 minutes

  //>>>>>>>>>>>>>>>>>>>>>>>>>>>>>>>>>>>//
  //    Loading displacement 3 of 19   //
  //<<<<<<<<<<<<<<<<<<<<<<<<<<<<<<<<<<<//

*** tstart() called on bp1-compute00130.data.bp.acrc.priv
*** at Tue Apr 20 11:51:13 2021

   => Loading Basis Set <=

    Name: AUG-CC-PV(Q+D)Z
    Role: ORBITAL
    Keyword: BASIS
    atoms 1   entry C          line   319 file /work/zw18965/.conda/envs/p4env/share/psi4/basis/aug-cc-pv_qpd_z.gbs 
    atoms 2-5 entry H          line    56 file /work/zw18965/.conda/envs/p4env/share/psi4/basis/aug-cc-pv_qpd_z.gbs 


         ---------------------------------------------------------
                                   SCF
               by Justin Turney, Rob Parrish, Andy Simmonett
                          and Daniel G. A. Smith
                              RKS Reference
                       24 Threads, 137329 MiB Core
         ---------------------------------------------------------

  ==> Geometry <==

    Molecular point group: c1
    Full point group: C1

    Geometry (in Angstrom), charge = 0, multiplicity = 1:

       Center              X                  Y                   Z               Mass       
    ------------   -----------------  -----------------  -----------------  -----------------
         C            0.000383219513    -0.000000168665     0.000000005988    12.000000000000
         H            0.549837012790     0.795009303559     0.493665377853     1.007825032230
         H            0.678291260174    -0.808773149751    -0.252148606314     1.007825032230
         H           -0.774885347520    -0.371389328943     0.665364279447     1.007825032230
         H           -0.457805854527     0.385155183401    -0.906881122286     1.007825032230

  Running in c1 symmetry.

  Rotational constants: A =      5.31876  B =      5.31875  C =      5.31875 [cm^-1]
  Rotational constants: A = 159452.49896  B = 159452.16617  C = 159452.10315 [MHz]
  Nuclear repulsion =   13.485304036332181

  Charge       = 0
  Multiplicity = 1
  Electrons    = 10
  Nalpha       = 5
  Nbeta        = 5

  ==> Algorithm <==

  SCF Algorithm Type is DF.
  DIIS enabled.
  MOM disabled.
  Fractional occupation disabled.
  Guess Type is SAD.
  Energy threshold   = 1.00e-08
  Density threshold  = 1.00e-08
  Integral threshold = 0.00e+00

  ==> Primary Basis <==

  Basis Set: AUG-CC-PV(Q+D)Z
    Blend: AUG-CC-PV(Q+D)Z
    Number of shells: 76
    Number of basis function: 264
    Number of Cartesian functions: 325
    Spherical Harmonics?: true
    Max angular momentum: 4

  ==> DFT Potential <==

   => Composite Functional: WB97X-V <= 

    wB97X-V Hyb-GGA Exchange-Correlation Functional

    N. Mardirossian and M. Head-Gordon, Phys. Chem. Chem. Phys. 16, 9904 (2014)

    Deriv               =              1
    GGA                 =           TRUE
    Meta                =          FALSE

    Exchange Hybrid     =           TRUE
    MP2 Hybrid          =          FALSE

   => Exchange-Correlation Functionals <=

    1.0000   wB97X-V range-separated functional

   => Exact (HF) Exchange <=

    0.8330            HF,LR [omega = 0.3000]
    0.1670               HF 

   => VV10 Non-Local Parameters <=

    VV10 B              =     6.0000E+00
    VV10 C              =     1.0000E-02

   => Molecular Quadrature <=

    Radial Scheme          =       TREUTLER
    Pruning Scheme         =           FLAT
    Nuclear Scheme         =       TREUTLER

    BS radius alpha        =              1
    Pruning alpha          =              1
    Radial Points          =             75
    Spherical Points       =            302
    Total Points           =         113250
    Total Blocks           =            900
    Max Points             =            256
    Max Functions          =            264

   => Loading Basis Set <=

    Name: (AUG-CC-PV(Q+D)Z AUX)
    Role: JKFIT
    Keyword: DF_BASIS_SCF
    atoms 1   entry C          line   178 file /work/zw18965/.conda/envs/p4env/share/psi4/basis/aug-cc-pvqz-jkfit.gbs 
    atoms 2-5 entry H          line    70 file /work/zw18965/.conda/envs/p4env/share/psi4/basis/aug-cc-pvqz-jkfit.gbs 

  ==> Pre-Iterations <==

   -------------------------------------------------------
    Irrep   Nso     Nmo     Nalpha   Nbeta   Ndocc  Nsocc
   -------------------------------------------------------
     A        264     264       0       0       0       0
   -------------------------------------------------------
    Total     264     264       5       5       5       0
   -------------------------------------------------------

  ==> Integral Setup <==

  ==> DiskDFJK: Density-Fitted J/K Matrices <==

    J tasked:                  Yes
    K tasked:                  Yes
    wK tasked:                 Yes
    Omega:               3.000E-01
    OpenMP threads:             24
    Integrals threads:          24
    Memory [MiB]:           102172
    Algorithm:                Core
    Integral Cache:           NONE
    Schwarz Cutoff:          1E-12
    Fitting Condition:       1E-10

   => Auxiliary Basis Set <=

  Basis Set: (AUG-CC-PV(Q+D)Z AUX)
    Blend: AUG-CC-PVQZ-JKFIT
    Number of shells: 106
    Number of basis function: 446
    Number of Cartesian functions: 602
    Spherical Harmonics?: true
    Max angular momentum: 5

  Cached 100.0% of DFT collocation blocks in 0.805 [GiB].

  Minimum eigenvalue in the overlap matrix is 1.9108253267E-05.
  Using Symmetric Orthogonalization.

  SCF Guess: Superposition of Atomic Densities via on-the-fly atomic UHF.

  ==> Iterations <==

                           Total Energy        Delta E     RMS |[F,P]|

   @DF-RKS iter SAD:   -39.95747755208123   -3.99575e+01   0.00000e+00 
   @DF-RKS iter   1:   -40.38855295365954   -4.31075e-01   1.98489e-03 DIIS
   @DF-RKS iter   2:   -40.46099134561741   -7.24384e-02   1.31621e-03 DIIS
   @DF-RKS iter   3:   -40.51833123721038   -5.73399e-02   5.60779e-05 DIIS
   @DF-RKS iter   4:   -40.51860582024696   -2.74583e-04   1.03040e-05 DIIS
   @DF-RKS iter   5:   -40.51861562612152   -9.80587e-06   1.11910e-06 DIIS
   @DF-RKS iter   6:   -40.51861575710417   -1.30983e-07   1.30313e-07 DIIS
   @DF-RKS iter   7:   -40.51861575864087   -1.53670e-09   8.55196e-09 DIIS
  Energy and wave function converged.


  ==> Post-Iterations <==

    Orbital Energies [Eh]
    ---------------------

    Doubly Occupied:                                                      

       1A    -10.246497     2A     -0.824155     3A     -0.499999  
       4A     -0.499595     5A     -0.499159  

    Virtual:                                                              

       6A      0.029548     7A      0.049061     8A      0.049071  
       9A      0.049088    10A      0.108186    11A      0.108250  
      12A      0.108302    13A      0.117851    14A      0.176346  
      15A      0.176405    16A      0.176451    17A      0.200062  
      18A      0.200063    19A      0.262240    20A      0.262301  
      21A      0.262359    22A      0.264970    23A      0.280740  
      24A      0.280751    25A      0.280761    26A      0.292049  
      27A      0.292075    28A      0.292106    29A      0.316430  
      30A      0.355568    31A      0.355804    32A      0.356018  
      33A      0.393508    34A      0.393508    35A      0.521074  
      36A      0.521076    37A      0.525790    38A      0.525801  
      39A      0.525812    40A      0.565373    41A      0.659319  
      42A      0.659352    43A      0.659387    44A      0.673207  
      45A      0.673255    46A      0.673300    47A      0.705040  
      48A      0.705099    49A      0.705154    50A      0.715286  
      51A      0.736186    52A      0.736405    53A      0.736606  
      54A      0.782802    55A      0.782817    56A      0.782839  
      57A      0.858290    58A      0.872273    59A      0.872401  
      60A      0.872542    61A      0.890015    62A      0.890018  
      63A      0.937418    64A      0.937419    65A      1.040969  
      66A      1.046205    67A      1.046351    68A      1.046497  
      69A      1.095808    70A      1.095919    71A      1.096006  
      72A      1.180833    73A      1.180895    74A      1.180955  
      75A      1.308544    76A      1.308643    77A      1.308744  
      78A      1.405698    79A      1.406278    80A      1.406829  
      81A      1.448106    82A      1.498936    83A      1.499144  
      84A      1.499329    85A      1.598212    86A      1.598216  
      87A      1.750122    88A      1.750285    89A      1.750461  
      90A      1.801908    91A      1.802175    92A      1.802456  
      93A      1.814246    94A      1.832853    95A      1.832869  
      96A      1.862465    97A      1.862981    98A      1.863552  
      99A      1.897960   100A      1.913747   101A      1.913771  
     102A      1.940457   103A      1.940879   104A      1.941213  
     105A      2.011472   106A      2.012360   107A      2.013184  
     108A      2.030745   109A      2.030808   110A      2.030867  
     111A      2.080734   112A      2.106683   113A      2.152497  
     114A      2.152941   115A      2.153332   116A      2.196497  
     117A      2.196568   118A      2.196647   119A      2.309143  
     120A      2.309536   121A      2.309954   122A      2.553815  
     123A      2.554429   124A      2.555095   125A      2.581629  
     126A      2.581633   127A      2.666543   128A      2.667118  
     129A      2.667686   130A      2.683349   131A      2.683481  
     132A      2.683615   133A      2.684876   134A      2.888684  
     135A      2.888796   136A      2.889038   137A      2.890220  
     138A      2.890407   139A      3.026827   140A      3.027945  
     141A      3.029009   142A      3.065486   143A      3.225606  
     144A      3.225607   145A      3.546156   146A      3.546429  
     147A      3.546549   148A      3.551731   149A      3.551831  
     150A      3.552060   151A      3.703030   152A      3.753387  
     153A      3.753840   154A      3.754329   155A      3.857188  
     156A      3.857729   157A      3.858243   158A      3.928534  
     159A      3.929089   160A      3.929699   161A      4.004420  
     162A      4.088643   163A      4.088675   164A      4.129672  
     165A      4.129954   166A      4.130226   167A      4.169093  
     168A      4.169133   169A      4.537887   170A      4.538034  
     171A      4.538155   172A      4.749853   173A      4.751307  
     174A      4.752909   175A      4.922576   176A      5.849843  
     177A      5.849887   178A      5.882053   179A      5.883335  
     180A      5.884415   181A      5.988074   182A      5.988677  
     183A      5.989252   184A      6.264753   185A      6.526869  
     186A      6.565941   187A      6.566710   188A      6.567472  
     189A      6.634508   190A      6.634629   191A      6.634771  
     192A      6.681344   193A      6.683008   194A      6.684568  
     195A      6.741589   196A      6.745418   197A      6.748987  
     198A      6.959404   199A      6.960139   200A      6.960943  
     201A      7.093546   202A      7.273558   203A      7.273693  
     204A      7.273922   205A      7.291254   206A      7.487608  
     207A      7.487619   208A      7.629829   209A      7.630403  
     210A      7.630899   211A      7.639954   212A      7.642164  
     213A      7.644629   214A      7.799287   215A      7.799294  
     216A      8.228600   217A      8.228779   218A      8.229217  
     219A      8.277779   220A      8.341232   221A      8.341261  
     222A      8.394547   223A      8.395455   224A      8.396337  
     225A      8.870448   226A      8.871835   227A      8.873340  
     228A      8.930086   229A      8.930314   230A      8.930535  
     231A      9.015167   232A      9.016459   233A      9.017899  
     234A      9.141094   235A      9.141984   236A      9.143068  
     237A      9.352792   238A      9.352834   239A      9.440417  
     240A      9.693269   241A      9.693304   242A      9.764570  
     243A      9.765252   244A      9.765787   245A      9.977088  
     246A      9.977493   247A      9.977841   248A     10.029132  
     249A     10.029144   250A     10.285910   251A     10.287553  
     252A     10.288809   253A     10.594289   254A     10.672231  
     255A     10.673313   256A     10.674467   257A     11.208662  
     258A     11.212602   259A     11.216822   260A     12.792854  
     261A     12.800466   262A     12.807591   263A     13.458432  
     264A     28.639248  

    Final Occupation by Irrep:
              A 
    DOCC [     5 ]

  @DF-RKS Final Energy:   -40.51861575864087

   => Energetics <=

    Nuclear Repulsion Energy =             13.4853040363321810
    One-Electron Energy =                 -79.9204255475527248
    Two-Electron Energy =                  30.4265750561516342
    DFT Exchange-Correlation Energy =      -4.5514380053523844
    Empirical Dispersion Energy =           0.0000000000000000
    VV10 Nonlocal Energy =                  0.0413687017804251
    Total Energy =                        -40.5186157586408626

Computation Completed


Properties will be evaluated at   0.000000,   0.000000,   0.000000 [a0]

Properties computed using the SCF density matrix

  Nuclear Dipole Moment: [e a0]
     X:    -0.0043      Y:     0.0000      Z:    -0.0000

  Electronic Dipole Moment: [e a0]
     X:     0.0043      Y:    -0.0000      Z:    -0.0000

  Dipole Moment: [e a0]
     X:    -0.0000      Y:     0.0000      Z:    -0.0000     Total:     0.0000

  Dipole Moment: [D]
     X:    -0.0000      Y:     0.0000      Z:    -0.0000     Total:     0.0000


*** tstop() called on bp1-compute00130.data.bp.acrc.priv at Tue Apr 20 11:51:19 2021
Module time:
	user time   =     136.05 seconds =       2.27 minutes
	system time =       3.84 seconds =       0.06 minutes
	total time  =          6 seconds =       0.10 minutes
Total time:
	user time   =     419.32 seconds =       6.99 minutes
	system time =      15.36 seconds =       0.26 minutes
	total time  =         19 seconds =       0.32 minutes

  //>>>>>>>>>>>>>>>>>>>>>>>>>>>>>>>>>>>//
  //    Loading displacement 4 of 19   //
  //<<<<<<<<<<<<<<<<<<<<<<<<<<<<<<<<<<<//

*** tstart() called on bp1-compute00130.data.bp.acrc.priv
*** at Tue Apr 20 11:51:19 2021

   => Loading Basis Set <=

    Name: AUG-CC-PV(Q+D)Z
    Role: ORBITAL
    Keyword: BASIS
    atoms 1   entry C          line   319 file /work/zw18965/.conda/envs/p4env/share/psi4/basis/aug-cc-pv_qpd_z.gbs 
    atoms 2-5 entry H          line    56 file /work/zw18965/.conda/envs/p4env/share/psi4/basis/aug-cc-pv_qpd_z.gbs 


         ---------------------------------------------------------
                                   SCF
               by Justin Turney, Rob Parrish, Andy Simmonett
                          and Daniel G. A. Smith
                              RKS Reference
                       24 Threads, 137329 MiB Core
         ---------------------------------------------------------

  ==> Geometry <==

    Molecular point group: c1
    Full point group: C1

    Geometry (in Angstrom), charge = 0, multiplicity = 1:

       Center              X                  Y                   Z               Mass       
    ------------   -----------------  -----------------  -----------------  -----------------
         C            0.000000201933    -0.000383186245     0.000000005988    12.000000000000
         H            0.550977142285     0.796149435930     0.493665377807     1.007825032230
         H            0.679431393070    -0.807633017131    -0.252148606310     1.007825032230
         H           -0.773745215527    -0.370249199397     0.665364279487     1.007825032230
         H           -0.456665724205     0.386295313570    -0.906881122283     1.007825032230

  Running in c1 symmetry.

  Rotational constants: A =      5.31876  B =      5.31875  C =      5.31875 [cm^-1]
  Rotational constants: A = 159452.51377  B = 159452.14740  C = 159452.10723 [MHz]
  Nuclear repulsion =   13.485304038857091

  Charge       = 0
  Multiplicity = 1
  Electrons    = 10
  Nalpha       = 5
  Nbeta        = 5

  ==> Algorithm <==

  SCF Algorithm Type is DF.
  DIIS enabled.
  MOM disabled.
  Fractional occupation disabled.
  Guess Type is SAD.
  Energy threshold   = 1.00e-08
  Density threshold  = 1.00e-08
  Integral threshold = 0.00e+00

  ==> Primary Basis <==

  Basis Set: AUG-CC-PV(Q+D)Z
    Blend: AUG-CC-PV(Q+D)Z
    Number of shells: 76
    Number of basis function: 264
    Number of Cartesian functions: 325
    Spherical Harmonics?: true
    Max angular momentum: 4

  ==> DFT Potential <==

   => Composite Functional: WB97X-V <= 

    wB97X-V Hyb-GGA Exchange-Correlation Functional

    N. Mardirossian and M. Head-Gordon, Phys. Chem. Chem. Phys. 16, 9904 (2014)

    Deriv               =              1
    GGA                 =           TRUE
    Meta                =          FALSE

    Exchange Hybrid     =           TRUE
    MP2 Hybrid          =          FALSE

   => Exchange-Correlation Functionals <=

    1.0000   wB97X-V range-separated functional

   => Exact (HF) Exchange <=

    0.8330            HF,LR [omega = 0.3000]
    0.1670               HF 

   => VV10 Non-Local Parameters <=

    VV10 B              =     6.0000E+00
    VV10 C              =     1.0000E-02

   => Molecular Quadrature <=

    Radial Scheme          =       TREUTLER
    Pruning Scheme         =           FLAT
    Nuclear Scheme         =       TREUTLER

    BS radius alpha        =              1
    Pruning alpha          =              1
    Radial Points          =             75
    Spherical Points       =            302
    Total Points           =         113250
    Total Blocks           =            898
    Max Points             =            256
    Max Functions          =            264

   => Loading Basis Set <=

    Name: (AUG-CC-PV(Q+D)Z AUX)
    Role: JKFIT
    Keyword: DF_BASIS_SCF
    atoms 1   entry C          line   178 file /work/zw18965/.conda/envs/p4env/share/psi4/basis/aug-cc-pvqz-jkfit.gbs 
    atoms 2-5 entry H          line    70 file /work/zw18965/.conda/envs/p4env/share/psi4/basis/aug-cc-pvqz-jkfit.gbs 

  ==> Pre-Iterations <==

   -------------------------------------------------------
    Irrep   Nso     Nmo     Nalpha   Nbeta   Ndocc  Nsocc
   -------------------------------------------------------
     A        264     264       0       0       0       0
   -------------------------------------------------------
    Total     264     264       5       5       5       0
   -------------------------------------------------------

  ==> Integral Setup <==

  ==> DiskDFJK: Density-Fitted J/K Matrices <==

    J tasked:                  Yes
    K tasked:                  Yes
    wK tasked:                 Yes
    Omega:               3.000E-01
    OpenMP threads:             24
    Integrals threads:          24
    Memory [MiB]:           102172
    Algorithm:                Core
    Integral Cache:           NONE
    Schwarz Cutoff:          1E-12
    Fitting Condition:       1E-10

   => Auxiliary Basis Set <=

  Basis Set: (AUG-CC-PV(Q+D)Z AUX)
    Blend: AUG-CC-PVQZ-JKFIT
    Number of shells: 106
    Number of basis function: 446
    Number of Cartesian functions: 602
    Spherical Harmonics?: true
    Max angular momentum: 5

  Cached 100.0% of DFT collocation blocks in 0.805 [GiB].

  Minimum eigenvalue in the overlap matrix is 1.9108253249E-05.
  Using Symmetric Orthogonalization.

  SCF Guess: Superposition of Atomic Densities via on-the-fly atomic UHF.

  ==> Iterations <==

                           Total Energy        Delta E     RMS |[F,P]|

   @DF-RKS iter SAD:   -39.95747973248376   -3.99575e+01   0.00000e+00 
   @DF-RKS iter   1:   -40.38855393469763   -4.31074e-01   1.98489e-03 DIIS
   @DF-RKS iter   2:   -40.46099229550239   -7.24384e-02   1.31621e-03 DIIS
   @DF-RKS iter   3:   -40.51833212942694   -5.73398e-02   5.60778e-05 DIIS
   @DF-RKS iter   4:   -40.51860671177474   -2.74582e-04   1.03040e-05 DIIS
   @DF-RKS iter   5:   -40.51861651772202   -9.80595e-06   1.11911e-06 DIIS
   @DF-RKS iter   6:   -40.51861664870888   -1.30987e-07   1.30315e-07 DIIS
   @DF-RKS iter   7:   -40.51861665024579   -1.53691e-09   8.55210e-09 DIIS
  Energy and wave function converged.


  ==> Post-Iterations <==

    Orbital Energies [Eh]
    ---------------------

    Doubly Occupied:                                                      

       1A    -10.246497     2A     -0.824156     3A     -0.500006  
       4A     -0.499581     5A     -0.499166  

    Virtual:                                                              

       6A      0.029556     7A      0.049074     8A      0.049095  
       9A      0.049107    10A      0.108211    11A      0.108259  
      12A      0.108307    13A      0.117861    14A      0.176361  
      15A      0.176408    16A      0.176453    17A      0.200062  
      18A      0.200064    19A      0.262245    20A      0.262300  
      21A      0.262358    22A      0.264977    23A      0.280741  
      24A      0.280751    25A      0.280761    26A      0.292052  
      27A      0.292081    28A      0.292110    29A      0.316433  
      30A      0.355581    31A      0.355799    32A      0.356021  
      33A      0.393506    34A      0.393507    35A      0.521073  
      36A      0.521074    37A      0.525789    38A      0.525803  
      39A      0.525812    40A      0.565376    41A      0.659319  
      42A      0.659353    43A      0.659387    44A      0.673211  
      45A      0.673256    46A      0.673299    47A      0.705041  
      48A      0.705097    49A      0.705155    50A      0.715288  
      51A      0.736189    52A      0.736394    53A      0.736605  
      54A      0.782800    55A      0.782817    56A      0.782837  
      57A      0.858287    58A      0.872250    59A      0.872400  
      60A      0.872535    61A      0.890018    62A      0.890019  
      63A      0.937416    64A      0.937418    65A      1.040965  
      66A      1.046205    67A      1.046354    68A      1.046497  
      69A      1.095807    70A      1.095907    71A      1.096001  
      72A      1.180834    73A      1.180892    74A      1.180954  
      75A      1.308544    76A      1.308644    77A      1.308744  
      78A      1.405709    79A      1.406263    80A      1.406837  
      81A      1.448105    82A      1.498941    83A      1.499135  
      84A      1.499335    85A      1.598210    86A      1.598212  
      87A      1.750116    88A      1.750289    89A      1.750456  
      90A      1.801914    91A      1.802167    92A      1.802458  
      93A      1.814234    94A      1.832858    95A      1.832865  
      96A      1.862453    97A      1.863004    98A      1.863548  
      99A      1.897960   100A      1.913747   101A      1.913782  
     102A      1.940470   103A      1.940867   104A      1.941227  
     105A      2.011482   106A      2.012338   107A      2.013196  
     108A      2.030748   109A      2.030810   110A      2.030868  
     111A      2.080730   112A      2.106691   113A      2.152504  
     114A      2.152918   115A      2.153338   116A      2.196500  
     117A      2.196575   118A      2.196650   119A      2.309136  
     120A      2.309547   121A      2.309947   122A      2.553807  
     123A      2.554446   124A      2.555096   125A      2.581626  
     126A      2.581630   127A      2.666544   128A      2.667105  
     129A      2.667683   130A      2.683354   131A      2.683489  
     132A      2.683626   133A      2.684868   134A      2.888724  
     135A      2.888799   136A      2.889028   137A      2.890227  
     138A      2.890418   139A      3.026842   140A      3.027917  
     141A      3.029018   142A      3.065479   143A      3.225604  
     144A      3.225606   145A      3.546173   146A      3.546408  
     147A      3.546559   148A      3.551720   149A      3.551850  
     150A      3.552056   151A      3.703020   152A      3.753388  
     153A      3.753847   154A      3.754333   155A      3.857191  
     156A      3.857715   157A      3.858246   158A      3.928524  
     159A      3.929109   160A      3.929684   161A      4.004415  
     162A      4.088654   163A      4.088671   164A      4.129672  
     165A      4.129951   166A      4.130228   167A      4.169078  
     168A      4.169118   169A      4.537874   170A      4.538021  
     171A      4.538142   172A      4.749833   173A      4.751374  
     174A      4.752888   175A      4.922578   176A      5.849847  
     177A      5.849885   178A      5.882069   179A      5.883284  
     180A      5.884433   181A      5.988083   182A      5.988665  
     183A      5.989261   184A      6.264746   185A      6.526866  
     186A      6.565932   187A      6.566727   188A      6.567461  
     189A      6.634506   190A      6.634627   191A      6.634764  
     192A      6.681373   193A      6.682951   194A      6.684595  
     195A      6.741644   196A      6.745295   197A      6.749046  
     198A      6.959388   199A      6.960166   200A      6.960925  
     201A      7.093550   202A      7.273561   203A      7.273713  
     204A      7.273906   205A      7.291248   206A      7.487607  
     207A      7.487617   208A      7.629838   209A      7.630372  
     210A      7.630907   211A      7.639902   212A      7.642242  
     213A      7.644587   214A      7.799284   215A      7.799295  
     216A      8.228565   217A      8.228824   218A      8.229204  
     219A      8.277760   220A      8.341228   221A      8.341257  
     222A      8.394531   223A      8.395470   224A      8.396326  
     225A      8.870435   226A      8.871889   227A      8.873320  
     228A      8.930086   229A      8.930309   230A      8.930541  
     231A      9.015149   232A      9.016510   233A      9.017888  
     234A      9.141069   235A      9.142031   236A      9.143042  
     237A      9.352790   238A      9.352831   239A      9.440409  
     240A      9.693256   241A      9.693295   242A      9.764569  
     243A      9.765266   244A      9.765780   245A      9.977088  
     246A      9.977474   247A      9.977847   248A     10.029117  
     249A     10.029130   250A     10.285930   251A     10.287487  
     252A     10.288831   253A     10.594286   254A     10.672207  
     255A     10.673339   256A     10.674447   257A     11.208597  
     258A     11.212747   259A     11.216762   260A     12.792971  
     261A     12.800230   262A     12.807705   263A     13.458422  
     264A     28.639249  

    Final Occupation by Irrep:
              A 
    DOCC [     5 ]

  @DF-RKS Final Energy:   -40.51861665024579

   => Energetics <=

    Nuclear Repulsion Energy =             13.4853040388570911
    One-Electron Energy =                 -79.9204260559933033
    Two-Electron Energy =                  30.4265751923587437
    DFT Exchange-Correlation Energy =      -4.5514380505659648
    Empirical Dispersion Energy =           0.0000000000000000
    VV10 Nonlocal Energy =                  0.0413682250976404
    Total Energy =                        -40.5186166502457894

Computation Completed


Properties will be evaluated at   0.000000,   0.000000,   0.000000 [a0]

Properties computed using the SCF density matrix

  Nuclear Dipole Moment: [e a0]
     X:    -0.0000      Y:     0.0043      Z:    -0.0000

  Electronic Dipole Moment: [e a0]
     X:     0.0000      Y:    -0.0043      Z:    -0.0000

  Dipole Moment: [e a0]
     X:    -0.0000      Y:     0.0000      Z:    -0.0000     Total:     0.0000

  Dipole Moment: [D]
     X:    -0.0000      Y:     0.0000      Z:    -0.0000     Total:     0.0000


*** tstop() called on bp1-compute00130.data.bp.acrc.priv at Tue Apr 20 11:51:26 2021
Module time:
	user time   =     137.38 seconds =       2.29 minutes
	system time =       3.52 seconds =       0.06 minutes
	total time  =          7 seconds =       0.12 minutes
Total time:
	user time   =     556.86 seconds =       9.28 minutes
	system time =      18.89 seconds =       0.31 minutes
	total time  =         26 seconds =       0.43 minutes

  //>>>>>>>>>>>>>>>>>>>>>>>>>>>>>>>>>>>//
  //    Loading displacement 5 of 19   //
  //<<<<<<<<<<<<<<<<<<<<<<<<<<<<<<<<<<<//

*** tstart() called on bp1-compute00130.data.bp.acrc.priv
*** at Tue Apr 20 11:51:26 2021

   => Loading Basis Set <=

    Name: AUG-CC-PV(Q+D)Z
    Role: ORBITAL
    Keyword: BASIS
    atoms 1   entry C          line   319 file /work/zw18965/.conda/envs/p4env/share/psi4/basis/aug-cc-pv_qpd_z.gbs 
    atoms 2-5 entry H          line    56 file /work/zw18965/.conda/envs/p4env/share/psi4/basis/aug-cc-pv_qpd_z.gbs 


         ---------------------------------------------------------
                                   SCF
               by Justin Turney, Rob Parrish, Andy Simmonett
                          and Daniel G. A. Smith
                              RKS Reference
                       24 Threads, 137329 MiB Core
         ---------------------------------------------------------

  ==> Geometry <==

    Molecular point group: c1
    Full point group: C1

    Geometry (in Angstrom), charge = 0, multiplicity = 1:

       Center              X                  Y                   Z               Mass       
    ------------   -----------------  -----------------  -----------------  -----------------
         C            0.000000201933     0.000382848915     0.000000005988    12.000000000000
         H            0.550977144136     0.793869172260     0.493665377862     1.007825032230
         H            0.679431391187    -0.809913281049    -0.252148606366     1.007825032230
         H           -0.773745216392    -0.372529459994     0.665364279461     1.007825032230
         H           -0.456665723308     0.384015052343    -0.906881122257     1.007825032230

  Running in c1 symmetry.

  Rotational constants: A =      5.31876  B =      5.31875  C =      5.31875 [cm^-1]
  Rotational constants: A = 159452.51374  B = 159452.14806  C = 159452.10784 [MHz]
  Nuclear repulsion =   13.485304043714448

  Charge       = 0
  Multiplicity = 1
  Electrons    = 10
  Nalpha       = 5
  Nbeta        = 5

  ==> Algorithm <==

  SCF Algorithm Type is DF.
  DIIS enabled.
  MOM disabled.
  Fractional occupation disabled.
  Guess Type is SAD.
  Energy threshold   = 1.00e-08
  Density threshold  = 1.00e-08
  Integral threshold = 0.00e+00

  ==> Primary Basis <==

  Basis Set: AUG-CC-PV(Q+D)Z
    Blend: AUG-CC-PV(Q+D)Z
    Number of shells: 76
    Number of basis function: 264
    Number of Cartesian functions: 325
    Spherical Harmonics?: true
    Max angular momentum: 4

  ==> DFT Potential <==

   => Composite Functional: WB97X-V <= 

    wB97X-V Hyb-GGA Exchange-Correlation Functional

    N. Mardirossian and M. Head-Gordon, Phys. Chem. Chem. Phys. 16, 9904 (2014)

    Deriv               =              1
    GGA                 =           TRUE
    Meta                =          FALSE

    Exchange Hybrid     =           TRUE
    MP2 Hybrid          =          FALSE

   => Exchange-Correlation Functionals <=

    1.0000   wB97X-V range-separated functional

   => Exact (HF) Exchange <=

    0.8330            HF,LR [omega = 0.3000]
    0.1670               HF 

   => VV10 Non-Local Parameters <=

    VV10 B              =     6.0000E+00
    VV10 C              =     1.0000E-02

   => Molecular Quadrature <=

    Radial Scheme          =       TREUTLER
    Pruning Scheme         =           FLAT
    Nuclear Scheme         =       TREUTLER

    BS radius alpha        =              1
    Pruning alpha          =              1
    Radial Points          =             75
    Spherical Points       =            302
    Total Points           =         113250
    Total Blocks           =            895
    Max Points             =            256
    Max Functions          =            264

   => Loading Basis Set <=

    Name: (AUG-CC-PV(Q+D)Z AUX)
    Role: JKFIT
    Keyword: DF_BASIS_SCF
    atoms 1   entry C          line   178 file /work/zw18965/.conda/envs/p4env/share/psi4/basis/aug-cc-pvqz-jkfit.gbs 
    atoms 2-5 entry H          line    70 file /work/zw18965/.conda/envs/p4env/share/psi4/basis/aug-cc-pvqz-jkfit.gbs 

  ==> Pre-Iterations <==

   -------------------------------------------------------
    Irrep   Nso     Nmo     Nalpha   Nbeta   Ndocc  Nsocc
   -------------------------------------------------------
     A        264     264       0       0       0       0
   -------------------------------------------------------
    Total     264     264       5       5       5       0
   -------------------------------------------------------

  ==> Integral Setup <==

  ==> DiskDFJK: Density-Fitted J/K Matrices <==

    J tasked:                  Yes
    K tasked:                  Yes
    wK tasked:                 Yes
    Omega:               3.000E-01
    OpenMP threads:             24
    Integrals threads:          24
    Memory [MiB]:           102171
    Algorithm:                Core
    Integral Cache:           NONE
    Schwarz Cutoff:          1E-12
    Fitting Condition:       1E-10

   => Auxiliary Basis Set <=

  Basis Set: (AUG-CC-PV(Q+D)Z AUX)
    Blend: AUG-CC-PVQZ-JKFIT
    Number of shells: 106
    Number of basis function: 446
    Number of Cartesian functions: 602
    Spherical Harmonics?: true
    Max angular momentum: 5

  Cached 100.0% of DFT collocation blocks in 0.806 [GiB].

  Minimum eigenvalue in the overlap matrix is 1.9108253712E-05.
  Using Symmetric Orthogonalization.

  SCF Guess: Superposition of Atomic Densities via on-the-fly atomic UHF.

  ==> Iterations <==

                           Total Energy        Delta E     RMS |[F,P]|

   @DF-RKS iter SAD:   -39.95747970780092   -3.99575e+01   0.00000e+00 
   @DF-RKS iter   1:   -40.38855391495964   -4.31074e-01   1.98489e-03 DIIS
   @DF-RKS iter   2:   -40.46099227674247   -7.24384e-02   1.31621e-03 DIIS
   @DF-RKS iter   3:   -40.51833211443782   -5.73398e-02   5.60778e-05 DIIS
   @DF-RKS iter   4:   -40.51860669678920   -2.74582e-04   1.03040e-05 DIIS
   @DF-RKS iter   5:   -40.51861650274093   -9.80595e-06   1.11911e-06 DIIS
   @DF-RKS iter   6:   -40.51861663372803   -1.30987e-07   1.30315e-07 DIIS
   @DF-RKS iter   7:   -40.51861663526499   -1.53696e-09   8.55219e-09 DIIS
  Energy and wave function converged.


  ==> Post-Iterations <==

    Orbital Energies [Eh]
    ---------------------

    Doubly Occupied:                                                      

       1A    -10.246497     2A     -0.824156     3A     -0.500003  
       4A     -0.499587     5A     -0.499164  

    Virtual:                                                              

       6A      0.029557     7A      0.049061     8A      0.049097  
       9A      0.049125    10A      0.108218    11A      0.108261  
      12A      0.108300    13A      0.117862    14A      0.176367  
      15A      0.176410    16A      0.176448    17A      0.200062  
      18A      0.200064    19A      0.262243    20A      0.262301  
      21A      0.262360    22A      0.264977    23A      0.280741  
      24A      0.280751    25A      0.280762    26A      0.292051  
      27A      0.292081    28A      0.292110    29A      0.316433  
      30A      0.355581    31A      0.355803    32A      0.356018  
      33A      0.393506    34A      0.393507    35A      0.521073  
      36A      0.521074    37A      0.525790    38A      0.525803  
      39A      0.525811    40A      0.565377    41A      0.659319  
      42A      0.659353    43A      0.659387    44A      0.673210  
      45A      0.673256    46A      0.673299    47A      0.705040  
      48A      0.705098    49A      0.705156    50A      0.715288  
      51A      0.736187    52A      0.736397    53A      0.736604  
      54A      0.782801    55A      0.782817    56A      0.782836  
      57A      0.858287    58A      0.872257    59A      0.872398  
      60A      0.872529    61A      0.890018    62A      0.890019  
      63A      0.937416    64A      0.937418    65A      1.040965  
      66A      1.046206    67A      1.046351    68A      1.046497  
      69A      1.095806    70A      1.095908    71A      1.096001  
      72A      1.180833    73A      1.180893    74A      1.180955  
      75A      1.308545    76A      1.308643    77A      1.308745  
      78A      1.405705    79A      1.406271    80A      1.406833  
      81A      1.448105    82A      1.498940    83A      1.499138  
      84A      1.499333    85A      1.598210    86A      1.598212  
      87A      1.750118    88A      1.750287    89A      1.750457  
      90A      1.801910    91A      1.802171    92A      1.802459  
      93A      1.814234    94A      1.832858    95A      1.832865  
      96A      1.862463    97A      1.862996    98A      1.863545  
      99A      1.897960   100A      1.913747   101A      1.913782  
     102A      1.940468   103A      1.940872   104A      1.941224  
     105A      2.011479   106A      2.012350   107A      2.013187  
     108A      2.030747   109A      2.030811   110A      2.030868  
     111A      2.080730   112A      2.106691   113A      2.152502  
     114A      2.152924   115A      2.153335   116A      2.196502  
     117A      2.196574   118A      2.196648   119A      2.309141  
     120A      2.309541   121A      2.309948   122A      2.553815  
     123A      2.554437   124A      2.555098   125A      2.581626  
     126A      2.581630   127A      2.666539   128A      2.667113  
     129A      2.667681   130A      2.683356   131A      2.683487  
     132A      2.683626   133A      2.684868   134A      2.888722  
     135A      2.888798   136A      2.889030   137A      2.890226  
     138A      2.890420   139A      3.026832   140A      3.027932  
     141A      3.029013   142A      3.065479   143A      3.225604  
     144A      3.225606   145A      3.546172   146A      3.546404  
     147A      3.546565   148A      3.551711   149A      3.551858  
     150A      3.552055   151A      3.703020   152A      3.753395  
     153A      3.753840   154A      3.754333   155A      3.857189  
     156A      3.857722   157A      3.858240   158A      3.928526  
     159A      3.929101   160A      3.929690   161A      4.004415  
     162A      4.088654   163A      4.088670   164A      4.129672  
     165A      4.129955   166A      4.130225   167A      4.169078  
     168A      4.169118   169A      4.537875   170A      4.538020  
     171A      4.538143   172A      4.749846   173A      4.751353  
     174A      4.752896   175A      4.922578   176A      5.849847  
     177A      5.849885   178A      5.882062   179A      5.883300  
     180A      5.884423   181A      5.988080   182A      5.988674  
     183A      5.989256   184A      6.264746   185A      6.526866  
     186A      6.565938   187A      6.566716   188A      6.567466  
     189A      6.634504   190A      6.634629   191A      6.634764  
     192A      6.681362   193A      6.682973   194A      6.684585  
     195A      6.741622   196A      6.745347   197A      6.749016  
     198A      6.959393   199A      6.960155   200A      6.960931  
     201A      7.093550   202A      7.273555   203A      7.273717  
     204A      7.273909   205A      7.291248   206A      7.487607  
     207A      7.487617   208A      7.629835   209A      7.630379  
     210A      7.630901   211A      7.639926   212A      7.642209  
     213A      7.644596   214A      7.799284   215A      7.799295  
     216A      8.228571   217A      8.228818   218A      8.229204  
     219A      8.277759   220A      8.341228   221A      8.341257  
     222A      8.394541   223A      8.395458   224A      8.396328  
     225A      8.870443   226A      8.871869   227A      8.873332  
     228A      8.930085   229A      8.930312   230A      8.930538  
     231A      9.015158   232A      9.016490   233A      9.017898  
     234A      9.141075   235A      9.142017   236A      9.143050  
     237A      9.352790   238A      9.352831   239A      9.440409  
     240A      9.693257   241A      9.693295   242A      9.764570  
     243A      9.765257   244A      9.765788   245A      9.977088  
     246A      9.977480   247A      9.977842   248A     10.029118  
     249A     10.029130   250A     10.285923   251A     10.287507  
     252A     10.288818   253A     10.594286   254A     10.672219  
     255A     10.673324   256A     10.674451   257A     11.208631  
     258A     11.212690   259A     11.216785   260A     12.792923  
     261A     12.800333   262A     12.807650   263A     13.458422  
     264A     28.639249  

    Final Occupation by Irrep:
              A 
    DOCC [     5 ]

  @DF-RKS Final Energy:   -40.51861663526499

   => Energetics <=

    Nuclear Repulsion Energy =             13.4853040437144482
    One-Electron Energy =                 -79.9204260879291155
    Two-Electron Energy =                  30.4265752282695274
    DFT Exchange-Correlation Energy =      -4.5514380502375289
    Empirical Dispersion Energy =           0.0000000000000000
    VV10 Nonlocal Energy =                  0.0413682309176749
    Total Energy =                        -40.5186166352649906

Computation Completed


Properties will be evaluated at   0.000000,   0.000000,   0.000000 [a0]

Properties computed using the SCF density matrix

  Nuclear Dipole Moment: [e a0]
     X:    -0.0000      Y:    -0.0043      Z:    -0.0000

  Electronic Dipole Moment: [e a0]
     X:     0.0000      Y:     0.0043      Z:    -0.0000

  Dipole Moment: [e a0]
     X:    -0.0000      Y:    -0.0000      Z:    -0.0000     Total:     0.0000

  Dipole Moment: [D]
     X:    -0.0000      Y:    -0.0000      Z:    -0.0000     Total:     0.0000


*** tstop() called on bp1-compute00130.data.bp.acrc.priv at Tue Apr 20 11:51:32 2021
Module time:
	user time   =     139.22 seconds =       2.32 minutes
	system time =       3.51 seconds =       0.06 minutes
	total time  =          6 seconds =       0.10 minutes
Total time:
	user time   =     696.24 seconds =      11.60 minutes
	system time =      22.41 seconds =       0.37 minutes
	total time  =         32 seconds =       0.53 minutes

  //>>>>>>>>>>>>>>>>>>>>>>>>>>>>>>>>>>>//
  //    Loading displacement 6 of 19   //
  //<<<<<<<<<<<<<<<<<<<<<<<<<<<<<<<<<<<//

*** tstart() called on bp1-compute00130.data.bp.acrc.priv
*** at Tue Apr 20 11:51:32 2021

   => Loading Basis Set <=

    Name: AUG-CC-PV(Q+D)Z
    Role: ORBITAL
    Keyword: BASIS
    atoms 1   entry C          line   319 file /work/zw18965/.conda/envs/p4env/share/psi4/basis/aug-cc-pv_qpd_z.gbs 
    atoms 2-5 entry H          line    56 file /work/zw18965/.conda/envs/p4env/share/psi4/basis/aug-cc-pv_qpd_z.gbs 


         ---------------------------------------------------------
                                   SCF
               by Justin Turney, Rob Parrish, Andy Simmonett
                          and Daniel G. A. Smith
                              RKS Reference
                       24 Threads, 137329 MiB Core
         ---------------------------------------------------------

  ==> Geometry <==

    Molecular point group: c1
    Full point group: C1

    Geometry (in Angstrom), charge = 0, multiplicity = 1:

       Center              X                  Y                   Z               Mass       
    ------------   -----------------  -----------------  -----------------  -----------------
         C            0.000000201933    -0.000000168665    -0.000383011592    12.000000000000
         H            0.550977142636     0.795009304575     0.494805508879     1.007825032230
         H            0.679431392422    -0.808773149335    -0.251008473583     1.007825032230
         H           -0.773745216734    -0.371389329048     0.666504410111     1.007825032230
         H           -0.456665722700     0.385155182075    -0.905740992000     1.007825032230

  Running in c1 symmetry.

  Rotational constants: A =      5.31876  B =      5.31875  C =      5.31875 [cm^-1]
  Rotational constants: A = 159452.46658  B = 159452.16994  C = 159452.13252 [MHz]
  Nuclear repulsion =   13.485304047511056

  Charge       = 0
  Multiplicity = 1
  Electrons    = 10
  Nalpha       = 5
  Nbeta        = 5

  ==> Algorithm <==

  SCF Algorithm Type is DF.
  DIIS enabled.
  MOM disabled.
  Fractional occupation disabled.
  Guess Type is SAD.
  Energy threshold   = 1.00e-08
  Density threshold  = 1.00e-08
  Integral threshold = 0.00e+00

  ==> Primary Basis <==

  Basis Set: AUG-CC-PV(Q+D)Z
    Blend: AUG-CC-PV(Q+D)Z
    Number of shells: 76
    Number of basis function: 264
    Number of Cartesian functions: 325
    Spherical Harmonics?: true
    Max angular momentum: 4

  ==> DFT Potential <==

   => Composite Functional: WB97X-V <= 

    wB97X-V Hyb-GGA Exchange-Correlation Functional

    N. Mardirossian and M. Head-Gordon, Phys. Chem. Chem. Phys. 16, 9904 (2014)

    Deriv               =              1
    GGA                 =           TRUE
    Meta                =          FALSE

    Exchange Hybrid     =           TRUE
    MP2 Hybrid          =          FALSE

   => Exchange-Correlation Functionals <=

    1.0000   wB97X-V range-separated functional

   => Exact (HF) Exchange <=

    0.8330            HF,LR [omega = 0.3000]
    0.1670               HF 

   => VV10 Non-Local Parameters <=

    VV10 B              =     6.0000E+00
    VV10 C              =     1.0000E-02

   => Molecular Quadrature <=

    Radial Scheme          =       TREUTLER
    Pruning Scheme         =           FLAT
    Nuclear Scheme         =       TREUTLER

    BS radius alpha        =              1
    Pruning alpha          =              1
    Radial Points          =             75
    Spherical Points       =            302
    Total Points           =         113250
    Total Blocks           =            905
    Max Points             =            255
    Max Functions          =            264

   => Loading Basis Set <=

    Name: (AUG-CC-PV(Q+D)Z AUX)
    Role: JKFIT
    Keyword: DF_BASIS_SCF
    atoms 1   entry C          line   178 file /work/zw18965/.conda/envs/p4env/share/psi4/basis/aug-cc-pvqz-jkfit.gbs 
    atoms 2-5 entry H          line    70 file /work/zw18965/.conda/envs/p4env/share/psi4/basis/aug-cc-pvqz-jkfit.gbs 

  ==> Pre-Iterations <==

   -------------------------------------------------------
    Irrep   Nso     Nmo     Nalpha   Nbeta   Ndocc  Nsocc
   -------------------------------------------------------
     A        264     264       0       0       0       0
   -------------------------------------------------------
    Total     264     264       5       5       5       0
   -------------------------------------------------------

  ==> Integral Setup <==

  ==> DiskDFJK: Density-Fitted J/K Matrices <==

    J tasked:                  Yes
    K tasked:                  Yes
    wK tasked:                 Yes
    Omega:               3.000E-01
    OpenMP threads:             24
    Integrals threads:          24
    Memory [MiB]:           102173
    Algorithm:                Core
    Integral Cache:           NONE
    Schwarz Cutoff:          1E-12
    Fitting Condition:       1E-10

   => Auxiliary Basis Set <=

  Basis Set: (AUG-CC-PV(Q+D)Z AUX)
    Blend: AUG-CC-PVQZ-JKFIT
    Number of shells: 106
    Number of basis function: 446
    Number of Cartesian functions: 602
    Spherical Harmonics?: true
    Max angular momentum: 5

  Cached 100.0% of DFT collocation blocks in 0.804 [GiB].

  Minimum eigenvalue in the overlap matrix is 1.9108253283E-05.
  Using Symmetric Orthogonalization.

  SCF Guess: Superposition of Atomic Densities via on-the-fly atomic UHF.

  ==> Iterations <==

                           Total Energy        Delta E     RMS |[F,P]|

   @DF-RKS iter SAD:   -39.95747840850586   -3.99575e+01   0.00000e+00 
   @DF-RKS iter   1:   -40.38855335703528   -4.31075e-01   1.98489e-03 DIIS
   @DF-RKS iter   2:   -40.46099174973823   -7.24384e-02   1.31621e-03 DIIS
   @DF-RKS iter   3:   -40.51833162953994   -5.73399e-02   5.60778e-05 DIIS
   @DF-RKS iter   4:   -40.51860621157073   -2.74582e-04   1.03040e-05 DIIS
   @DF-RKS iter   5:   -40.51861601743956   -9.80587e-06   1.11910e-06 DIIS
   @DF-RKS iter   6:   -40.51861614842385   -1.30984e-07   1.30314e-07 DIIS
   @DF-RKS iter   7:   -40.51861614996075   -1.53690e-09   8.55247e-09 DIIS
  Energy and wave function converged.


  ==> Post-Iterations <==

    Orbital Energies [Eh]
    ---------------------

    Doubly Occupied:                                                      

       1A    -10.246497     2A     -0.824156     3A     -0.500027  
       4A     -0.499534     5A     -0.499192  

    Virtual:                                                              

       6A      0.029557     7A      0.049071     8A      0.049098  
       9A      0.049122    10A      0.108223    11A      0.108258  
      12A      0.108309    13A      0.117863    14A      0.176370  
      15A      0.176405    16A      0.176454    17A      0.200063  
      18A      0.200063    19A      0.262249    20A      0.262296  
      21A      0.262363    22A      0.264978    23A      0.280741  
      24A      0.280750    25A      0.280761    26A      0.292052  
      27A      0.292077    28A      0.292113    29A      0.316434  
      30A      0.355598    31A      0.355776    32A      0.356032  
      33A      0.393506    34A      0.393507    35A      0.521073  
      36A      0.521074    37A      0.525790    38A      0.525805  
      39A      0.525811    40A      0.565378    41A      0.659320  
[...]
      69A      1.095072    70A      1.095139    71A      1.095566  
      72A      1.179735    73A      1.179825    74A      1.180267  
      75A      1.307606    76A      1.307767    77A      1.307847  
      78A      1.402949    79A      1.403306    80A      1.403651  
      81A      1.446267    82A      1.497467    83A      1.497487  
      84A      1.497738    85A      1.598084    86A      1.598209  
      87A      1.747733    88A      1.748638    89A      1.748810  
      90A      1.801639    91A      1.801777    92A      1.802654  
      93A      1.814014    94A      1.829567    95A      1.830032  
      96A      1.859507    97A      1.861685    98A      1.862196  
      99A      1.894975   100A      1.912252   101A      1.912904  
     102A      1.942261   103A      1.942443   104A      1.942465  
     105A      2.017266   106A      2.017539   107A      2.017811  
     108A      2.027108   109A      2.027800   110A      2.028725  
     111A      2.081288   112A      2.103036   113A      2.150048  
     114A      2.150091   115A      2.150979   116A      2.197841  
     117A      2.197932   118A      2.198314   119A      2.303080  
     120A      2.303122   121A      2.303359   122A      2.552225  
     123A      2.552766   124A      2.553382   125A      2.572991  
     126A      2.573212   127A      2.663726   128A      2.664480  
     129A      2.664660   130A      2.677529   131A      2.677634  
     132A      2.678191   133A      2.679576   134A      2.885981  
     135A      2.886182   136A      2.886517   137A      2.891760  
     138A      2.892254   139A      3.018030   140A      3.019177  
     141A      3.019808   142A      3.061299   143A      3.220028  
     144A      3.220348   145A      3.533848   146A      3.535604  
     147A      3.537430   148A      3.547023   149A      3.547250  
     150A      3.547552   151A      3.696343   152A      3.748241  
     153A      3.749135   154A      3.749324   155A      3.847190  
     156A      3.847522   157A      3.847527   158A      3.928011  
     159A      3.929074   160A      3.929307   161A      3.998452  
     162A      4.083130   163A      4.083483   164A      4.125037  
     165A      4.125472   166A      4.125661   167A      4.171155  
     168A      4.172037   169A      4.524213   170A      4.524775  
     171A      4.527234   172A      4.746611   173A      4.747378  
     174A      4.748708   175A      4.912933   176A      5.838173  
     177A      5.839474   178A      5.901011   179A      5.901103  
     180A      5.901786   181A      5.993144   182A      5.994447  
     183A      5.994557   184A      6.261983   185A      6.524831  
     186A      6.552027   187A      6.553319   188A      6.556755  
     189A      6.626190   190A      6.626345   191A      6.626749  
     192A      6.671584   193A      6.673167   194A      6.676091  
     195A      6.725499   196A      6.729705   197A      6.731333  
     198A      6.953073   199A      6.953378   200A      6.954606  
     201A      7.091568   202A      7.269376   203A      7.273301  
     204A      7.273429   205A      7.282048   206A      7.486207  
     207A      7.486651   208A      7.609560   209A      7.610237  
     210A      7.614509   211A      7.621383   212A      7.626306  
     213A      7.628301   214A      7.779487   215A      7.780197  
     216A      8.218947   217A      8.219087   218A      8.219836  
     219A      8.240676   220A      8.336913   221A      8.341582  
     222A      8.383690   223A      8.383879   224A      8.385701  
     225A      8.858591   226A      8.859192   227A      8.859623  
     228A      8.920317   229A      8.922023   230A      8.922105  
     231A      9.000195   232A      9.000938   233A      9.002854  
     234A      9.125640   235A      9.127978   236A      9.128243  
     237A      9.353371   238A      9.354891   239A      9.427465  
     240A      9.662812   241A      9.666031   242A      9.749053  
     243A      9.750298   244A      9.752244   245A      9.967365  
     246A      9.969459   247A      9.969531   248A     10.000413  
     249A     10.000689   250A     10.255614   251A     10.256134  
     252A     10.258674   253A     10.561302   254A     10.656707  
     255A     10.656769   256A     10.658613   257A     11.180427  
     258A     11.180611   259A     11.184382   260A     12.740054  
     261A     12.757636   262A     12.759537   263A     13.442065  
     264A     28.536209  

    Final Occupation by Irrep:
              A 
    DOCC [     5 ]

  @DF-RKS Final Energy:   -40.51865166921159

   => Energetics <=

    Nuclear Repulsion Energy =             13.4253829850911028
    One-Electron Energy =                 -79.8079145621557871
    Two-Electron Energy =                  30.3685525747181870
    DFT Exchange-Correlation Energy =      -4.5460329416264429
    Empirical Dispersion Energy =           0.0000000000000000
    VV10 Nonlocal Energy =                  0.0413602747613472
    Total Energy =                        -40.5186516692115930

Computation Completed


Properties will be evaluated at   0.000000,   0.000000,   0.000000 [a0]

Properties computed using the SCF density matrix

  Nuclear Dipole Moment: [e a0]
     X:    -0.0000      Y:     0.0000      Z:    -0.0001

  Electronic Dipole Moment: [e a0]
     X:     0.0005      Y:    -0.0003      Z:     0.0009

  Dipole Moment: [e a0]
     X:     0.0005      Y:    -0.0002      Z:     0.0008     Total:     0.0010

  Dipole Moment: [D]
     X:     0.0012      Y:    -0.0006      Z:     0.0021     Total:     0.0025


*** tstop() called on bp1-compute00130.data.bp.acrc.priv at Tue Apr 20 12:19:48 2021
Module time:
	user time   =     163.44 seconds =       2.72 minutes
	system time =       2.74 seconds =       0.05 minutes
	total time  =          8 seconds =       0.13 minutes
Total time:
	user time   =   38600.96 seconds =     643.35 minutes
	system time =     744.81 seconds =      12.41 minutes
	total time  =       1728 seconds =      28.80 minutes

         ----------------------------------------------------------
                                   FINDIF
                     R. A. King and Jonathon Misiewicz
         ---------------------------------------------------------

  Computing second-derivative from energies using projected, 
  symmetry-adapted, cartesian coordinates.

  91 energies passed in, including the reference geometry.
    Using 3-point formula.
    Energy without displacement:  -40.5186579220
    Check energies below for precision!
    0: -1        :       -40.5186556666
    0: 1         :       -40.5186556703
    1: -1        :       -40.5186555732
    1: 1         :       -40.5186555905
    2: -1        :       -40.5186556285
    2: 1         :       -40.5186555690
    3: -1        :       -40.5186546148
    3: 1         :       -40.5186543586
    4: -1        :       -40.5186554251
    4: 1         :       -40.5186550918
    5: -1        :       -40.5186560582
    5: 1         :       -40.5186558811
    6: -1        :       -40.5186546055
    6: 1         :       -40.5186547655
    7: -1        :       -40.5186553650
    7: 1         :       -40.5186554421
    8: -1        :       -40.5186541524
    8: 1         :       -40.5186547245
    0: 1, 1: 1   :       -40.5186532328
    0: -1, 1: -1 :       -40.5186532171
    0: 1, 2: 1   :       -40.5186532221
    0: -1, 2: -1 :       -40.5186532536
    1: 1, 2: 1   :       -40.5186531378
    1: -1, 2: -1 :       -40.5186531973
    0: 1, 3: 1   :       -40.5186516272
    0: -1, 3: -1 :       -40.5186518855
    1: 1, 3: 1   :       -40.5186542238
    1: -1, 3: -1 :       -40.5186544798
    2: 1, 3: 1   :       -40.5186533768
    2: -1, 3: -1 :       -40.5186536916
    0: 1, 4: 1   :       -40.5186549148
    0: -1, 4: -1 :       -40.5186552878
    1: 1, 4: 1   :       -40.5186533086
    1: -1, 4: -1 :       -40.5186536488
    2: 1, 4: 1   :       -40.5186542259
    2: -1, 4: -1 :       -40.5186546247
    3: 1, 4: 1   :       -40.5186507200
    3: -1, 4: -1 :       -40.5186508501
    0: 1, 5: 1   :       -40.5186546409
    0: -1, 5: -1 :       -40.5186548120
    1: 1, 5: 1   :       -40.5186551211
    1: -1, 5: -1 :       -40.5186552749
    2: 1, 5: 1   :       -40.5186522234
    2: -1, 5: -1 :       -40.5186524472
    3: 1, 5: 1   :       -40.5186520095
    3: -1, 5: -1 :       -40.5186524091
    4: 1, 5: 1   :       -40.5186513279
    4: -1, 5: -1 :       -40.5186517139
    0: 1, 6: 1   :       -40.5186534208
    0: -1, 6: -1 :       -40.5186533005
    1: 1, 6: 1   :       -40.5186500937
    1: -1, 6: -1 :       -40.5186499121
    2: 1, 6: 1   :       -40.5186519566
    2: -1, 6: -1 :       -40.5186518514
    3: 1, 6: 1   :       -40.5186520865
    3: -1, 6: -1 :       -40.5186528443
    4: 1, 6: 1   :       -40.5186497884
    4: -1, 6: -1 :       -40.5186505166
    5: 1, 6: 1   :       -40.5186520564
    5: -1, 6: -1 :       -40.5186525885
    0: 1, 7: 1   :       -40.5186524677
    0: -1, 7: -1 :       -40.5186523729
    1: 1, 7: 1   :       -40.5186522006
    1: -1, 7: -1 :       -40.5186521204
    2: 1, 7: 1   :       -40.5186559295
    2: -1, 7: -1 :       -40.5186559225
    3: 1, 7: 1   :       -40.5186520899
    3: -1, 7: -1 :       -40.5186522431
    4: 1, 7: 1   :       -40.5186519863
    4: -1, 7: -1 :       -40.5186522589
    5: 1, 7: 1   :       -40.5186553354
    5: -1, 7: -1 :       -40.5186553848
    6: 1, 7: 1   :       -40.5186520788
    6: -1, 7: -1 :       -40.5186525200
    0: 1, 8: 1   :       -40.5186548815
    0: -1, 8: -1 :       -40.5186544689
    1: 1, 8: 1   :       -40.5186516969
    1: -1, 8: -1 :       -40.5186513085
    2: 1, 8: 1   :       -40.5186525422
    2: -1, 8: -1 :       -40.5186520564
    3: 1, 8: 1   :       -40.5186535416
    3: -1, 8: -1 :       -40.5186533800
    4: 1, 8: 1   :       -40.5186512993
    4: -1, 8: -1 :       -40.5186512675
    5: 1, 8: 1   :       -40.5186526559
    5: -1, 8: -1 :       -40.5186522505
    6: 1, 8: 1   :       -40.5186527625
    6: -1, 8: -1 :       -40.5186527798
    7: 1, 8: 1   :       -40.5186520573
    7: -1, 8: -1 :       -40.5186516692

-------------------------------------------------------------


  ==> Harmonic Vibrational Analysis <==

  non-mass-weighted Hessian:       Symmetric? True   Hermitian? True   Lin Dep Dim?  6 (0)
  projection of translations (True) and rotations (True) removed 6 degrees of freedom (6)
  total projector:                 Symmetric? True   Hermitian? True   Lin Dep Dim?  6 (6)
  mass-weighted Hessian:           Symmetric? True   Hermitian? True   Lin Dep Dim?  6 (0)
  pre-proj  low-frequency mode:    0.0000i [cm^-1]
  pre-proj  low-frequency mode:    0.0000i [cm^-1]
  pre-proj  low-frequency mode:    0.0000i [cm^-1]
  pre-proj  low-frequency mode:    0.0000  [cm^-1]
  pre-proj  low-frequency mode:    0.0000  [cm^-1]
  pre-proj  low-frequency mode:    0.0000  [cm^-1]
  pre-proj  all modes:['0.0000i' '0.0000i' '0.0000i' '0.0000' '0.0000' '0.0000' '1125.4203'
 '1232.8339' '1291.4973' '1491.3848' '1904.8198' '3073.1277' '3108.9923'
 '3176.9784' '3414.9518']
  projected mass-weighted Hessian: Symmetric? True   Hermitian? True   Lin Dep Dim?  6 (6)
  post-proj low-frequency mode:    0.0000i [cm^-1] (TR)
  post-proj low-frequency mode:    0.0000i [cm^-1] (TR)
  post-proj low-frequency mode:    0.0000i [cm^-1] (TR)
  post-proj low-frequency mode:    0.0000i [cm^-1] (TR)
  post-proj low-frequency mode:    0.0000  [cm^-1] (TR)
  post-proj low-frequency mode:    0.0000  [cm^-1] (TR)
  post-proj  all modes:['0.0000i' '0.0000i' '0.0000i' '0.0000i' '0.0000' '0.0000' '1125.4203'
 '1232.8339' '1291.4973' '1491.3848' '1904.8198' '3073.1277' '3108.9923'
 '3176.9784' '3414.9518']

  Vibration                       7                   8                   9           
  Freq [cm^-1]                1125.4203           1232.8339           1291.4973       
  Irrep                           A                   A                   A           
  Reduced mass [u]              1.0412              1.1052              1.1537        
  Force const [mDyne/A]         0.7770              0.9897              1.1337        
  Turning point v=0 [a0]        0.3205              0.2973              0.2843        
  RMS dev v=0 [a0 u^1/2]        0.2313              0.2210              0.2159        
  Char temp [K]               1619.2293           1773.7735           1858.1770       
  ----------------------------------------------------------------------------------
      1   C               -0.02  0.02 -0.04   -0.05  0.08 -0.02    0.05 -0.01 -0.11   
      2   H                0.15 -0.47  0.51    0.02 -0.12  0.15   -0.27 -0.02  0.27   
      3   H                0.26  0.26 -0.01   -0.31 -0.21  0.10   -0.06 -0.28  0.61   
      4   H                0.05  0.34  0.19    0.49 -0.48  0.28    0.18  0.04  0.12   
      5   H               -0.18 -0.39 -0.15    0.36 -0.14 -0.33   -0.39  0.34  0.26   

  Vibration                       10                  11                  12          
  Freq [cm^-1]                1491.3848           1904.8198           3073.1277       
  Irrep                           A                   A                   A           
  Reduced mass [u]              1.1757              1.0751              1.0602        
  Force const [mDyne/A]         1.5408              2.2984              5.8994        
  Turning point v=0 [a0]        0.2620              0.2425              0.1922        
  RMS dev v=0 [a0 u^1/2]        0.2009              0.1778              0.1400        
  Char temp [K]               2145.7706           2740.6116           4421.5466       
  ----------------------------------------------------------------------------------
      1   C               -0.10 -0.07 -0.02   -0.05  0.06  0.00   -0.03 -0.03 -0.05   
      2   H                0.10 -0.07 -0.23    0.57 -0.23 -0.23    0.14  0.18  0.12   
      3   H                0.44  0.28  0.18    0.28 -0.04  0.38   -0.36  0.40  0.13   
      4   H                0.22  0.15  0.36   -0.07 -0.39 -0.34    0.23  0.08 -0.20   
      5   H                0.40  0.51 -0.01   -0.19 -0.06  0.14    0.30 -0.27  0.60   

  Vibration                       13                  14                  15          
  Freq [cm^-1]                3108.9923           3176.9784           3414.9518       
  Irrep                           A                   A                   A           
  Reduced mass [u]              1.0812              1.0800              1.0664        
  Force const [mDyne/A]         6.1573              6.4225              7.3274        
  Turning point v=0 [a0]        0.1893              0.1873              0.1818        
  RMS dev v=0 [a0 u^1/2]        0.1392              0.1377              0.1328        
  Char temp [K]               4473.1477           4570.9646           4913.3553       
  ----------------------------------------------------------------------------------
      1   C                0.02 -0.03  0.07   -0.06 -0.05  0.02    0.04 -0.05 -0.02   
      2   H               -0.15 -0.29 -0.21    0.35  0.57  0.38    0.33  0.26  0.14   
      3   H               -0.27  0.33  0.14    0.18 -0.26 -0.09   -0.32  0.47  0.21   
      4   H                0.45  0.18 -0.45    0.34  0.17 -0.28   -0.34 -0.24  0.26   
      5   H               -0.21  0.16 -0.35   -0.12  0.08 -0.22   -0.18  0.16 -0.36   

  ==> Thermochemistry Components <==

  Entropy, S
    Electronic S            0.000 [cal/(mol K)]        0.000 [J/(mol K)]       0.00000000 [mEh/K] (multiplicity = 1)
    Translational S        34.261 [cal/(mol K)]      143.349 [J/(mol K)]       0.05459877 [mEh/K] (mol. weight = 16.0313 [u], P = 101325.00 [Pa])
    Rotational S           15.057 [cal/(mol K)]       63.000 [J/(mol K)]       0.02399545 [mEh/K] (symmetry no. = 1)
    Vibrational S           0.135 [cal/(mol K)]        0.564 [J/(mol K)]       0.00021494 [mEh/K]
  Total S                  49.453 [cal/(mol K)]      206.913 [J/(mol K)]       0.07880917 [mEh/K]
  Correction S              0.000 [cal/(mol K)]        0.000 [J/(mol K)]       0.00000000 [mEh/K]

  Constant volume heat capacity, Cv
    Electronic Cv           0.000 [cal/(mol K)]        0.000 [J/(mol K)]       0.00000000 [mEh/K]
    Translational Cv        2.981 [cal/(mol K)]       12.472 [J/(mol K)]       0.00475022 [mEh/K]
    Rotational Cv           2.981 [cal/(mol K)]       12.472 [J/(mol K)]       0.00475022 [mEh/K]
    Vibrational Cv          0.690 [cal/(mol K)]        2.888 [J/(mol K)]       0.00110006 [mEh/K]
  Total Cv                  6.652 [cal/(mol K)]       27.832 [J/(mol K)]       0.01060049 [mEh/K]
  Correction Cv             0.000 [cal/(mol K)]        0.000 [J/(mol K)]       0.00000000 [mEh/K]

  Constant pressure heat capacity, Cp
    Electronic Cp           0.000 [cal/(mol K)]        0.000 [J/(mol K)]       0.00000000 [mEh/K]
    Translational Cp        4.968 [cal/(mol K)]       20.786 [J/(mol K)]       0.00791703 [mEh/K]
    Rotational Cp           2.981 [cal/(mol K)]       12.472 [J/(mol K)]       0.00475022 [mEh/K]
    Vibrational Cp          0.690 [cal/(mol K)]        2.888 [J/(mol K)]       0.00110006 [mEh/K]
  Total Cp                  8.639 [cal/(mol K)]       36.146 [J/(mol K)]       0.01376730 [mEh/K]
  Correction Cp             0.000 [cal/(mol K)]        0.000 [J/(mol K)]       0.00000000 [mEh/K]

  ==> Thermochemistry Energy Analysis <==

  Raw electronic energy, E0
  Total E0, Electronic energy at well bottom at 0 [K]                  -40.51865792 [Eh]

  Zero-point energy, ZPE_vib = Sum_i nu_i / 2
    Electronic ZPE          0.000 [kcal/mol]        0.000 [kJ/mol]       0.00000000 [Eh]
    Translational ZPE       0.000 [kcal/mol]        0.000 [kJ/mol]       0.00000000 [Eh]
    Rotational ZPE          0.000 [kcal/mol]        0.000 [kJ/mol]       0.00000000 [Eh]
    Vibrational ZPE        28.334 [kcal/mol]      118.550 [kJ/mol]       0.04515330 [Eh]        9910.003 [cm^-1]
  Correction ZPE           28.334 [kcal/mol]      118.550 [kJ/mol]       0.04515330 [Eh]        9910.003 [cm^-1]
  Total ZPE, Electronic energy at 0 [K]                                -40.47350463 [Eh]

  Thermal Energy, E (includes ZPE)
    Electronic E            0.000 [kcal/mol]        0.000 [kJ/mol]       0.00000000 [Eh]
    Translational E         0.889 [kcal/mol]        3.718 [kJ/mol]       0.00141628 [Eh]
    Rotational E            0.889 [kcal/mol]        3.718 [kJ/mol]       0.00141628 [Eh]
    Vibrational E          28.369 [kcal/mol]      118.694 [kJ/mol]       0.04520811 [Eh]
  Correction E             30.146 [kcal/mol]      126.131 [kJ/mol]       0.04804067 [Eh]
  Total E, Electronic energy at  298.15 [K]                            -40.47061726 [Eh]

  Enthalpy, H_trans = E_trans + k_B * T
    Electronic H            0.000 [kcal/mol]        0.000 [kJ/mol]       0.00000000 [Eh]
    Translational H         1.481 [kcal/mol]        6.197 [kJ/mol]       0.00236046 [Eh]
    Rotational H            0.889 [kcal/mol]        3.718 [kJ/mol]       0.00141628 [Eh]
    Vibrational H          28.369 [kcal/mol]      118.694 [kJ/mol]       0.04520811 [Eh]
  Correction H             30.738 [kcal/mol]      128.610 [kJ/mol]       0.04898485 [Eh]
  Total H, Enthalpy at  298.15 [K]                                     -40.46967307 [Eh]

  Gibbs free energy, G = H - T * S
    Electronic G            0.000 [kcal/mol]        0.000 [kJ/mol]       0.00000000 [Eh]
    Translational G        -8.734 [kcal/mol]      -36.542 [kJ/mol]      -0.01391816 [Eh]
    Rotational G           -3.601 [kcal/mol]      -15.065 [kJ/mol]      -0.00573797 [Eh]
    Vibrational G          28.328 [kcal/mol]      118.526 [kJ/mol]       0.04514403 [Eh]
  Correction G             15.994 [kcal/mol]       66.918 [kJ/mol]       0.02548790 [Eh]
  Total G, Free enthalpy at  298.15 [K]                                -40.49317003 [Eh]

    Psi4 stopped on: Tuesday, 20 April 2021 12:19PM
    Psi4 wall time for execution: 0:28:48.10

*** Psi4 exiting successfully. Buy a developer a beer!
