
    -----------------------------------------------------------------------
          Psi4: An Open-Source Ab Initio Electronic Structure Package
                               Psi4 1.3.2 release

                         Git: Rev {HEAD} ecbda83 


    R. M. Parrish, L. A. Burns, D. G. A. Smith, A. C. Simmonett,
    A. E. DePrince III, E. G. Hohenstein, U. Bozkaya, A. Yu. Sokolov,
    R. Di Remigio, R. M. Richard, J. F. Gonthier, A. M. James,
    H. R. McAlexander, A. Kumar, M. Saitow, X. Wang, B. P. Pritchard,
    P. Verma, H. F. Schaefer III, K. Patkowski, R. A. King, E. F. Valeev,
    F. A. Evangelista, J. M. Turney, T. D. Crawford, and C. D. Sherrill,
    J. Chem. Theory Comput. 13(7) pp 3185--3197 (2017).
    (doi: 10.1021/acs.jctc.7b00174)


                         Additional Contributions by
    P. Kraus, H. Kruse, M. H. Lechner, M. C. Schieber, R. A. Shaw,
    A. Alenaizan, R. Galvelis, Z. L. Glick, S. Lehtola, and J. P. Misiewicz

    -----------------------------------------------------------------------


    Psi4 started on: Tuesday, 20 April 2021 11:01AM

    Process ID: 32069
    Host:       bp1-compute00133.data.bp.acrc.priv
    PSIDATADIR: /work/zw18965/.conda/envs/p4env/share/psi4
    Memory:     500.0 MiB
    Threads:    24
    
  ==> Input File <==

--------------------------------------------------------------------------
memory 144 GB

molecule {
0 1
O    -1.140454996052   0.000000000000   0.000000000000
O     1.140454996052   0.000000000000   0.000000000000
C     0.000000000000   0.000000000000   0.000000000000}

set basis aug-cc-pV(Q+d)Z
 
optimize("wB97X-V")
frequencies("wB97X-V")--------------------------------------------------------------------------

  Memory set to 134.110 GiB by Python driver.
gradient() will perform gradient computation by finite difference of analytic energies.

         ----------------------------------------------------------
                                   FINDIF
                     R. A. King and Jonathon Misiewicz
         ---------------------------------------------------------

  Using finite-differences of energies to determine gradients.
    Generating geometries for use with 3-point formula.
    Displacement size will be 5.00e-03.
    Number of atoms is 3.
    Number of symmetric SALCs is 1.
    Translations projected? 1. Rotations projected? 1.
    Number of geometries (including reference) is 3.

  //>>>>>>>>>>>>>>>>>>>>>>>>>>>>>>>>>>>//
  //    Loading displacement 1 of 3    //
  //<<<<<<<<<<<<<<<<<<<<<<<<<<<<<<<<<<<//

*** tstart() called on bp1-compute00133.data.bp.acrc.priv
*** at Tue Apr 20 11:01:12 2021

   => Loading Basis Set <=

    Name: AUG-CC-PV(Q+D)Z
    Role: ORBITAL
    Keyword: BASIS
    atoms 1-2 entry O          line   439 file /work/zw18965/.conda/envs/p4env/share/psi4/basis/aug-cc-pv_qpd_z.gbs 
    atoms 3   entry C          line   319 file /work/zw18965/.conda/envs/p4env/share/psi4/basis/aug-cc-pv_qpd_z.gbs 


         ---------------------------------------------------------
                                   SCF
               by Justin Turney, Rob Parrish, Andy Simmonett
                          and Daniel G. A. Smith
                              RKS Reference
                       24 Threads, 137329 MiB Core
         ---------------------------------------------------------

  ==> Geometry <==

    Molecular point group: d2h
    Full point group: D_inf_h

    Geometry (in Angstrom), charge = 0, multiplicity = 1:

       Center              X                  Y                   Z               Mass       
    ------------   -----------------  -----------------  -----------------  -----------------
         O           -1.140454996052    -0.000000000000     0.000000000000    15.994914619570
         O            1.140454996052     0.000000000000     0.000000000000    15.994914619570
         C            0.000000000000     0.000000000000     0.000000000000    12.000000000000

  Running in d2h symmetry.

  Rotational constants: A = ************  B =      0.40516  C =      0.40516 [cm^-1]
  Rotational constants: A = ************  B =  12146.43900  C =  12146.43900 [MHz]
  Nuclear repulsion =   59.392683797468841

  Charge       = 0
  Multiplicity = 1
  Electrons    = 22
  Nalpha       = 11
  Nbeta        = 11

  ==> Algorithm <==

  SCF Algorithm Type is DF.
  DIIS enabled.
  MOM disabled.
  Fractional occupation disabled.
  Guess Type is SAD.
  Energy threshold   = 1.00e-08
  Density threshold  = 1.00e-08
  Integral threshold = 0.00e+00

  ==> Primary Basis <==

  Basis Set: AUG-CC-PV(Q+D)Z
    Blend: AUG-CC-PV(Q+D)Z
    Number of shells: 60
    Number of basis function: 240
    Number of Cartesian functions: 315
    Spherical Harmonics?: true
    Max angular momentum: 4

  ==> DFT Potential <==

   => Composite Functional: WB97X-V <= 

    wB97X-V Hyb-GGA Exchange-Correlation Functional

    N. Mardirossian and M. Head-Gordon, Phys. Chem. Chem. Phys. 16, 9904 (2014)

    Deriv               =              1
    GGA                 =           TRUE
    Meta                =          FALSE

    Exchange Hybrid     =           TRUE
    MP2 Hybrid          =          FALSE

   => Exchange-Correlation Functionals <=

    1.0000   wB97X-V range-separated functional

   => Exact (HF) Exchange <=

    0.8330            HF,LR [omega = 0.3000]
    0.1670               HF 

   => VV10 Non-Local Parameters <=

    VV10 B              =     6.0000E+00
    VV10 C              =     1.0000E-02

   => Molecular Quadrature <=

    Radial Scheme          =       TREUTLER
    Pruning Scheme         =           FLAT
    Nuclear Scheme         =       TREUTLER

    BS radius alpha        =              1
    Pruning alpha          =              1
    Radial Points          =             75
    Spherical Points       =            302
    Total Points           =          67950
    Total Blocks           =            581
    Max Points             =            256
    Max Functions          =            240

   => Loading Basis Set <=

    Name: (AUG-CC-PV(Q+D)Z AUX)
    Role: JKFIT
    Keyword: DF_BASIS_SCF
    atoms 1-2 entry O          line   318 file /work/zw18965/.conda/envs/p4env/share/psi4/basis/aug-cc-pvqz-jkfit.gbs 
    atoms 3   entry C          line   178 file /work/zw18965/.conda/envs/p4env/share/psi4/basis/aug-cc-pvqz-jkfit.gbs 

  ==> Pre-Iterations <==

   -------------------------------------------------------
    Irrep   Nso     Nmo     Nalpha   Nbeta   Ndocc  Nsocc
   -------------------------------------------------------
     Ag        51      51       0       0       0       0
     B1g       27      27       0       0       0       0
     B2g       27      27       0       0       0       0
     B3g       19      19       0       0       0       0
     Au        14      14       0       0       0       0
     B1u       30      30       0       0       0       0
     B2u       30      30       0       0       0       0
     B3u       42      42       0       0       0       0
   -------------------------------------------------------
    Total     240     240      11      11      11       0
   -------------------------------------------------------

  ==> Integral Setup <==

  ==> DiskDFJK: Density-Fitted J/K Matrices <==

    J tasked:                  Yes
    K tasked:                  Yes
    wK tasked:                 Yes
    Omega:               3.000E-01
    OpenMP threads:             24
    Integrals threads:          24
    Memory [MiB]:           102580
    Algorithm:                Core
    Integral Cache:           NONE
    Schwarz Cutoff:          1E-12
    Fitting Condition:       1E-10

   => Auxiliary Basis Set <=

  Basis Set: (AUG-CC-PV(Q+D)Z AUX)
    Blend: AUG-CC-PVQZ-JKFIT
    Number of shells: 102
    Number of basis function: 426
    Number of Cartesian functions: 594
    Spherical Harmonics?: true
    Max angular momentum: 5

  Cached 100.0% of DFT collocation blocks in 0.406 [GiB].

  Minimum eigenvalue in the overlap matrix is 4.4423683487E-05.
  Using Symmetric Orthogonalization.

  SCF Guess: Superposition of Atomic Densities via on-the-fly atomic UHF.

  ==> Iterations <==

                           Total Energy        Delta E     RMS |[F,P]|

   @DF-RKS iter SAD:  -187.97826918698357   -1.87978e+02   0.00000e+00 
   @DF-RKS iter   1:  -188.49761693577290   -5.19348e-01   6.71279e-03 DIIS
   @DF-RKS iter   2:  -188.47674782666715    2.08691e-02   7.38154e-03 DIIS
   @DF-RKS iter   3:  -188.60962020904410   -1.32872e-01   3.54112e-04 DIIS
   @DF-RKS iter   4:  -188.60999617526579   -3.75966e-04   8.25119e-05 DIIS
   @DF-RKS iter   5:  -188.61001638325700   -2.02080e-05   6.52396e-06 DIIS
   @DF-RKS iter   6:  -188.61001664473139   -2.61474e-07   1.33006e-06 DIIS
   @DF-RKS iter   7:  -188.61001665549509   -1.07637e-08   1.99215e-07 DIIS
   @DF-RKS iter   8:  -188.61001665577675   -2.81659e-10   1.89619e-08 DIIS
   @DF-RKS iter   9:  -188.61001665577962   -2.87059e-12   2.39649e-09 DIIS
  Energy and wave function converged.


  ==> Post-Iterations <==

    Orbital Energies [Eh]
    ---------------------

    Doubly Occupied:                                                      

       1B3u  -19.291199     1Ag   -19.291163     2Ag   -10.453570  
       3Ag    -1.308323     2B3u   -1.264058     4Ag    -0.683248  
       1B1u   -0.648834     1B2u   -0.648834     3B3u   -0.640562  
       1B2g   -0.484303     1B1g   -0.484303  

    Virtual:                                                              

       5Ag     0.038164     2B1u    0.066290     2B2u    0.066290  
       4B3u    0.071388     6Ag     0.129222     2B2g    0.136030  
       2B1g    0.136030     3B2u    0.139220     3B1u    0.139220  
       7Ag     0.160466     5B3u    0.194777     4B2u    0.199838  
       4B1u    0.199838     1B3g    0.210713     8Ag     0.210716  
       6B3u    0.243817     5B2u    0.337669     5B1u    0.337669  
       9Ag     0.338054     3B2g    0.367524     3B1g    0.367524  
      10Ag     0.375941     1Au     0.448212     7B3u    0.448213  
       8B3u    0.481289    11Ag     0.545650     2B3g    0.549695  
      12Ag     0.549697     4B2g    0.582998     4B1g    0.582998  
       6B2u    0.598005     6B1u    0.598005     9B3u    0.619397  
      13Ag     0.663599     7B2u    0.706092     7B1u    0.706092  
      14Ag     0.754393     3B3g    0.754397    10B3u    0.796188  
       8B2u    0.807223     8B1u    0.807223    15Ag     0.850916  
       5B2g    0.862339     5B1g    0.862339     2Au     0.923491  
      11B3u    0.923495    12B3u    0.979102     9B1u    1.080035  
       9B2u    1.080035    13B3u    1.101031     6B2g    1.120595  
       6B1g    1.120595    16Ag     1.254186     7B2g    1.277893  
       7B1g    1.277893    14B3u    1.432841     3Au     1.432841  
      17Ag     1.442206    10B1u    1.482612    10B2u    1.482612  
      18Ag     1.488183     4B3g    1.488186    11B1u    1.524491  
      11B2u    1.524491    19Ag     1.560534     5B3g    1.560546  
       8B2g    1.595699     8B1g    1.595699    20Ag     1.602383  
      15B3u    1.611740    16B3u    1.624687    21Ag     1.808414  
       9B2g    1.826920     9B1g    1.826920     4Au     1.829667  
      17B3u    1.829677    12B2u    1.830199    12B1u    1.830199  
      18B3u    1.855891    22Ag     2.004286     6B3g    2.004287  
      13B2u    2.116460    13B1u    2.116460    23Ag     2.127206  
       7B3g    2.127210    14B1u    2.165788    14B2u    2.165788  
      10B1g    2.396726    10B2g    2.396726    11B1g    2.427500  
      11B2g    2.427500    15B1u    2.555198    15B2u    2.555198  
      19B3u    2.585734    24Ag     2.684140     5Au     2.798097  
      20B3u    2.798105    25Ag     2.914976    26Ag     3.035487  
       8B3g    3.035504    12B1g    3.064718    12B2g    3.064718  
      21B3u    3.263745    27Ag     3.382452    22B3u    3.464361  
       6Au     3.464368    13B2g    3.542431    13B1g    3.542431  
      28Ag     3.686092     9B3g    3.686099    29Ag     3.804371  
      14B2g    3.806105    14B1g    3.806105    23B3u    3.842468  
      16B1u    3.873241    16B2u    3.873241    24B3u    3.920148  
       7Au     3.920149    17B1u    3.948578    17B2u    3.948578  
      18B1u    4.036767    18B2u    4.036767    19B2u    4.041687  
      19B1u    4.041687    30Ag     4.053737    10B3g    4.053740  
      31Ag     4.162200    15B2g    4.164022    15B1g    4.164022  
       8Au     4.361555    25B3u    4.361560    11B3g    4.403737  
      32Ag     4.403740    26B3u    4.424582    20B1u    4.454609  
      20B2u    4.454609    33Ag     4.558018    16B1g    4.593866  
      16B2g    4.593866    17B2g    4.626888    17B1g    4.626888  
      34Ag     4.715752    12B3g    4.715754    27B3u    4.756803  
       9Au     5.269981    28B3u    5.269994    21B1u    5.425199  
      21B2u    5.425199    29B3u    5.552815    35Ag     5.645665  
      13B3g    5.645676    36Ag     5.694841    18B2g    5.774068  
      18B1g    5.774068    37Ag     5.877728    19B1g    6.019498  
      19B2g    6.019498    30B3u    6.127371    22B2u    6.133425  
      22B1u    6.133425    23B1u    6.259490    23B2u    6.259490  
      14B3g    6.440508    38Ag     6.440531    10Au     6.783736  
      31B3u    6.783739    32B3u    6.871603    20B1g    7.000629  
      20B2g    7.000629    39Ag     7.499676    40Ag     7.739699  
      15B3g    7.739700    24B1u    8.319979    24B2u    8.319979  
      41Ag     8.805786    21B2g    8.854677    21B1g    8.854677  
      33B3u   10.064539    34B3u   10.191860    11Au    10.191932  
      42Ag    10.281756    16B3g   10.281830    25B1u   10.406159  
      25B2u   10.406159    22B1g   10.591612    22B2g   10.591612  
      12Au    10.714552    35B3u   10.714553    23B2g   10.729277  
      23B1g   10.729277    26B2u   10.904745    26B1u   10.904745  
      36B3u   10.920149    24B1g   10.942870    24B2g   10.942870  
      17B3g   11.022532    43Ag    11.022536    27B2u   11.160708  
      27B1u   11.160708    44Ag    11.335692    28B1u   11.444416  
      28B2u   11.444416    25B1g   11.453962    25B2g   11.453962  
      37B3u   11.641323    13Au    11.979618    38B3u   11.979624  
      18B3g   12.001223    45Ag    12.001235    46Ag    12.054217  
      29B2u   12.091166    29B1u   12.091166    14Au    12.562350  
      39B3u   12.562388    19B3g   12.682526    47Ag    12.682550  
      26B2g   12.761618    26B1g   12.761618    40B3u   13.454596  
      48Ag    13.668662    30B1u   13.832918    30B2u   13.832918  
      49Ag    14.394331    27B2g   15.623555    27B1g   15.623555  
      41B3u   16.485424    50Ag    26.133227    42B3u   42.223164  
      51Ag    43.192164  

    Final Occupation by Irrep:
             Ag   B1g   B2g   B3g    Au   B1u   B2u   B3u 
    DOCC [     4,    1,    1,    0,    0,    1,    1,    3 ]

  @DF-RKS Final Energy:  -188.61001665577962

   => Energetics <=

    Nuclear Repulsion Energy =             59.3926837974688411
    One-Electron Energy =                -374.7821455972800209
    Two-Electron Energy =                 142.7905167176656391
    DFT Exchange-Correlation Energy =     -16.1028329176351797
    Empirical Dispersion Energy =           0.0000000000000000
    VV10 Nonlocal Energy =                  0.0917613440010712
    Total Energy =                       -188.6100166557796172

Computation Completed


Properties will be evaluated at   0.000000,   0.000000,   0.000000 [a0]

Properties computed using the SCF density matrix

  Nuclear Dipole Moment: [e a0]
     X:     0.0000      Y:     0.0000      Z:     0.0000

  Electronic Dipole Moment: [e a0]
     X:     0.0000      Y:     0.0000      Z:     0.0000

  Dipole Moment: [e a0]
     X:     0.0000      Y:     0.0000      Z:     0.0000     Total:     0.0000

  Dipole Moment: [D]
     X:     0.0000      Y:     0.0000      Z:     0.0000     Total:     0.0000


*** tstop() called on bp1-compute00133.data.bp.acrc.priv at Tue Apr 20 11:01:18 2021
Module time:
	user time   =     111.50 seconds =       1.86 minutes
	system time =       5.15 seconds =       0.09 minutes
	total time  =          6 seconds =       0.10 minutes
Total time:
	user time   =     111.50 seconds =       1.86 minutes
	system time =       5.15 seconds =       0.09 minutes
	total time  =          6 seconds =       0.10 minutes

  //>>>>>>>>>>>>>>>>>>>>>>>>>>>>>>>>>>>//
  //    Loading displacement 2 of 3    //
  //<<<<<<<<<<<<<<<<<<<<<<<<<<<<<<<<<<<//

*** tstart() called on bp1-compute00133.data.bp.acrc.priv
*** at Tue Apr 20 11:01:18 2021

   => Loading Basis Set <=

    Name: AUG-CC-PV(Q+D)Z
    Role: ORBITAL
    Keyword: BASIS
    atoms 1-2 entry O          line   439 file /work/zw18965/.conda/envs/p4env/share/psi4/basis/aug-cc-pv_qpd_z.gbs 
    atoms 3   entry C          line   319 file /work/zw18965/.conda/envs/p4env/share/psi4/basis/aug-cc-pv_qpd_z.gbs 


         ---------------------------------------------------------
                                   SCF
               by Justin Turney, Rob Parrish, Andy Simmonett
                          and Daniel G. A. Smith
                              RKS Reference
                       24 Threads, 137329 MiB Core
         ---------------------------------------------------------

  ==> Geometry <==

    Molecular point group: d2h
    Full point group: D_inf_h

    Geometry (in Angstrom), charge = 0, multiplicity = 1:

       Center              X                  Y                   Z               Mass       
    ------------   -----------------  -----------------  -----------------  -----------------
         O           -1.140922801393    -0.000000000000     0.000000000000    15.994914619570
         O            1.140922801393     0.000000000000     0.000000000000    15.994914619570
         C            0.000000000000    -0.000000000000     0.000000000000    12.000000000000

  Running in d2h symmetry.

  Rotational constants: A = ************  B =      0.40483  C =      0.40483 [cm^-1]
  Rotational constants: A = ************  B =  12136.48038  C =  12136.48038 [MHz]
  Nuclear repulsion =   59.368331391959067

  Charge       = 0
  Multiplicity = 1
  Electrons    = 22
  Nalpha       = 11
  Nbeta        = 11

  ==> Algorithm <==

  SCF Algorithm Type is DF.
  DIIS enabled.
  MOM disabled.
  Fractional occupation disabled.
  Guess Type is SAD.
  Energy threshold   = 1.00e-08
  Density threshold  = 1.00e-08
  Integral threshold = 0.00e+00

  ==> Primary Basis <==

  Basis Set: AUG-CC-PV(Q+D)Z
    Blend: AUG-CC-PV(Q+D)Z
    Number of shells: 60
    Number of basis function: 240
    Number of Cartesian functions: 315
    Spherical Harmonics?: true
    Max angular momentum: 4

  ==> DFT Potential <==

   => Composite Functional: WB97X-V <= 

    wB97X-V Hyb-GGA Exchange-Correlation Functional

    N. Mardirossian and M. Head-Gordon, Phys. Chem. Chem. Phys. 16, 9904 (2014)

    Deriv               =              1
    GGA                 =           TRUE
    Meta                =          FALSE

    Exchange Hybrid     =           TRUE
    MP2 Hybrid          =          FALSE

   => Exchange-Correlation Functionals <=

    1.0000   wB97X-V range-separated functional

   => Exact (HF) Exchange <=

    0.8330            HF,LR [omega = 0.3000]
    0.1670               HF 

   => VV10 Non-Local Parameters <=

    VV10 B              =     6.0000E+00
    VV10 C              =     1.0000E-02

   => Molecular Quadrature <=

    Radial Scheme          =       TREUTLER
    Pruning Scheme         =           FLAT
    Nuclear Scheme         =       TREUTLER

    BS radius alpha        =              1
    Pruning alpha          =              1
    Radial Points          =             75
    Spherical Points       =            302
    Total Points           =          67950
    Total Blocks           =            581
    Max Points             =            256
    Max Functions          =            240

   => Loading Basis Set <=

    Name: (AUG-CC-PV(Q+D)Z AUX)
    Role: JKFIT
    Keyword: DF_BASIS_SCF
    atoms 1-2 entry O          line   318 file /work/zw18965/.conda/envs/p4env/share/psi4/basis/aug-cc-pvqz-jkfit.gbs 
    atoms 3   entry C          line   178 file /work/zw18965/.conda/envs/p4env/share/psi4/basis/aug-cc-pvqz-jkfit.gbs 

  ==> Pre-Iterations <==

   -------------------------------------------------------
    Irrep   Nso     Nmo     Nalpha   Nbeta   Ndocc  Nsocc
   -------------------------------------------------------
     Ag        51      51       0       0       0       0
     B1g       27      27       0       0       0       0
     B2g       27      27       0       0       0       0
     B3g       19      19       0       0       0       0
     Au        14      14       0       0       0       0
     B1u       30      30       0       0       0       0
     B2u       30      30       0       0       0       0
     B3u       42      42       0       0       0       0
   -------------------------------------------------------
    Total     240     240      11      11      11       0
   -------------------------------------------------------

  ==> Integral Setup <==

  ==> DiskDFJK: Density-Fitted J/K Matrices <==

    J tasked:                  Yes
    K tasked:                  Yes
    wK tasked:                 Yes
    Omega:               3.000E-01
    OpenMP threads:             24
    Integrals threads:          24
    Memory [MiB]:           102580
    Algorithm:                Core
    Integral Cache:           NONE
    Schwarz Cutoff:          1E-12
    Fitting Condition:       1E-10

   => Auxiliary Basis Set <=

  Basis Set: (AUG-CC-PV(Q+D)Z AUX)
    Blend: AUG-CC-PVQZ-JKFIT
    Number of shells: 102
    Number of basis function: 426
    Number of Cartesian functions: 594
    Spherical Harmonics?: true
    Max angular momentum: 5

  Cached 100.0% of DFT collocation blocks in 0.406 [GiB].

  Minimum eigenvalue in the overlap matrix is 4.4505499861E-05.
  Using Symmetric Orthogonalization.

  SCF Guess: Superposition of Atomic Densities via on-the-fly atomic UHF.

  ==> Iterations <==

                           Total Energy        Delta E     RMS |[F,P]|

   @DF-RKS iter SAD:  -187.97659683153947   -1.87977e+02   0.00000e+00 
   @DF-RKS iter   1:  -188.49765144022444   -5.21055e-01   6.71271e-03 DIIS
   @DF-RKS iter   2:  -188.47649136963059    2.11601e-02   7.38928e-03 DIIS
   @DF-RKS iter   3:  -188.60969527850676   -1.33204e-01   3.53752e-04 DIIS
   @DF-RKS iter   4:  -188.61007059516299   -3.75317e-04   8.24989e-05 DIIS
   @DF-RKS iter   5:  -188.61009080341626   -2.02083e-05   6.53470e-06 DIIS
   @DF-RKS iter   6:  -188.61009106529045   -2.61874e-07   1.33456e-06 DIIS
   @DF-RKS iter   7:  -188.61009107609934   -1.08089e-08   2.00265e-07 DIIS
   @DF-RKS iter   8:  -188.61009107638301   -2.83677e-10   1.90817e-08 DIIS
   @DF-RKS iter   9:  -188.61009107638580   -2.78533e-12   2.42101e-09 DIIS
  Energy and wave function converged.


  ==> Post-Iterations <==

    Orbital Energies [Eh]
    ---------------------

    Doubly Occupied:                                                      

       1B3u  -19.291316     1Ag   -19.291281     2Ag   -10.453801  
       3Ag    -1.308119     2B3u   -1.263845     4Ag    -0.683338  
       1B1u   -0.648663     1B2u   -0.648663     3B3u   -0.640540  
       1B2g   -0.484284     1B1g   -0.484284  

    Virtual:                                                              

       5Ag     0.038142     2B1u    0.066298     2B2u    0.066298  
       4B3u    0.071389     6Ag     0.129212     2B2g    0.136030  
       2B1g    0.136030     3B2u    0.138896     3B1u    0.138896  
       7Ag     0.160393     5B3u    0.194772     4B1u    0.199847  
       4B2u    0.199847     1B3g    0.210716     8Ag     0.210719  
       6B3u    0.243823     5B1u    0.337621     5B2u    0.337621  
       9Ag     0.337919     3B2g    0.367529     3B1g    0.367529  
      10Ag     0.375737     1Au     0.448224     7B3u    0.448225  
       8B3u    0.481269    11Ag     0.545517     2B3g    0.549724  
      12Ag     0.549726     4B1g    0.582909     4B2g    0.582909  
       6B1u    0.598087     6B2u    0.598087     9B3u    0.619445  
      13Ag     0.663440     7B2u    0.706092     7B1u    0.706092  
      14Ag     0.754367     3B3g    0.754371    10B3u    0.796060  
       8B1u    0.807203     8B2u    0.807203    15Ag     0.850868  
       5B1g    0.862399     5B2g    0.862399     2Au     0.923457  
      11B3u    0.923462    12B3u    0.979179     9B2u    1.079990  
       9B1u    1.079990    13B3u    1.099834     6B1g    1.120184  
       6B2g    1.120184    16Ag     1.254180     7B1g    1.277892  
       7B2g    1.277892    14B3u    1.432812     3Au     1.432812  
      17Ag     1.441964    10B1u    1.482545    10B2u    1.482545  
      18Ag     1.488152     4B3g    1.488155    11B2u    1.524348  
      11B1u    1.524348    19Ag     1.560704     5B3g    1.560716  
       8B1g    1.595689     8B2g    1.595689    20Ag     1.602250  
      15B3u    1.611828    16B3u    1.624427    21Ag     1.808440  
       9B1g    1.826898     9B2g    1.826898     4Au     1.829620  
      17B3u    1.829631    12B2u    1.830544    12B1u    1.830544  
      18B3u    1.855886    22Ag     2.004268     6B3g    2.004269  
      13B1u    2.116367    13B2u    2.116367    23Ag     2.126716  
       7B3g    2.126720    14B2u    2.165147    14B1u    2.165147  
      10B1g    2.396944    10B2g    2.396944    11B1g    2.427296  
      11B2g    2.427296    15B2u    2.554546    15B1u    2.554546  
      19B3u    2.585612    24Ag     2.683477     5Au     2.797631  
      20B3u    2.797640    25Ag     2.914720    26Ag     3.035360  
       8B3g    3.035378    12B1g    3.064077    12B2g    3.064077  
      21B3u    3.264229    27Ag     3.381773    22B3u    3.464367  
       6Au     3.464374    13B1g    3.542411    13B2g    3.542411  
      28Ag     3.685782     9B3g    3.685789    29Ag     3.804329  
      14B1g    3.806118    14B2g    3.806118    23B3u    3.841988  
      16B2u    3.872991    16B1u    3.872991    24B3u    3.920030  
       7Au     3.920032    17B2u    3.948195    17B1u    3.948195  
      18B2u    4.036854    18B1u    4.036854    19B2u    4.041184  
      19B1u    4.041184    30Ag     4.053727    10B3g    4.053730  
      31Ag     4.161481    15B1g    4.163337    15B2g    4.163337  
       8Au     4.361419    25B3u    4.361423    11B3g    4.403211  
      32Ag     4.403213    26B3u    4.424321    20B2u    4.454480  
      20B1u    4.454480    33Ag     4.556990    16B1g    4.593223  
      16B2g    4.593223    17B1g    4.627981    17B2g    4.627981  
      34Ag     4.715514    12B3g    4.715517    27B3u    4.755366  
       9Au     5.269587    28B3u    5.269600    21B2u    5.423678  
      21B1u    5.423678    29B3u    5.555043    35Ag     5.645646  
      13B3g    5.645657    36Ag     5.693725    18B1g    5.772981  
      18B2g    5.772981    37Ag     5.878788    19B1g    6.018604  
      19B2g    6.018604    30B3u    6.124744    22B2u    6.133379  
      22B1u    6.133379    23B2u    6.258642    23B1u    6.258642  
      14B3g    6.439601    38Ag     6.439623    10Au     6.781832  
      31B3u    6.781835    32B3u    6.870096    20B1g    6.998939  
      20B2g    6.998939    39Ag     7.496853    40Ag     7.737883  
      15B3g    7.737884    24B2u    8.317397    24B1u    8.317397  
      41Ag     8.802584    21B1g    8.856232    21B2g    8.856232  
      33B3u   10.063055    34B3u   10.191869    11Au    10.191942  
      42Ag    10.281616    16B3g   10.281691    25B2u   10.405852  
      25B1u   10.405852    22B1g   10.590999    22B2g   10.590999  
      12Au    10.713943    35B3u   10.713944    23B1g   10.728836  
      23B2g   10.728836    26B2u   10.904279    26B1u   10.904279  
      36B3u   10.921121    24B1g   10.942064    24B2g   10.942064  
      17B3g   11.021502    43Ag    11.021507    27B2u   11.160264  
      27B1u   11.160264    44Ag    11.334161    28B2u   11.444309  
      28B1u   11.444309    25B1g   11.453560    25B2g   11.453560  
      37B3u   11.640927    13Au    11.978589    38B3u   11.978595  
      18B3g   12.001734    45Ag    12.001746    46Ag    12.053290  
      29B2u   12.091254    29B1u   12.091254    14Au    12.561927  
      39B3u   12.561966    19B3g   12.680270    47Ag    12.680294  
      26B1g   12.759018    26B2g   12.759018    40B3u   13.451678  
      48Ag    13.668999    30B2u   13.828763    30B1u   13.828763  
      49Ag    14.392645    27B1g   15.620270    27B2g   15.620270  
      41B3u   16.479069    50Ag    26.127133    42B3u   42.222594  
      51Ag    43.182493  

    Final Occupation by Irrep:
             Ag   B1g   B2g   B3g    Au   B1u   B2u   B3u 
    DOCC [     4,    1,    1,    0,    0,    1,    1,    3 ]

  @DF-RKS Final Energy:  -188.61009107638580

   => Energetics <=

    Nuclear Repulsion Energy =             59.3683313919590674
    One-Electron Energy =                -374.7346292902545883
    Two-Electron Energy =                 142.7664824132972683
    DFT Exchange-Correlation Energy =     -16.1020370888213691
    Empirical Dispersion Energy =           0.0000000000000000
    VV10 Nonlocal Energy =                  0.0917614974337856
    Total Energy =                       -188.6100910763857996

Computation Completed


Properties will be evaluated at   0.000000,   0.000000,   0.000000 [a0]

Properties computed using the SCF density matrix

  Nuclear Dipole Moment: [e a0]
     X:     0.0000      Y:    -0.0000      Z:     0.0000

  Electronic Dipole Moment: [e a0]
     X:     0.0000      Y:     0.0000      Z:     0.0000

  Dipole Moment: [e a0]
     X:     0.0000      Y:    -0.0000      Z:     0.0000     Total:     0.0000

  Dipole Moment: [D]
     X:     0.0000      Y:    -0.0000      Z:     0.0000     Total:     0.0000


*** tstop() called on bp1-compute00133.data.bp.acrc.priv at Tue Apr 20 11:01:24 2021
Module time:
	user time   =     118.36 seconds =       1.97 minutes
	system time =       4.16 seconds =       0.07 minutes
	total time  =          6 seconds =       0.10 minutes
Total time:
	user time   =     230.02 seconds =       3.83 minutes
	system time =       9.32 seconds =       0.16 minutes
	total time  =         12 seconds =       0.20 minutes

  //>>>>>>>>>>>>>>>>>>>>>>>>>>>>>>>>>>>//
  //    Loading displacement 3 of 3    //
  //<<<<<<<<<<<<<<<<<<<<<<<<<<<<<<<<<<<//

*** tstart() called on bp1-compute00133.data.bp.acrc.priv
*** at Tue Apr 20 11:01:24 2021

   => Loading Basis Set <=

    Name: AUG-CC-PV(Q+D)Z
    Role: ORBITAL
    Keyword: BASIS
    atoms 1-2 entry O          line   439 file /work/zw18965/.conda/envs/p4env/share/psi4/basis/aug-cc-pv_qpd_z.gbs 
    atoms 3   entry C          line   319 file /work/zw18965/.conda/envs/p4env/share/psi4/basis/aug-cc-pv_qpd_z.gbs 


         ---------------------------------------------------------
                                   SCF
               by Justin Turney, Rob Parrish, Andy Simmonett
                          and Daniel G. A. Smith
                              RKS Reference
                       24 Threads, 137329 MiB Core
         ---------------------------------------------------------

  ==> Geometry <==

    Molecular point group: d2h
    Full point group: D_inf_h

    Geometry (in Angstrom), charge = 0, multiplicity = 1:

       Center              X                  Y                   Z               Mass       
    ------------   -----------------  -----------------  -----------------  -----------------
         O           -1.139987190711    -0.000000000000     0.000000000000    15.994914619570
         O            1.139987190711     0.000000000000     0.000000000000    15.994914619570
         C            0.000000000000    -0.000000000000     0.000000000000    12.000000000000

  Running in d2h symmetry.

  Rotational constants: A = ************  B =      0.40549  C =      0.40549 [cm^-1]
  Rotational constants: A = ************  B =  12156.40987  C =  12156.40987 [MHz]
  Nuclear repulsion =   59.417056189493316

  Charge       = 0
  Multiplicity = 1
  Electrons    = 22
  Nalpha       = 11
  Nbeta        = 11

  ==> Algorithm <==

  SCF Algorithm Type is DF.
  DIIS enabled.
  MOM disabled.
  Fractional occupation disabled.
  Guess Type is SAD.
  Energy threshold   = 1.00e-08
  Density threshold  = 1.00e-08
  Integral threshold = 0.00e+00

  ==> Primary Basis <==

  Basis Set: AUG-CC-PV(Q+D)Z
    Blend: AUG-CC-PV(Q+D)Z
    Number of shells: 60
    Number of basis function: 240
    Number of Cartesian functions: 315
    Spherical Harmonics?: true
    Max angular momentum: 4

  ==> DFT Potential <==

   => Composite Functional: WB97X-V <= 

    wB97X-V Hyb-GGA Exchange-Correlation Functional

    N. Mardirossian and M. Head-Gordon, Phys. Chem. Chem. Phys. 16, 9904 (2014)

    Deriv               =              1
    GGA                 =           TRUE
    Meta                =          FALSE

    Exchange Hybrid     =           TRUE
    MP2 Hybrid          =          FALSE

   => Exchange-Correlation Functionals <=

    1.0000   wB97X-V range-separated functional

   => Exact (HF) Exchange <=

    0.8330            HF,LR [omega = 0.3000]
    0.1670               HF 

   => VV10 Non-Local Parameters <=

    VV10 B              =     6.0000E+00
    VV10 C              =     1.0000E-02

   => Molecular Quadrature <=

    Radial Scheme          =       TREUTLER
    Pruning Scheme         =           FLAT
    Nuclear Scheme         =       TREUTLER

    BS radius alpha        =              1
    Pruning alpha          =              1
    Radial Points          =             75
    Spherical Points       =            302
    Total Points           =          67950
    Total Blocks           =            579
    Max Points             =            256
    Max Functions          =            240

   => Loading Basis Set <=

    Name: (AUG-CC-PV(Q+D)Z AUX)
    Role: JKFIT
    Keyword: DF_BASIS_SCF
    atoms 1-2 entry O          line   318 file /work/zw18965/.conda/envs/p4env/share/psi4/basis/aug-cc-pvqz-jkfit.gbs 
    atoms 3   entry C          line   178 file /work/zw18965/.conda/envs/p4env/share/psi4/basis/aug-cc-pvqz-jkfit.gbs 

  ==> Pre-Iterations <==

   -------------------------------------------------------
    Irrep   Nso     Nmo     Nalpha   Nbeta   Ndocc  Nsocc
   -------------------------------------------------------
     Ag        51      51       0       0       0       0
     B1g       27      27       0       0       0       0
     B2g       27      27       0       0       0       0
     B3g       19      19       0       0       0       0
     Au        14      14       0       0       0       0
     B1u       30      30       0       0       0       0
     B2u       30      30       0       0       0       0
     B3u       42      42       0       0       0       0
   -------------------------------------------------------
    Total     240     240      11      11      11       0
   -------------------------------------------------------

  ==> Integral Setup <==

  ==> DiskDFJK: Density-Fitted J/K Matrices <==

    J tasked:                  Yes
    K tasked:                  Yes
    wK tasked:                 Yes
    Omega:               3.000E-01
    OpenMP threads:             24
    Integrals threads:          24
    Memory [MiB]:           102580
    Algorithm:                Core
    Integral Cache:           NONE
    Schwarz Cutoff:          1E-12
    Fitting Condition:       1E-10

   => Auxiliary Basis Set <=

  Basis Set: (AUG-CC-PV(Q+D)Z AUX)
    Blend: AUG-CC-PVQZ-JKFIT
    Number of shells: 102
    Number of basis function: 426
    Number of Cartesian functions: 594
    Spherical Harmonics?: true
    Max angular momentum: 5

  Cached 100.0% of DFT collocation blocks in 0.406 [GiB].

  Minimum eigenvalue in the overlap matrix is 4.4342057742E-05.
  Using Symmetric Orthogonalization.

  SCF Guess: Superposition of Atomic Densities via on-the-fly atomic UHF.

  ==> Iterations <==

                           Total Energy        Delta E     RMS |[F,P]|

   @DF-RKS iter SAD:  -187.97994219599903   -1.87980e+02   0.00000e+00 
   @DF-RKS iter   1:  -188.49757987352098   -5.17638e-01   6.71288e-03 DIIS
   @DF-RKS iter   2:  -188.47700101052561    2.05789e-02   7.37382e-03 DIIS
   @DF-RKS iter   3:  -188.60954306406776   -1.32542e-01   3.54473e-04 DIIS
   @DF-RKS iter   4:  -188.60991968084866   -3.76617e-04   8.25253e-05 DIIS
   @DF-RKS iter   5:  -188.60993988876780   -2.02079e-05   6.51330e-06 DIIS
   @DF-RKS iter   6:  -188.60994014985044   -2.61083e-07   1.32559e-06 DIIS
   @DF-RKS iter   7:  -188.60994016057020   -1.07198e-08   1.98179e-07 DIIS
   @DF-RKS iter   8:  -188.60994016085033   -2.80124e-10   1.88447e-08 DIIS
   @DF-RKS iter   9:  -188.60994016085340   -3.06954e-12   2.37231e-09 DIIS
  Energy and wave function converged.


  ==> Post-Iterations <==

    Orbital Energies [Eh]
    ---------------------

    Doubly Occupied:                                                      

       1B3u  -19.291081     1Ag   -19.291046     2Ag   -10.453339  
       3Ag    -1.308527     2B3u   -1.264271     4Ag    -0.683159  
       1B1u   -0.649006     1B2u   -0.649006     3B3u   -0.640584  
       1B2g   -0.484323     1B1g   -0.484323  

    Virtual:                                                              

       5Ag     0.038185     2B2u    0.066282     2B1u    0.066282  
       4B3u    0.071387     6Ag     0.129232     2B1g    0.136029  
       2B2g    0.136029     3B1u    0.139544     3B2u    0.139544  
       7Ag     0.160539     5B3u    0.194783     4B2u    0.199830  
       4B1u    0.199830     1B3g    0.210710     8Ag     0.210713  
       6B3u    0.243811     5B2u    0.337717     5B1u    0.337717  
       9Ag     0.338188     3B2g    0.367519     3B1g    0.367519  
      10Ag     0.376147     1Au     0.448200     7B3u    0.448200  
       8B3u    0.481308    11Ag     0.545783     2B3g    0.549666  
      12Ag     0.549668     4B2g    0.583087     4B1g    0.583087  
       6B1u    0.597923     6B2u    0.597923     9B3u    0.619349  
      13Ag     0.663759     7B1u    0.706092     7B2u    0.706092  
      14Ag     0.754419     3B3g    0.754423    10B3u    0.796316  
       8B2u    0.807242     8B1u    0.807242    15Ag     0.850963  
       5B2g    0.862278     5B1g    0.862278     2Au     0.923525  
      11B3u    0.923529    12B3u    0.979024     9B1u    1.080080  
       9B2u    1.080080    13B3u    1.102228     6B1g    1.121007  
       6B2g    1.121007    16Ag     1.254193     7B1g    1.277895  
       7B2g    1.277895    14B3u    1.432870     3Au     1.432870  
      17Ag     1.442449    10B2u    1.482680    10B1u    1.482680  
      18Ag     1.488213     4B3g    1.488216    11B1u    1.524634  
      11B2u    1.524634    19Ag     1.560364     5B3g    1.560376  
       8B1g    1.595710     8B2g    1.595710    20Ag     1.602515  
      15B3u    1.611644    16B3u    1.624956    21Ag     1.808389  
       9B1g    1.826941     9B2g    1.826941     4Au     1.829713  
      17B3u    1.829724    12B2u    1.829854    12B1u    1.829854  
      18B3u    1.855897    22Ag     2.004304     6B3g    2.004306  
      13B1u    2.116552    13B2u    2.116552    23Ag     2.127696  
       7B3g    2.127700    14B1u    2.166430    14B2u    2.166430  
      10B2g    2.396508    10B1g    2.396508    11B1g    2.427704  
      11B2g    2.427704    15B1u    2.555851    15B2u    2.555851  
      19B3u    2.585855    24Ag     2.684802     5Au     2.798561  
      20B3u    2.798570    25Ag     2.915232    26Ag     3.035613  
       8B3g    3.035630    12B1g    3.065360    12B2g    3.065360  
      21B3u    3.263262    27Ag     3.383133    22B3u    3.464355  
       6Au     3.464362    13B2g    3.542449    13B1g    3.542449  
      28Ag     3.686403     9B3g    3.686410    29Ag     3.804413  
      14B2g    3.806093    14B1g    3.806093    23B3u    3.842948  
      16B1u    3.873488    16B2u    3.873488    24B3u    3.920267  
       7Au     3.920268    17B1u    3.948959    17B2u    3.948959  
      18B1u    4.036673    18B2u    4.036673    19B1u    4.042192  
      19B2u    4.042192    30Ag     4.053746    10B3g    4.053749  
      31Ag     4.162921    15B2g    4.164709    15B1g    4.164709  
       8Au     4.361692    25B3u    4.361697    11B3g    4.404263  
      32Ag     4.404265    26B3u    4.424843    20B1u    4.454747  
      20B2u    4.454747    33Ag     4.559049    16B1g    4.594508  
      16B2g    4.594508    17B2g    4.625795    17B1g    4.625795  
      34Ag     4.715993    12B3g    4.715995    27B3u    4.758235  
       9Au     5.270373    28B3u    5.270386    21B1u    5.426721  
      21B2u    5.426721    29B3u    5.550587    35Ag     5.645683  
      13B3g    5.645695    36Ag     5.695957    18B2g    5.775156  
      18B1g    5.775156    37Ag     5.876666    19B2g    6.020394  
      19B1g    6.020394    30B3u    6.130009    22B2u    6.133471  
      22B1u    6.133471    23B1u    6.260338    23B2u    6.260338  
      14B3g    6.441416    38Ag     6.441439    10Au     6.785644  
      31B3u    6.785648    32B3u    6.873112    20B1g    7.002321  
      20B2g    7.002321    39Ag     7.502500    40Ag     7.741514  
      15B3g    7.741516    24B1u    8.322563    24B2u    8.322563  
      41Ag     8.808997    21B2g    8.853107    21B1g    8.853107  
      33B3u   10.066004    34B3u   10.191851    11Au    10.191923  
      42Ag    10.281895    16B3g   10.281969    25B1u   10.406465  
      25B2u   10.406465    22B2g   10.592233    22B1g   10.592233  
      12Au    10.715165    35B3u   10.715166    23B1g   10.729719  
      23B2g   10.729719    26B1u   10.905210    26B2u   10.905210  
      36B3u   10.919178    24B1g   10.943688    24B2g   10.943688  
      17B3g   11.023559    43Ag    11.023563    27B1u   11.161142  
      27B2u   11.161142    44Ag    11.337220    28B2u   11.444524  
      28B1u   11.444524    25B1g   11.454365    25B2g   11.454365  
      37B3u   11.641729    13Au    11.980647    38B3u   11.980654  
      18B3g   12.000710    45Ag    12.000723    46Ag    12.055141  
      29B1u   12.091089    29B2u   12.091089    14Au    12.562772  
      39B3u   12.562810    19B3g   12.684791    47Ag    12.684815  
      26B2g   12.764222    26B1g   12.764222    40B3u   13.457523  
      48Ag    13.668294    30B1u   13.837079    30B2u   13.837079  
      49Ag    14.396055    27B2g   15.626822    27B1g   15.626822  
      41B3u   16.491771    50Ag    26.139317    42B3u   42.223738  
      51Ag    43.201852  

    Final Occupation by Irrep:
             Ag   B1g   B2g   B3g    Au   B1u   B2u   B3u 
    DOCC [     4,    1,    1,    0,    0,    1,    1,    3 ]

  @DF-RKS Final Energy:  -188.60994016085340

   => Energetics <=

    Nuclear Repulsion Energy =             59.4170561894933158
    One-Electron Energy =                -374.8296973672903505
    Two-Electron Energy =                 142.8145694591070765
    DFT Exchange-Correlation Energy =     -16.1036296333033064
    Empirical Dispersion Energy =           0.0000000000000000
    VV10 Nonlocal Energy =                  0.0917611911398666
    Total Energy =                       -188.6099401608533697

Computation Completed


Properties will be evaluated at   0.000000,   0.000000,   0.000000 [a0]

Properties computed using the SCF density matrix

  Nuclear Dipole Moment: [e a0]
     X:     0.0000      Y:    -0.0000      Z:     0.0000

  Electronic Dipole Moment: [e a0]
     X:     0.0000      Y:     0.0000      Z:     0.0000

  Dipole Moment: [e a0]
     X:     0.0000      Y:    -0.0000      Z:     0.0000     Total:     0.0000

  Dipole Moment: [D]
     X:     0.0000      Y:    -0.0000      Z:     0.0000     Total:     0.0000


*** tstop() called on bp1-compute00133.data.bp.acrc.priv at Tue Apr 20 11:01:29 2021
Module time:
	user time   =     111.13 seconds =       1.85 minutes
	system time =       3.27 seconds =       0.05 minutes
	total time  =          5 seconds =       0.08 minutes
Total time:
	user time   =     341.29 seconds =       5.69 minutes
	system time =      12.59 seconds =       0.21 minutes
	total time  =         17 seconds =       0.28 minutes

         ----------------------------------------------------------
                                   FINDIF
                     R. A. King and Jonathon Misiewicz
         ---------------------------------------------------------

  Computing gradient from energies.
    Using 3-point formula.
    Energy without displacement: -188.6100166558
    Check energies below for precision!
    Forces are for mass-weighted, symmetry-adapted cartesians (in au).

     Coord      Energy(-1)        Energy(+1)            Force
        0   -188.6100910764   -188.6099401609      0.0150915532


-------------------------------------------------------------
  ## New Matrix (Symmetry 0) ##
  Irrep: 1 Size: 3 x 3

                 1                   2                   3

    1     0.04267857452219     0.00000000000000     0.00000000000000
    2    -0.04267857452219     0.00000000000000     0.00000000000000
    3     0.00000000000000     0.00000000000000     0.00000000000000




			-----------------------------------------
			 OPTKING 2.0: for geometry optimizations 
			  - R.A. King,  Bethel University        
			-----------------------------------------

	Internal coordinates to be generated automatically.
	Detected frag 1 with atoms:  1 2 3
	---Fragment 1 Bond Connectivity---
	 1 : 3
	 2 : 3
	 3 : 1 2

	---Fragment 1 Geometry and Gradient---
	 O          -2.1551476009       -0.0000000000        0.0000000000
	 O           2.1551476009        0.0000000000        0.0000000000
	 C           0.0000000000        0.0000000000        0.0000000000
	             0.0426785745        0.0000000000        0.0000000000
	            -0.0426785745        0.0000000000        0.0000000000
	             0.0000000000        0.0000000000        0.0000000000

	Previous optimization step data not found.  Starting new optimization.

	---Fragment 1 Intrafragment Coordinates---
	 - Coordinate -           - BOHR/RAD -       - ANG/DEG -
	 R(1,3)           =         2.155148	       1.140455
	 R(2,3)           =         2.155148	       1.140455
	 L(1,3,2)         =         3.141593	     180.000000
	 l(1,3,2)         =         3.141593	     180.000000

	Current energy   :      -188.6100166558

	Generating empirical Hessian (Schlegel '84) for each fragment.
	Taking RFO optimization step.
	Going to follow RFO solution 1.
	Using RFO vector 1.
	Norm of target step-size    0.04258
	Projected energy change by RFO approximation:        -0.0025654105

	Back-transformation to cartesian coordinates...
	Successfully converged to displaced geometry.

	--- Internal Coordinate Step in ANG or DEG, aJ/ANG or AJ/DEG ---
	 ---------------------------------------------------------------------------
	   Coordinate                Previous        Force       Change         New 
	   ----------                --------       ------       ------       ------
	    1 R(1,3)          =      1.140455     0.351617     0.015933     1.156388
	    2 R(2,3)          =      1.140455     0.351617     0.015933     1.156388
	    3 L(1,3,2)        =    180.000000    -0.000000     0.000000   180.000000
	    4 l(1,3,2)        =    180.000000    -0.000000     0.000000   180.000000
	 ---------------------------------------------------------------------------
	Successfully symmetrized geometry.

  ==> Convergence Check <==

  Measures of convergence in internal coordinates in au.
  Criteria marked as inactive (o), active & met (*), and active & unmet ( ).
  --------------------------------------------------------------------------------------------- ~
   Step     Total Energy     Delta E     MAX Force     RMS Force      MAX Disp      RMS Disp    ~
  --------------------------------------------------------------------------------------------- ~
    Convergence Criteria    1.00e-06 *    3.00e-04 *             o    1.20e-03 *             o  ~
  --------------------------------------------------------------------------------------------- ~
      1    -188.61001666   -1.89e+02      4.27e-02      3.02e-02 o    3.01e-02      2.13e-02 o  ~
  ---------------------------------------------------------------------------------------------

	Writing optimization data to binary file.
	Structure for next step:
	Cartesian Geometry (in Angstrom)
	    O    -1.1563882583  -0.0000000000   0.0000000000
	    O     1.1563882583   0.0000000000   0.0000000000
	    C     0.0000000000   0.0000000000   0.0000000000
			--------------------------
			 OPTKING Finished Execution 
			--------------------------

    Structure for next step:
    Molecular point group: d2h
    Full point group: D_inf_h

    Geometry (in Angstrom), charge = 0, multiplicity = 1:

    O           -1.156388262886    -0.000000000000     0.000000000000
    O            1.156388262886     0.000000000000     0.000000000000
    C            0.000000000000    -0.000000000000     0.000000000000

gradient() will perform gradient computation by finite difference of analytic energies.

         ----------------------------------------------------------
                                   FINDIF
                     R. A. King and Jonathon Misiewicz
         ---------------------------------------------------------

  Using finite-differences of energies to determine gradients.
    Generating geometries for use with 3-point formula.
    Displacement size will be 5.00e-03.
    Number of atoms is 3.
    Number of symmetric SALCs is 1.
    Translations projected? 1. Rotations projected? 1.
    Number of geometries (including reference) is 3.

  //>>>>>>>>>>>>>>>>>>>>>>>>>>>>>>>>>>>//
  //    Loading displacement 1 of 3    //
  //<<<<<<<<<<<<<<<<<<<<<<<<<<<<<<<<<<<//

*** tstart() called on bp1-compute00133.data.bp.acrc.priv
*** at Tue Apr 20 11:01:29 2021

   => Loading Basis Set <=

    Name: AUG-CC-PV(Q+D)Z
    Role: ORBITAL
    Keyword: BASIS
    atoms 1-2 entry O          line   439 file /work/zw18965/.conda/envs/p4env/share/psi4/basis/aug-cc-pv_qpd_z.gbs 
    atoms 3   entry C          line   319 file /work/zw18965/.conda/envs/p4env/share/psi4/basis/aug-cc-pv_qpd_z.gbs 


         ---------------------------------------------------------
                                   SCF
               by Justin Turney, Rob Parrish, Andy Simmonett
                          and Daniel G. A. Smith
                              RKS Reference
                       24 Threads, 137329 MiB Core
         ---------------------------------------------------------

  ==> Geometry <==

    Molecular point group: d2h
    Full point group: D_inf_h

    Geometry (in Angstrom), charge = 0, multiplicity = 1:

       Center              X                  Y                   Z               Mass       
    ------------   -----------------  -----------------  -----------------  -----------------
         O           -1.156388262886    -0.000000000000     0.000000000000    15.994914619570
         O            1.156388262886     0.000000000000     0.000000000000    15.994914619570
         C            0.000000000000    -0.000000000000     0.000000000000    12.000000000000

  Running in d2h symmetry.

  Rotational constants: A = ************  B =      0.39407  C =      0.39407 [cm^-1]
  Rotational constants: A = ************  B =  11814.02614  C =  11814.02614 [MHz]
  Nuclear repulsion =   58.574343185339927

  Charge       = 0
  Multiplicity = 1
  Electrons    = 22
  Nalpha       = 11
  Nbeta        = 11

  ==> Algorithm <==

  SCF Algorithm Type is DF.
  DIIS enabled.
  MOM disabled.
  Fractional occupation disabled.
  Guess Type is READ.
  Energy threshold   = 1.00e-08
  Density threshold  = 1.00e-08
  Integral threshold = 0.00e+00

  ==> Primary Basis <==

  Basis Set: AUG-CC-PV(Q+D)Z
    Blend: AUG-CC-PV(Q+D)Z
    Number of shells: 60
    Number of basis function: 240
    Number of Cartesian functions: 315
    Spherical Harmonics?: true
    Max angular momentum: 4

  ==> DFT Potential <==

   => Composite Functional: WB97X-V <= 

    wB97X-V Hyb-GGA Exchange-Correlation Functional

    N. Mardirossian and M. Head-Gordon, Phys. Chem. Chem. Phys. 16, 9904 (2014)

    Deriv               =              1
    GGA                 =           TRUE
    Meta                =          FALSE

    Exchange Hybrid     =           TRUE
    MP2 Hybrid          =          FALSE

   => Exchange-Correlation Functionals <=

    1.0000   wB97X-V range-separated functional

   => Exact (HF) Exchange <=

    0.8330            HF,LR [omega = 0.3000]
    0.1670               HF 

   => VV10 Non-Local Parameters <=

    VV10 B              =     6.0000E+00
    VV10 C              =     1.0000E-02

   => Molecular Quadrature <=

    Radial Scheme          =       TREUTLER
    Pruning Scheme         =           FLAT
    Nuclear Scheme         =       TREUTLER

    BS radius alpha        =              1
    Pruning alpha          =              1
    Radial Points          =             75
    Spherical Points       =            302
    Total Points           =          67950
    Total Blocks           =            581
    Max Points             =            256
    Max Functions          =            240

   => Loading Basis Set <=

    Name: (AUG-CC-PV(Q+D)Z AUX)
    Role: JKFIT
    Keyword: DF_BASIS_SCF
    atoms 1-2 entry O          line   318 file /work/zw18965/.conda/envs/p4env/share/psi4/basis/aug-cc-pvqz-jkfit.gbs 
    atoms 3   entry C          line   178 file /work/zw18965/.conda/envs/p4env/share/psi4/basis/aug-cc-pvqz-jkfit.gbs 

   => Loading Basis Set <=

    Name: AUG-CC-PV(Q+D)Z
    Role: ORBITAL
    Keyword: BASIS
    atoms 1-2 entry O          line   439 file /work/zw18965/.conda/envs/p4env/share/psi4/basis/aug-cc-pv_qpd_z.gbs 
    atoms 3   entry C          line   319 file /work/zw18965/.conda/envs/p4env/share/psi4/basis/aug-cc-pv_qpd_z.gbs 

  Reading orbitals from file 180, no projection.

  ==> Pre-Iterations <==

   -------------------------------------------------------
    Irrep   Nso     Nmo     Nalpha   Nbeta   Ndocc  Nsocc
   -------------------------------------------------------
     Ag        51      51       0       0       0       0
     B1g       27      27       0       0       0       0
     B2g       27      27       0       0       0       0
     B3g       19      19       0       0       0       0
     Au        14      14       0       0       0       0
     B1u       30      30       0       0       0       0
     B2u       30      30       0       0       0       0
     B3u       42      42       0       0       0       0
   -------------------------------------------------------
    Total     240     240      11      11      11       0
   -------------------------------------------------------

  ==> Integral Setup <==

  ==> DiskDFJK: Density-Fitted J/K Matrices <==

    J tasked:                  Yes
    K tasked:                  Yes
    wK tasked:                 Yes
    Omega:               3.000E-01
    OpenMP threads:             24
    Integrals threads:          24
    Memory [MiB]:           102581
    Algorithm:                Core
    Integral Cache:           NONE
    Schwarz Cutoff:          1E-12
    Fitting Condition:       1E-10

   => Auxiliary Basis Set <=

  Basis Set: (AUG-CC-PV(Q+D)Z AUX)
    Blend: AUG-CC-PVQZ-JKFIT
    Number of shells: 102
    Number of basis function: 426
    Number of Cartesian functions: 594
    Spherical Harmonics?: true
    Max angular momentum: 5

  Cached 100.0% of DFT collocation blocks in 0.406 [GiB].

  Minimum eigenvalue in the overlap matrix is 4.7322138643E-05.
  Using Symmetric Orthogonalization.

  SCF Guess: Orbitals guess was supplied from a previous computation.

  ==> Iterations <==

                           Total Energy        Delta E     RMS |[F,P]|

   @DF-RKS iter   0:  -188.60383223787750   -1.88604e+02   9.60384e-04 
   @DF-RKS iter   1:  -188.61135750691227   -7.52527e-03   1.62018e-04 DIIS
   @DF-RKS iter   2:  -188.61136021894549   -2.71203e-06   1.63263e-04 DIIS
   @DF-RKS iter   3:  -188.61142648147541   -6.62625e-05   1.81928e-05 DIIS
   @DF-RKS iter   4:  -188.61142738782246   -9.06347e-07   3.04155e-06 DIIS
   @DF-RKS iter   5:  -188.61142744671361   -5.88911e-08   9.69378e-07 DIIS
   @DF-RKS iter   6:  -188.61142745226425   -5.55065e-09   1.15222e-07 DIIS
   @DF-RKS iter   7:  -188.61142745236313   -9.88791e-11   2.19690e-08 DIIS
   @DF-RKS iter   8:  -188.61142745236512   -1.98952e-12   1.00399e-09 DIIS
  Energy and wave function converged.


  ==> Post-Iterations <==

    Orbital Energies [Eh]
    ---------------------

    Doubly Occupied:                                                      

       1B3u  -19.295126     1Ag   -19.295089     2Ag   -10.461367  
       3Ag    -1.301358     2B3u   -1.256861     4Ag    -0.686264  
       1B1u   -0.643070     1B2u   -0.643070     3B3u   -0.639764  
       1B2g   -0.483627     1B1g   -0.483627  

    Virtual:                                                              

       5Ag     0.037405     2B2u    0.066568     2B1u    0.066568  
       4B3u    0.071413     3B1u    0.128272     3B2u    0.128272  
       6Ag     0.128856     2B2g    0.136051     2B1g    0.136051  
       7Ag     0.157841     5B3u    0.194580     4B2u    0.200172  
       4B1u    0.200172     1B3g    0.210809     8Ag     0.210812  
       6B3u    0.244012     9Ag     0.332690     5B2u    0.336089  
       5B1u    0.336089     3B2g    0.367665     3B1g    0.367665  
      10Ag     0.369659     1Au     0.448650     7B3u    0.448650  
       8B3u    0.480619    11Ag     0.541271     2B3g    0.550652  
      12Ag     0.550653     4B2g    0.579957     4B1g    0.579957  
       6B1u    0.600803     6B2u    0.600803     9B3u    0.620847  
      13Ag     0.658476     7B1u    0.706091     7B2u    0.706091  
      14Ag     0.753468     3B3g    0.753471    10B3u    0.791802  
       8B1u    0.806540     8B2u    0.806540    15Ag     0.849441  
       5B2g    0.864273     5B1g    0.864273     2Au     0.922414  
      11B3u    0.922418    12B3u    0.981318    13B3u    1.061134  
       9B1u    1.078642     9B2u    1.078642     6B2g    1.106818  
       6B1g    1.106818    16Ag     1.254000     7B1g    1.277788  
       7B2g    1.277788    14B3u    1.431889     3Au     1.431889  
      17Ag     1.434081    10B1u    1.480571    10B2u    1.480571  
      18Ag     1.487161     4B3g    1.487164    11B2u    1.519609  
      11B1u    1.519609    19Ag     1.566311     5B3g    1.566321  
       8B2g    1.595386     8B1g    1.595386    20Ag     1.597888  
      15B3u    1.607108    16B3u    1.624200    21Ag     1.809594  
       9B2g    1.825696     9B1g    1.825696     4Au     1.828156  
      17B3u    1.828166    12B1u    1.841724    12B2u    1.841724  
      18B3u    1.855772    22Ag     2.003670     6B3g    2.003671  
      23Ag     2.110836     7B3g    2.110840    13B2u    2.113422  
      13B1u    2.113422    14B1u    2.144142    14B2u    2.144142  
      10B1g    2.404392    10B2g    2.404392    11B1g    2.420468  
      11B2g    2.420468    15B1u    2.533706    15B2u    2.533706  
      19B3u    2.580507    24Ag     2.660410     5Au     2.781947  
      20B3u    2.781954    25Ag     2.906837    26Ag     3.030932  
       8B3g    3.030953    12B2g    3.042947    12B1g    3.042947  
      21B3u    3.281484    27Ag     3.359823    22B3u    3.464635  
       6Au     3.464643    13B2g    3.540857    13B1g    3.540857  
      28Ag     3.675738     9B3g    3.675746    29Ag     3.803168  
      14B1g    3.806573    14B2g    3.806573    23B3u    3.825420  
      16B1u    3.863847    16B2u    3.863847     7Au     3.916783  
      24B3u    3.916784    17B2u    3.934512    17B1u    3.934512  
      18B1u    4.025948    18B2u    4.025948    19B1u    4.036162  
      19B2u    4.036162    30Ag     4.052655    10B3g    4.052656  
      31Ag     4.139254    15B2g    4.141670    15B1g    4.141670  
       8Au     4.356915    25B3u    4.356920    11B3g    4.385117  
      32Ag     4.385123    26B3u    4.415194    20B1u    4.455545  
      20B2u    4.455545    33Ag     4.524242    16B1g    4.571609  
      16B2g    4.571609    17B1g    4.663416    17B2g    4.663416  
      27B3u    4.705597    34Ag     4.710062    12B3g    4.710067  
       9Au     5.255538    28B3u    5.255549    21B1u    5.373635  
      21B2u    5.373635    29B3u    5.626033    35Ag     5.645042  
      13B3g    5.645052    36Ag     5.656560    18B2g    5.737384  
      18B1g    5.737384    37Ag     5.913243    19B1g    5.990257  
      19B2g    5.990257    30B3u    6.045978    22B1u    6.131989  
      22B2u    6.131989    23B1u    6.230858    23B2u    6.230858  
      14B3g    6.409794    38Ag     6.409816    10Au     6.720981  
      31B3u    6.720983    32B3u    6.821339    20B2g    6.944752  
      20B1g    6.944752    39Ag     7.404248    15B3g    7.677518  
      40Ag     7.677518    24B1u    8.233526    24B2u    8.233526  
      41Ag     8.701972    21B2g    8.897946    21B1g    8.897946  
      33B3u   10.004517    34B3u   10.192188    11Au    10.192271  
      42Ag    10.277140    16B3g   10.277226    25B1u   10.395930  
      25B2u   10.395930    22B2g   10.575004    22B1g   10.575004  
      12Au    10.695548    35B3u   10.695554    23B1g   10.714185  
      23B2g   10.714185    26B1u   10.888328    26B2u   10.888328  
      24B1g   10.921928    24B2g   10.921928    36B3u   10.952584  
      17B3g   10.986088    43Ag    10.986096    27B1u   11.139791  
      27B2u   11.139791    44Ag    11.282424    28B1u   11.440842  
      28B2u   11.440842    25B2g   11.440933    25B1g   11.440933  
      37B3u   11.632516    13Au    11.944941    38B3u   11.944947  
      18B3g   12.017767    45Ag    12.017779    46Ag    12.020732  
      29B1u   12.100645    29B2u   12.100645    14Au    12.547670  
      39B3u   12.547713    19B3g   12.610739    47Ag    12.610769  
      26B2g   12.675205    26B1g   12.675205    40B3u   13.360537  
      48Ag    13.661338    30B1u   13.694440    30B2u   13.694440  
      49Ag    14.358526    27B2g   15.502066    27B1g   15.502066  
      41B3u   16.264573    50Ag    25.923974    42B3u   42.206364  
      51Ag    42.872675  

    Final Occupation by Irrep:
             Ag   B1g   B2g   B3g    Au   B1u   B2u   B3u 
    DOCC [     4,    1,    1,    0,    0,    1,    1,    3 ]

  @DF-RKS Final Energy:  -188.61142745236512

   => Energetics <=

    Nuclear Repulsion Energy =             58.5743431853399272
    One-Electron Energy =                -373.1834944460681527
    Two-Electron Energy =                 141.9821774295143086
    DFT Exchange-Correlation Energy =     -16.0762205152895916
    Empirical Dispersion Energy =           0.0000000000000000
    VV10 Nonlocal Energy =                  0.0917668941384177
    Total Energy =                       -188.6114274523651204

Computation Completed


Properties will be evaluated at   0.000000,   0.000000,   0.000000 [a0]

Properties computed using the SCF density matrix

  Nuclear Dipole Moment: [e a0]
     X:     0.0000      Y:    -0.0000      Z:     0.0000

  Electronic Dipole Moment: [e a0]
     X:     0.0000      Y:     0.0000      Z:     0.0000

  Dipole Moment: [e a0]
     X:     0.0000      Y:    -0.0000      Z:     0.0000     Total:     0.0000

  Dipole Moment: [D]
     X:     0.0000      Y:    -0.0000      Z:     0.0000     Total:     0.0000


*** tstop() called on bp1-compute00133.data.bp.acrc.priv at Tue Apr 20 11:01:33 2021
Module time:
	user time   =      93.60 seconds =       1.56 minutes
	system time =       2.44 seconds =       0.04 minutes
	total time  =          4 seconds =       0.07 minutes
Total time:
	user time   =     435.28 seconds =       7.25 minutes
	system time =      15.06 seconds =       0.25 minutes
	total time  =         21 seconds =       0.35 minutes

  //>>>>>>>>>>>>>>>>>>>>>>>>>>>>>>>>>>>//
  //    Loading displacement 2 of 3    //
  //<<<<<<<<<<<<<<<<<<<<<<<<<<<<<<<<<<<//

*** tstart() called on bp1-compute00133.data.bp.acrc.priv
*** at Tue Apr 20 11:01:33 2021

   => Loading Basis Set <=

    Name: AUG-CC-PV(Q+D)Z
    Role: ORBITAL
    Keyword: BASIS
    atoms 1-2 entry O          line   439 file /work/zw18965/.conda/envs/p4env/share/psi4/basis/aug-cc-pv_qpd_z.gbs 
    atoms 3   entry C          line   319 file /work/zw18965/.conda/envs/p4env/share/psi4/basis/aug-cc-pv_qpd_z.gbs 


         ---------------------------------------------------------
                                   SCF
               by Justin Turney, Rob Parrish, Andy Simmonett
                          and Daniel G. A. Smith
                              RKS Reference
                       24 Threads, 137329 MiB Core
         ---------------------------------------------------------

  ==> Geometry <==

    Molecular point group: d2h
    Full point group: D_inf_h

    Geometry (in Angstrom), charge = 0, multiplicity = 1:

       Center              X                  Y                   Z               Mass       
    ------------   -----------------  -----------------  -----------------  -----------------
         O           -1.156856068227    -0.000000000000     0.000000000000    15.994914619570
         O            1.156856068227     0.000000000000     0.000000000000    15.994914619570
         C            0.000000000000     0.000000000000     0.000000000000    12.000000000000

  Running in d2h symmetry.

  Rotational constants: A = ************  B =      0.39375  C =      0.39375 [cm^-1]
  Rotational constants: A = ************  B =  11804.47344  C =  11804.47344 [MHz]
  Nuclear repulsion =   58.550657100823358

  Charge       = 0
  Multiplicity = 1
  Electrons    = 22
  Nalpha       = 11
  Nbeta        = 11

  ==> Algorithm <==

  SCF Algorithm Type is DF.
  DIIS enabled.
  MOM disabled.
  Fractional occupation disabled.
  Guess Type is READ.
  Energy threshold   = 1.00e-08
  Density threshold  = 1.00e-08
  Integral threshold = 0.00e+00

  ==> Primary Basis <==

  Basis Set: AUG-CC-PV(Q+D)Z
    Blend: AUG-CC-PV(Q+D)Z
    Number of shells: 60
    Number of basis function: 240
    Number of Cartesian functions: 315
    Spherical Harmonics?: true
    Max angular momentum: 4

  ==> DFT Potential <==

   => Composite Functional: WB97X-V <= 

    wB97X-V Hyb-GGA Exchange-Correlation Functional

    N. Mardirossian and M. Head-Gordon, Phys. Chem. Chem. Phys. 16, 9904 (2014)

    Deriv               =              1
    GGA                 =           TRUE
    Meta                =          FALSE

    Exchange Hybrid     =           TRUE
    MP2 Hybrid          =          FALSE

   => Exchange-Correlation Functionals <=

    1.0000   wB97X-V range-separated functional

   => Exact (HF) Exchange <=

    0.8330            HF,LR [omega = 0.3000]
    0.1670               HF 

   => VV10 Non-Local Parameters <=

    VV10 B              =     6.0000E+00
    VV10 C              =     1.0000E-02

   => Molecular Quadrature <=

    Radial Scheme          =       TREUTLER
    Pruning Scheme         =           FLAT
    Nuclear Scheme         =       TREUTLER

    BS radius alpha        =              1
    Pruning alpha          =              1
    Radial Points          =             75
    Spherical Points       =            302
    Total Points           =          67950
    Total Blocks           =            581
    Max Points             =            256
    Max Functions          =            240

   => Loading Basis Set <=

    Name: (AUG-CC-PV(Q+D)Z AUX)
    Role: JKFIT
    Keyword: DF_BASIS_SCF
    atoms 1-2 entry O          line   318 file /work/zw18965/.conda/envs/p4env/share/psi4/basis/aug-cc-pvqz-jkfit.gbs 
    atoms 3   entry C          line   178 file /work/zw18965/.conda/envs/p4env/share/psi4/basis/aug-cc-pvqz-jkfit.gbs 

   => Loading Basis Set <=

    Name: AUG-CC-PV(Q+D)Z
    Role: ORBITAL
    Keyword: BASIS
    atoms 1-2 entry O          line   439 file /work/zw18965/.conda/envs/p4env/share/psi4/basis/aug-cc-pv_qpd_z.gbs 
    atoms 3   entry C          line   319 file /work/zw18965/.conda/envs/p4env/share/psi4/basis/aug-cc-pv_qpd_z.gbs 

  Reading orbitals from file 180, no projection.

  ==> Pre-Iterations <==

   -------------------------------------------------------
    Irrep   Nso     Nmo     Nalpha   Nbeta   Ndocc  Nsocc
   -------------------------------------------------------
     Ag        51      51       0       0       0       0
     B1g       27      27       0       0       0       0
     B2g       27      27       0       0       0       0
     B3g       19      19       0       0       0       0
     Au        14      14       0       0       0       0
     B1u       30      30       0       0       0       0
     B2u       30      30       0       0       0       0
     B3u       42      42       0       0       0       0
   -------------------------------------------------------
    Total     240     240      11      11      11       0
   -------------------------------------------------------

  ==> Integral Setup <==

  ==> DiskDFJK: Density-Fitted J/K Matrices <==

    J tasked:                  Yes
    K tasked:                  Yes
    wK tasked:                 Yes
    Omega:               3.000E-01
    OpenMP threads:             24
    Integrals threads:          24
    Memory [MiB]:           102581
    Algorithm:                Core
    Integral Cache:           NONE
    Schwarz Cutoff:          1E-12
    Fitting Condition:       1E-10

   => Auxiliary Basis Set <=

  Basis Set: (AUG-CC-PV(Q+D)Z AUX)
    Blend: AUG-CC-PVQZ-JKFIT
    Number of shells: 102
    Number of basis function: 426
    Number of Cartesian functions: 594
    Spherical Harmonics?: true
    Max angular momentum: 5

  Cached 100.0% of DFT collocation blocks in 0.406 [GiB].

  Minimum eigenvalue in the overlap matrix is 4.7410855644E-05.
  Using Symmetric Orthogonalization.

  SCF Guess: Orbitals guess was supplied from a previous computation.

  ==> Iterations <==

                           Total Energy        Delta E     RMS |[F,P]|

   @DF-RKS iter   0:  -188.61110399772531   -1.88611e+02   2.72880e-05 
   @DF-RKS iter   1:  -188.61143504276305   -3.31045e-04   4.74444e-06 DIIS
   @DF-RKS iter   2:  -188.61143504586070   -3.09765e-09   4.80679e-06 DIIS
   @DF-RKS iter   3:  -188.61143510367793   -5.78172e-08   5.39570e-07 DIIS
   @DF-RKS iter   4:  -188.61143510446271   -7.84780e-10   9.77914e-08 DIIS
   @DF-RKS iter   5:  -188.61143510451916   -5.64455e-11   2.89633e-08 DIIS
   @DF-RKS iter   6:  -188.61143510452430   -5.14433e-12   3.35927e-09 DIIS
  Energy and wave function converged.


  ==> Post-Iterations <==

    Orbital Energies [Eh]
    ---------------------

    Doubly Occupied:                                                      

       1B3u  -19.295239     1Ag   -19.295202     2Ag   -10.461594  
       3Ag    -1.301153     2B3u   -1.256652     4Ag    -0.686352  
       1B1u   -0.642903     1B2u   -0.642903     3B3u   -0.639740  
       1B1g   -0.483607     1B2g   -0.483607  

    Virtual:                                                              

       5Ag     0.037381     2B2u    0.066576     2B1u    0.066576  
       4B3u    0.071414     3B2u    0.127954     3B1u    0.127954  
       6Ag     0.128845     2B2g    0.136051     2B1g    0.136051  
       7Ag     0.157760     5B3u    0.194574     4B1u    0.200183  
       4B2u    0.200183     1B3g    0.210812     8Ag     0.210815  
       6B3u    0.244018     9Ag     0.332508     5B2u    0.336045  
       5B1u    0.336045     3B2g    0.367668     3B1g    0.367668  
      10Ag     0.369497     1Au     0.448663     7B3u    0.448664  
       8B3u    0.480600    11Ag     0.541146     2B3g    0.550679  
      12Ag     0.550681     4B2g    0.579867     4B1g    0.579867  
       6B1u    0.600885     6B2u    0.600885     9B3u    0.620884  
      13Ag     0.658335     7B1u    0.706091     7B2u    0.706091  
      14Ag     0.753440     3B3g    0.753442    10B3u    0.791672  
       8B2u    0.806519     8B1u    0.806519    15Ag     0.849402  
       5B2g    0.864326     5B1g    0.864326     2Au     0.922385  
      11B3u    0.922388    12B3u    0.981362    13B3u    1.060000  
       9B2u    1.078605     9B1u    1.078605     6B2g    1.106421  
       6B1g    1.106421    16Ag     1.253996     7B1g    1.277784  
       7B2g    1.277784    14B3u    1.431862     3Au     1.431862  
      17Ag     1.433847    10B2u    1.480519    10B1u    1.480519  
      18Ag     1.487132     4B3g    1.487135    11B1u    1.519465  
      11B2u    1.519465    19Ag     1.566479     5B3g    1.566489  
       8B2g    1.595378     8B1g    1.595378    20Ag     1.597757  
      15B3u    1.606791    16B3u    1.624389    21Ag     1.809638  
       9B2g    1.825646     9B1g    1.825646     4Au     1.828113  
      17B3u    1.828124    12B2u    1.842055    12B1u    1.842055  
      18B3u    1.855770    22Ag     2.003653     6B3g    2.003653  
      23Ag     2.110366     7B3g    2.110370    13B1u    2.113336  
      13B2u    2.113336    14B2u    2.143513    14B1u    2.143513  
      10B1g    2.404621    10B2g    2.404621    11B1g    2.420258  
      11B2g    2.420258    15B2u    2.533098    15B1u    2.533098  
      19B3u    2.580320    24Ag     2.659680     5Au     2.781464  
      20B3u    2.781471    25Ag     2.906615    26Ag     3.030791  
       8B3g    3.030812    12B1g    3.042310    12B2g    3.042310  
      21B3u    3.282043    27Ag     3.359176    22B3u    3.464645  
       6Au     3.464653    13B2g    3.540787    13B1g    3.540787  
      28Ag     3.675441     9B3g    3.675449    29Ag     3.803140  
      14B1g    3.806588    14B2g    3.806588    23B3u    3.824897  
      16B2u    3.863543    16B1u    3.863543     7Au     3.916704  
      24B3u    3.916705    17B1u    3.934068    17B2u    3.934068  
      18B2u    4.025528    18B1u    4.025528    19B2u    4.036036  
      19B1u    4.036036    30Ag     4.052602    10B3g    4.052603  
      31Ag     4.138628    15B2g    4.141043    15B1g    4.141043  
       8Au     4.356779    25B3u    4.356784    11B3g    4.384552  
      32Ag     4.384557    26B3u    4.414905    20B2u    4.455734  
      20B1u    4.455734    33Ag     4.523289    16B1g    4.570944  
      16B2g    4.570944    17B1g    4.664456    17B2g    4.664456  
      27B3u    4.704038    34Ag     4.709966    12B3g    4.709971  
       9Au     5.255082    28B3u    5.255092    21B1u    5.372130  
      21B2u    5.372130    29B3u    5.627998    35Ag     5.645024  
      13B3g    5.645034    36Ag     5.655428    18B2g    5.736319  
      18B1g    5.736319    37Ag     5.914263    19B2g    5.989436  
      19B1g    5.989436    30B3u    6.043924    22B1u    6.131951  
      22B2u    6.131951    23B2u    6.230025    23B1u    6.230025  
      14B3g    6.408899    38Ag     6.408921    10Au     6.719205  
      31B3u    6.719207    32B3u    6.819897    20B2g    6.943163  
      20B1g    6.943163    39Ag     7.401469    15B3g    7.675683  
      40Ag     7.675684    24B2u    8.231033    24B1u    8.231033  
      41Ag     8.699097    21B2g    8.898903    21B1g    8.898903  
      33B3u   10.002498    34B3u   10.192198    11Au    10.192281  
      42Ag    10.277008    16B3g   10.277095    25B1u   10.395636  
      25B2u   10.395636    22B2g   10.574642    22B1g   10.574642  
      12Au    10.695042    35B3u   10.695048    23B2g   10.713740  
      23B1g   10.713740    26B2u   10.887829    26B1u   10.887829  
      24B2g   10.921515    24B1g   10.921515    36B3u   10.953474  
      17B3g   10.984983    43Ag    10.984991    27B2u   11.139006  
      27B1u   11.139006    44Ag    11.280833    25B2g   11.440570  
      25B1g   11.440570    28B2u   11.440739    28B1u   11.440739  
      37B3u   11.632389    13Au    11.943935    38B3u   11.943941  
      18B3g   12.018218    45Ag    12.018230    46Ag    12.019695  
      29B2u   12.101114    29B1u   12.101114    14Au    12.547230  
      39B3u   12.547273    19B3g   12.608788    47Ag    12.608818  
      26B2g   12.672736    26B1g   12.672736    40B3u   13.357947  
      48Ag    13.660519    30B2u   13.690469    30B1u   13.690469  
      49Ag    14.358148    27B2g   15.498212    27B1g   15.498212  
      41B3u   16.257971    50Ag    25.917784    42B3u   42.205944  
      51Ag    42.863626  

    Final Occupation by Irrep:
             Ag   B1g   B2g   B3g    Au   B1u   B2u   B3u 
    DOCC [     4,    1,    1,    0,    0,    1,    1,    3 ]

  @DF-RKS Final Energy:  -188.61143510452430

   => Energetics <=

    Nuclear Repulsion Energy =             58.5506571008233578
    One-Electron Energy =                -373.1371664090996774
    Two-Electron Energy =                 141.9587615776615053
    DFT Exchange-Correlation Energy =     -16.0754544413825293
    Empirical Dispersion Energy =           0.0000000000000000
    VV10 Nonlocal Energy =                  0.0917670674730346
    Total Energy =                       -188.6114351045243325

Computation Completed


Properties will be evaluated at   0.000000,   0.000000,   0.000000 [a0]

Properties computed using the SCF density matrix

  Nuclear Dipole Moment: [e a0]
     X:     0.0000      Y:     0.0000      Z:     0.0000

  Electronic Dipole Moment: [e a0]
     X:     0.0000      Y:     0.0000      Z:     0.0000

  Dipole Moment: [e a0]
     X:     0.0000      Y:     0.0000      Z:     0.0000     Total:     0.0000

  Dipole Moment: [D]
     X:     0.0000      Y:     0.0000      Z:     0.0000     Total:     0.0000


*** tstop() called on bp1-compute00133.data.bp.acrc.priv at Tue Apr 20 11:01:37 2021
Module time:
	user time   =      86.30 seconds =       1.44 minutes
	system time =       3.00 seconds =       0.05 minutes
	total time  =          4 seconds =       0.07 minutes
Total time:
	user time   =     521.72 seconds =       8.70 minutes
	system time =      18.07 seconds =       0.30 minutes
	total time  =         25 seconds =       0.42 minutes

  //>>>>>>>>>>>>>>>>>>>>>>>>>>>>>>>>>>>//
  //    Loading displacement 3 of 3    //
  //<<<<<<<<<<<<<<<<<<<<<<<<<<<<<<<<<<<//

*** tstart() called on bp1-compute00133.data.bp.acrc.priv
*** at Tue Apr 20 11:01:37 2021

   => Loading Basis Set <=

    Name: AUG-CC-PV(Q+D)Z
    Role: ORBITAL
    Keyword: BASIS
    atoms 1-2 entry O          line   439 file /work/zw18965/.conda/envs/p4env/share/psi4/basis/aug-cc-pv_qpd_z.gbs 
    atoms 3   entry C          line   319 file /work/zw18965/.conda/envs/p4env/share/psi4/basis/aug-cc-pv_qpd_z.gbs 


         ---------------------------------------------------------
                                   SCF
               by Justin Turney, Rob Parrish, Andy Simmonett
                          and Daniel G. A. Smith
                              RKS Reference
                       24 Threads, 137329 MiB Core
         ---------------------------------------------------------

  ==> Geometry <==

    Molecular point group: d2h
    Full point group: D_inf_h

    Geometry (in Angstrom), charge = 0, multiplicity = 1:

       Center              X                  Y                   Z               Mass       
    ------------   -----------------  -----------------  -----------------  -----------------
         O           -1.155920457544    -0.000000000000     0.000000000000    15.994914619570
         O            1.155920457544     0.000000000000     0.000000000000    15.994914619570
         C            0.000000000000     0.000000000000     0.000000000000    12.000000000000

  Running in d2h symmetry.

  Rotational constants: A = ************  B =      0.39439  C =      0.39439 [cm^-1]
  Rotational constants: A = ************  B =  11823.59044  C =  11823.59044 [MHz]
  Nuclear repulsion =   58.598048441550837

  Charge       = 0
  Multiplicity = 1
  Electrons    = 22
  Nalpha       = 11
  Nbeta        = 11

  ==> Algorithm <==

  SCF Algorithm Type is DF.
  DIIS enabled.
  MOM disabled.
  Fractional occupation disabled.
  Guess Type is READ.
[...]
    Number of shells: 60
    Number of basis function: 240
    Number of Cartesian functions: 315
    Spherical Harmonics?: true
    Max angular momentum: 4

  ==> DFT Potential <==

   => Composite Functional: WB97X-V <= 

    wB97X-V Hyb-GGA Exchange-Correlation Functional

    N. Mardirossian and M. Head-Gordon, Phys. Chem. Chem. Phys. 16, 9904 (2014)

    Deriv               =              1
    GGA                 =           TRUE
    Meta                =          FALSE

    Exchange Hybrid     =           TRUE
    MP2 Hybrid          =          FALSE

   => Exchange-Correlation Functionals <=

    1.0000   wB97X-V range-separated functional

   => Exact (HF) Exchange <=

    0.8330            HF,LR [omega = 0.3000]
    0.1670               HF 

   => VV10 Non-Local Parameters <=

    VV10 B              =     6.0000E+00
    VV10 C              =     1.0000E-02

   => Molecular Quadrature <=

    Radial Scheme          =       TREUTLER
    Pruning Scheme         =           FLAT
    Nuclear Scheme         =       TREUTLER

    BS radius alpha        =              1
    Pruning alpha          =              1
    Radial Points          =             75
    Spherical Points       =            302
    Total Points           =          67950
    Total Blocks           =            582
    Max Points             =            255
    Max Functions          =            240

   => Loading Basis Set <=

    Name: (AUG-CC-PV(Q+D)Z AUX)
    Role: JKFIT
    Keyword: DF_BASIS_SCF
    atoms 1-2 entry O          line   318 file /work/zw18965/.conda/envs/p4env/share/psi4/basis/aug-cc-pvqz-jkfit.gbs 
    atoms 3   entry C          line   178 file /work/zw18965/.conda/envs/p4env/share/psi4/basis/aug-cc-pvqz-jkfit.gbs 

  ==> Pre-Iterations <==

   -------------------------------------------------------
    Irrep   Nso     Nmo     Nalpha   Nbeta   Ndocc  Nsocc
   -------------------------------------------------------
     A1        93      93       0       0       0       0
     A2        33      33       0       0       0       0
     B1        57      57       0       0       0       0
     B2        57      57       0       0       0       0
   -------------------------------------------------------
    Total     240     240      11      11      11       0
   -------------------------------------------------------

  ==> Integral Setup <==

  ==> DiskDFJK: Density-Fitted J/K Matrices <==

    J tasked:                  Yes
    K tasked:                  Yes
    wK tasked:                 Yes
    Omega:               3.000E-01
    OpenMP threads:             24
    Integrals threads:          24
    Memory [MiB]:           102582
    Algorithm:                Core
    Integral Cache:           NONE
    Schwarz Cutoff:          1E-12
    Fitting Condition:       1E-10

   => Auxiliary Basis Set <=

  Basis Set: (AUG-CC-PV(Q+D)Z AUX)
    Blend: AUG-CC-PVQZ-JKFIT
    Number of shells: 102
    Number of basis function: 426
    Number of Cartesian functions: 594
    Spherical Harmonics?: true
    Max angular momentum: 5

  Cached 100.0% of DFT collocation blocks in 0.404 [GiB].

  Minimum eigenvalue in the overlap matrix is 4.7710688270E-05.
  Using Symmetric Orthogonalization.

  SCF Guess: Superposition of Atomic Densities via on-the-fly atomic UHF.

  ==> Iterations <==

                           Total Energy        Delta E     RMS |[F,P]|

   @DF-RKS iter SAD:  -187.91449763143294   -1.87914e+02   0.00000e+00 
   @DF-RKS iter   1:  -188.49716965839852   -5.82672e-01   4.76904e-03 DIIS
   @DF-RKS iter   2:  -188.46456880475145    3.26009e-02   5.46019e-03 DIIS
   @DF-RKS iter   3:  -188.61107177883434   -1.46503e-01   2.41943e-04 DIIS
   @DF-RKS iter   4:  -188.61142366108831   -3.51882e-04   5.86062e-05 DIIS
   @DF-RKS iter   5:  -188.61144392905905   -2.02680e-05   8.32999e-06 DIIS
   @DF-RKS iter   6:  -188.61144404682923   -1.17770e-07   8.76263e-06 DIIS
   @DF-RKS iter   7:  -188.61144445604066   -4.09211e-07   1.11697e-06 DIIS
   @DF-RKS iter   8:  -188.61144446535286   -9.31220e-09   1.16062e-07 DIIS
   @DF-RKS iter   9:  -188.61144446551836   -1.65500e-10   1.17159e-08 DIIS
   @DF-RKS iter  10:  -188.61144446552009   -1.73372e-12   1.64477e-09 DIIS
   @DF-RKS iter  11:  -188.61144446552015   -5.68434e-14   1.53567e-10 DIIS
   @DF-RKS iter  12:  -188.61144446552015    0.00000e+00   2.90944e-11 DIIS
  Energy and wave function converged.


  ==> Post-Iterations <==

    Orbital Energies [Eh]
    ---------------------

    Doubly Occupied:                                                      

       1A1   -19.295805     2A1   -19.295396     3A1   -10.462356  
       4A1    -1.300476     5A1    -1.255937     6A1    -0.686649  
       1B1    -0.642345     1B2    -0.642345     7A1    -0.639655  
       2B2    -0.483538     2B1    -0.483538  

    Virtual:                                                              

       8A1     0.037303     3B2     0.066602     3B1     0.066602  
       9A1     0.071416     4B1     0.126884     4B2     0.126884  
      10A1     0.128807     5B1     0.136053     5B2     0.136053  
      11A1     0.157485    12A1     0.194553     6B1     0.200221  
       6B2     0.200221     1A2     0.210821    13A1     0.210824  
      14A1     0.244037    15A1     0.331885     7B2     0.335895  
       7B1     0.335895     8B2     0.367680     8B1     0.367680  
      16A1     0.368960     2A2     0.448708    17A1     0.448709  
      18A1     0.480533    19A1     0.540730     3A2     0.550771  
      20A1     0.550773     9B2     0.579565     9B1     0.579565  
      10B2     0.601162    10B1     0.601162    21A1     0.621005  
      22A1     0.657863    11B1     0.706090    11B2     0.706090  
      23A1     0.753344     4A2     0.753346    24A1     0.791235  
      12B2     0.806448    12B1     0.806448    25A1     0.849273  
      13B2     0.864502    13B1     0.864502     5A2     0.922286  
      26A1     0.922289    27A1     0.981495    28A1     1.056203  
      14B2     1.078482    14B1     1.078482    15B1     1.105087  
      15B2     1.105087    29A1     1.253981    16B2     1.277769  
      16B1     1.277769    30A1     1.431770     6A2     1.431770  
      31A1     1.433057    17B2     1.480346    17B1     1.480346  
      32A1     1.487034     7A2     1.487037    18B2     1.518980  
      18B1     1.518980    33A1     1.567044     8A2     1.567054  
      19B1     1.595353    19B2     1.595353    34A1     1.597309  
      35A1     1.605699    36A1     1.625061    37A1     1.809793  
      20B1     1.825463    20B2     1.825463     9A2     1.827972  
      38A1     1.827982    21B2     1.843174    21B1     1.843174  
      39A1     1.855763    40A1     2.003592    10A2     2.003593  
      41A1     2.108787    11A2     2.108790    22B1     2.113047  
      22B2     2.113047    23B2     2.141402    23B1     2.141402  
      24B2     2.405394    24B1     2.405394    25B1     2.419552  
      25B2     2.419552    26B2     2.531058    26B1     2.531058  
      42A1     2.579675    43A1     2.657209    12A2     2.779831  
      44A1     2.779838    45A1     2.905870    46A1     3.030312  
      13A2     3.030333    27B1     3.040167    27B2     3.040167  
      47A1     3.283944    48A1     3.357005    49A1     3.464681  
      14A2     3.464688    28B1     3.540539    28B2     3.540539  
      50A1     3.674442    15A2     3.674450    51A1     3.803046  
      29B2     3.806637    29B1     3.806637    52A1     3.823126  
      30B2     3.862507    30B1     3.862507    16A2     3.916444  
      53A1     3.916445    31B1     3.932560    31B2     3.932560  
      32B2     4.024133    32B1     4.024133    33B2     4.035567  
      33B1     4.035567    54A1     4.052413    17A2     4.052414  
      55A1     4.136538    34B1     4.138948    34B2     4.138948  
      18A2     4.356318    56A1     4.356323    19A2     4.382643  
      57A1     4.382650    58A1     4.413922    35B2     4.456427  
      35B1     4.456427    59A1     4.520086    36B1     4.568702  
      36B2     4.568702    37B2     4.667954    37B1     4.667954  
      60A1     4.698781    61A1     4.709669    20A2     4.709675  
      21A2     5.253527    62A1     5.253537    38B1     5.367064  
      38B2     5.367064    63A1     5.634349    64A1     5.644963  
      22A2     5.644973    65A1     5.651690    39B1     5.732734  
      39B2     5.732734    66A1     5.917687    40B1     5.986685  
      40B2     5.986685    67A1     6.037259    41B2     6.131823  
      41B1     6.131823    42B2     6.227228    42B1     6.227228  
      23A2     6.405887    68A1     6.405909    24A2     6.713248  
      69A1     6.713250    70A1     6.815038    43B1     6.937832  
      43B2     6.937832    71A1     7.392134    25A2     7.669504  
      72A1     7.669505    44B2     8.222651    44B1     8.222651  
      73A1     8.689498    45B1     8.902000    45B2     8.902000  
      74A1     9.995592    75A1    10.192232    26A2    10.192316  
      76A1    10.276568    27A2    10.276655    46B1    10.394650  
      46B2    10.394650    47B1    10.573470    47B2    10.573470  
      28A2    10.693361    77A1    10.693367    48B1    10.712241  
      48B2    10.712241    49B2    10.886139    49B1    10.886139  
      50B1    10.920211    50B2    10.920211    78A1    10.956424  
      29A2    10.981251    79A1    10.981260    51B2    11.136302  
      51B1    11.136302    80A1    11.275469    52B2    11.439351  
      52B1    11.439351    53B2    11.440401    53B1    11.440401  
      81A1    11.631999    30A2    11.940550    82A1    11.940555  
      83A1    12.016181    31A2    12.019719    84A1    12.019731  
      54B2    12.102779    54B1    12.102779    32A2    12.545737  
      85A1    12.545780    33A2    12.602297    86A1    12.602327  
      55B1    12.664449    55B2    12.664449    87A1    13.349263  
      88A1    13.657549    56B1    13.677129    56B2    13.677129  
      89A1    14.357156    57B1    15.485118    57B2    15.485118  
      90A1    16.235676    91A1    25.896944    92A1    42.204517  
      93A1    42.833359  

    Final Occupation by Irrep:
             A1    A2    B1    B2 
    DOCC [     7,    0,    2,    2 ]

  @DF-RKS Final Energy:  -188.61144446552015

   => Energetics <=

    Nuclear Repulsion Energy =             58.4710316022404371
    One-Electron Energy =                -372.9813887334536275
    Two-Electron Energy =                 141.8800262127637666
    DFT Exchange-Correlation Energy =     -16.0728812041391080
    Empirical Dispersion Energy =           0.0000000000000000
    VV10 Nonlocal Energy =                  0.0917676570683933
    Total Energy =                       -188.6114444655201225

Computation Completed


Properties will be evaluated at   0.000000,   0.000000,   0.000000 [a0]

Properties computed using the SCF density matrix

  Nuclear Dipole Moment: [e a0]
     X:    -0.0000      Y:     0.0000      Z:     0.0000

  Electronic Dipole Moment: [e a0]
     X:     0.0044      Y:     0.0000      Z:     0.0000

  Dipole Moment: [e a0]
     X:     0.0044      Y:     0.0000      Z:     0.0000     Total:     0.0044

  Dipole Moment: [D]
     X:     0.0111      Y:     0.0000      Z:     0.0000     Total:     0.0111


*** tstop() called on bp1-compute00133.data.bp.acrc.priv at Tue Apr 20 11:02:44 2021
Module time:
	user time   =     124.72 seconds =       2.08 minutes
	system time =       3.20 seconds =       0.05 minutes
	total time  =          6 seconds =       0.10 minutes
Total time:
	user time   =    1953.01 seconds =      32.55 minutes
	system time =      58.06 seconds =       0.97 minutes
	total time  =         92 seconds =       1.53 minutes

         ----------------------------------------------------------
                                   FINDIF
                     R. A. King and Jonathon Misiewicz
         ---------------------------------------------------------

  Computing second-derivative from energies using projected, 
  symmetry-adapted, cartesian coordinates.

  6 energies passed in, including the reference geometry.
    Using 3-point formula.
    Energy without displacement: -188.6114472546
    Check energies below for precision!
    0: -1 :      -188.6114468419
    0: 1  :      -188.6114458293
    1: -1 :      -188.6114470324
    2: -1 :      -188.6114470324
    3: -1 :      -188.6114444655

-------------------------------------------------------------


  ==> Harmonic Vibrational Analysis <==

  non-mass-weighted Hessian:       Symmetric? True   Hermitian? True   Lin Dep Dim?  5 (0)
  projection of translations (True) and rotations (True) removed 5 degrees of freedom (5)
  total projector:                 Symmetric? True   Hermitian? True   Lin Dep Dim?  5 (5)
  mass-weighted Hessian:           Symmetric? True   Hermitian? True   Lin Dep Dim?  5 (0)
  pre-proj  low-frequency mode:    0.0000i [cm^-1]
  pre-proj  low-frequency mode:    0.0000i [cm^-1]
  pre-proj  low-frequency mode:    0.0000  [cm^-1]
  pre-proj  low-frequency mode:    0.0000  [cm^-1]
  pre-proj  low-frequency mode:    0.0000  [cm^-1]
  pre-proj  all modes:['0.0000i' '0.0000i' '0.0000' '0.0000' '0.0000' '685.3916' '685.4673'
 '1393.8421' '2428.1843']
  projected mass-weighted Hessian: Symmetric? True   Hermitian? True   Lin Dep Dim?  5 (5)
  post-proj low-frequency mode:    0.0000i [cm^-1] (TR)
  post-proj low-frequency mode:    0.0000i [cm^-1] (TR)
  post-proj low-frequency mode:    0.0000i [cm^-1] (TR)
  post-proj low-frequency mode:    0.0000  [cm^-1] (TR)
  post-proj low-frequency mode:    0.0000  [cm^-1] (TR)
  post-proj  all modes:['0.0000i' '0.0000i' '0.0000i' '0.0000' '0.0000' '685.3916' '685.4673'
 '1393.8421' '2428.1843']

  Vibration                       6                   7                   8           
  Freq [cm^-1]                 685.3916            685.4673           1393.8421       
  Irrep                          B1u                 B2u                  Ag          
  Reduced mass [u]             12.8774             12.8774             15.9949        
  Force const [mDyne/A]         3.5641              3.5649             18.3088        
  Turning point v=0 [a0]        0.1168              0.1168              0.0735        
  RMS dev v=0 [a0 u^1/2]        0.2964              0.2963              0.2078        
  Char temp [K]                986.1259            986.2348           2005.4284       
  ----------------------------------------------------------------------------------
      1   O                0.00  0.00 -0.33   -0.00 -0.33 -0.00    0.71 -0.00 -0.00   
      2   O                0.00  0.00 -0.33   -0.00 -0.33 -0.00   -0.71 -0.00  0.00   
      3   C                0.00 -0.00  0.88   -0.00  0.88  0.00   -0.00  0.00 -0.00   

  Vibration                       9           
  Freq [cm^-1]                2428.1843       
  Irrep                          B3u          
  Reduced mass [u]             12.8774        
  Force const [mDyne/A]        44.7343        
  Turning point v=0 [a0]        0.0621        
  RMS dev v=0 [a0 u^1/2]        0.1575        
  Char temp [K]               3493.6165       
  ----------------------------------------------------------------------------------
      1   O               -0.33  0.00 -0.00   
      2   O               -0.33 -0.00  0.00   
      3   C                0.88  0.00 -0.00   

  ==> Thermochemistry Components <==

  Entropy, S
    Electronic S            0.000 [cal/(mol K)]        0.000 [J/(mol K)]       0.00000000 [mEh/K] (multiplicity = 1)
    Translational S        37.270 [cal/(mol K)]      155.938 [J/(mol K)]       0.05939371 [mEh/K] (mol. weight = 43.9898 [u], P = 101325.00 [Pa])
    Rotational S           13.067 [cal/(mol K)]       54.671 [J/(mol K)]       0.02082306 [mEh/K] (symmetry no. = 2)
    Vibrational S           0.666 [cal/(mol K)]        2.788 [J/(mol K)]       0.00106178 [mEh/K]
  Total S                  51.003 [cal/(mol K)]      213.397 [J/(mol K)]       0.08127856 [mEh/K]
  Correction S              0.000 [cal/(mol K)]        0.000 [J/(mol K)]       0.00000000 [mEh/K]

  Constant volume heat capacity, Cv
    Electronic Cv           0.000 [cal/(mol K)]        0.000 [J/(mol K)]       0.00000000 [mEh/K]
    Translational Cv        2.981 [cal/(mol K)]       12.472 [J/(mol K)]       0.00475022 [mEh/K]
    Rotational Cv           1.987 [cal/(mol K)]        8.314 [J/(mol K)]       0.00316681 [mEh/K]
    Vibrational Cv          1.825 [cal/(mol K)]        7.636 [J/(mol K)]       0.00290839 [mEh/K]
  Total Cv                  6.793 [cal/(mol K)]       28.422 [J/(mol K)]       0.01082541 [mEh/K]
  Correction Cv             0.000 [cal/(mol K)]        0.000 [J/(mol K)]       0.00000000 [mEh/K]

  Constant pressure heat capacity, Cp
    Electronic Cp           0.000 [cal/(mol K)]        0.000 [J/(mol K)]       0.00000000 [mEh/K]
    Translational Cp        4.968 [cal/(mol K)]       20.786 [J/(mol K)]       0.00791703 [mEh/K]
    Rotational Cp           1.987 [cal/(mol K)]        8.314 [J/(mol K)]       0.00316681 [mEh/K]
    Vibrational Cp          1.825 [cal/(mol K)]        7.636 [J/(mol K)]       0.00290839 [mEh/K]
  Total Cp                  8.780 [cal/(mol K)]       36.737 [J/(mol K)]       0.01399222 [mEh/K]
  Correction Cp             0.000 [cal/(mol K)]        0.000 [J/(mol K)]       0.00000000 [mEh/K]

  ==> Thermochemistry Energy Analysis <==

  Raw electronic energy, E0
  Total E0, Electronic energy at well bottom at 0 [K]                 -188.61144725 [Eh]

  Zero-point energy, ZPE_vib = Sum_i nu_i / 2
    Electronic ZPE          0.000 [kcal/mol]        0.000 [kJ/mol]       0.00000000 [Eh]
    Translational ZPE       0.000 [kcal/mol]        0.000 [kJ/mol]       0.00000000 [Eh]
    Rotational ZPE          0.000 [kcal/mol]        0.000 [kJ/mol]       0.00000000 [Eh]
    Vibrational ZPE         7.424 [kcal/mol]       31.060 [kJ/mol]       0.01183026 [Eh]        2596.443 [cm^-1]
  Correction ZPE            7.424 [kcal/mol]       31.060 [kJ/mol]       0.01183026 [Eh]        2596.443 [cm^-1]
  Total ZPE, Electronic energy at 0 [K]                               -188.59961699 [Eh]

  Thermal Energy, E (includes ZPE)
    Electronic E            0.000 [kcal/mol]        0.000 [kJ/mol]       0.00000000 [Eh]
    Translational E         0.889 [kcal/mol]        3.718 [kJ/mol]       0.00141628 [Eh]
    Rotational E            0.592 [kcal/mol]        2.479 [kJ/mol]       0.00094418 [Eh]
    Vibrational E           7.577 [kcal/mol]       31.704 [kJ/mol]       0.01207528 [Eh]
  Correction E              9.059 [kcal/mol]       37.901 [kJ/mol]       0.01443574 [Eh]
  Total E, Electronic energy at  298.15 [K]                           -188.59701151 [Eh]

  Enthalpy, H_trans = E_trans + k_B * T
    Electronic H            0.000 [kcal/mol]        0.000 [kJ/mol]       0.00000000 [Eh]
    Translational H         1.481 [kcal/mol]        6.197 [kJ/mol]       0.00236046 [Eh]
    Rotational H            0.592 [kcal/mol]        2.479 [kJ/mol]       0.00094418 [Eh]
    Vibrational H           7.577 [kcal/mol]       31.704 [kJ/mol]       0.01207528 [Eh]
  Correction H              9.651 [kcal/mol]       40.380 [kJ/mol]       0.01537993 [Eh]
  Total H, Enthalpy at  298.15 [K]                                    -188.59606733 [Eh]

  Gibbs free energy, G = H - T * S
    Electronic G            0.000 [kcal/mol]        0.000 [kJ/mol]       0.00000000 [Eh]
    Translational G        -9.631 [kcal/mol]      -40.296 [kJ/mol]      -0.01534777 [Eh]
    Rotational G           -3.303 [kcal/mol]      -13.821 [kJ/mol]      -0.00526421 [Eh]
    Vibrational G           7.379 [kcal/mol]       30.872 [kJ/mol]       0.01175871 [Eh]
  Correction G             -5.556 [kcal/mol]      -23.244 [kJ/mol]      -0.00885328 [Eh]
  Total G, Free enthalpy at  298.15 [K]                               -188.62030053 [Eh]

    Psi4 stopped on: Tuesday, 20 April 2021 11:02AM
    Psi4 wall time for execution: 0:01:35.40

*** Psi4 exiting successfully. Buy a developer a beer!
