
    -----------------------------------------------------------------------
          Psi4: An Open-Source Ab Initio Electronic Structure Package
                               Psi4 1.3.2 release

                         Git: Rev {HEAD} ecbda83 


    R. M. Parrish, L. A. Burns, D. G. A. Smith, A. C. Simmonett,
    A. E. DePrince III, E. G. Hohenstein, U. Bozkaya, A. Yu. Sokolov,
    R. Di Remigio, R. M. Richard, J. F. Gonthier, A. M. James,
    H. R. McAlexander, A. Kumar, M. Saitow, X. Wang, B. P. Pritchard,
    P. Verma, H. F. Schaefer III, K. Patkowski, R. A. King, E. F. Valeev,
    F. A. Evangelista, J. M. Turney, T. D. Crawford, and C. D. Sherrill,
    J. Chem. Theory Comput. 13(7) pp 3185--3197 (2017).
    (doi: 10.1021/acs.jctc.7b00174)


                         Additional Contributions by
    P. Kraus, H. Kruse, M. H. Lechner, M. C. Schieber, R. A. Shaw,
    A. Alenaizan, R. Galvelis, Z. L. Glick, S. Lehtola, and J. P. Misiewicz

    -----------------------------------------------------------------------


    Psi4 started on: Tuesday, 20 April 2021 11:03AM

    Process ID: 49289
    Host:       bp1-compute00155.data.bp.acrc.priv
    PSIDATADIR: /work/zw18965/.conda/envs/p4env/share/psi4
    Memory:     500.0 MiB
    Threads:    24
    
  ==> Input File <==

--------------------------------------------------------------------------
memory 144 GB

molecule {
0 1
C     0.000000000000   0.000000000000   0.011304024282
S     0.000000000000   0.000000000000   1.528395973555}

set basis aug-cc-pV(Q+d)Z
 
optimize("wB97X-V")
frequencies("wB97X-V")--------------------------------------------------------------------------

  Memory set to 134.110 GiB by Python driver.
gradient() will perform gradient computation by finite difference of analytic energies.

         ----------------------------------------------------------
                                   FINDIF
                     R. A. King and Jonathon Misiewicz
         ---------------------------------------------------------

  Using finite-differences of energies to determine gradients.
    Generating geometries for use with 3-point formula.
    Displacement size will be 5.00e-03.
    Number of atoms is 2.
    Number of symmetric SALCs is 1.
    Translations projected? 1. Rotations projected? 1.
    Number of geometries (including reference) is 3.

  //>>>>>>>>>>>>>>>>>>>>>>>>>>>>>>>>>>>//
  //    Loading displacement 1 of 3    //
  //<<<<<<<<<<<<<<<<<<<<<<<<<<<<<<<<<<<//

*** tstart() called on bp1-compute00155.data.bp.acrc.priv
*** at Tue Apr 20 11:03:29 2021

   => Loading Basis Set <=

    Name: AUG-CC-PV(Q+D)Z
    Role: ORBITAL
    Keyword: BASIS
    atoms 1 entry C          line   319 file /work/zw18965/.conda/envs/p4env/share/psi4/basis/aug-cc-pv_qpd_z.gbs 
    atoms 2 entry S          line  1148 file /work/zw18965/.conda/envs/p4env/share/psi4/basis/aug-cc-pv_qpd_z.gbs 


         ---------------------------------------------------------
                                   SCF
               by Justin Turney, Rob Parrish, Andy Simmonett
                          and Daniel G. A. Smith
                              RKS Reference
                       24 Threads, 137329 MiB Core
         ---------------------------------------------------------

  ==> Geometry <==

    Molecular point group: c2v
    Full point group: C_inf_v

    Geometry (in Angstrom), charge = 0, multiplicity = 1:

       Center              X                  Y                   Z               Mass       
    ------------   -----------------  -----------------  -----------------  -----------------
         C            0.000000000000     0.000000000000    -1.103076804999    12.000000000000
         S            0.000000000000     0.000000000000     0.414015144274    31.972071174400

  Running in c2v symmetry.

  Rotational constants: A = ************  B =      0.83946  C =      0.83946 [cm^-1]
  Rotational constants: A = ************  B =  25166.23786  C =  25166.23786 [MHz]
  Nuclear repulsion =   33.485783276790940

  Charge       = 0
  Multiplicity = 1
  Electrons    = 22
  Nalpha       = 11
  Nbeta        = 11

  ==> Algorithm <==

  SCF Algorithm Type is DF.
  DIIS enabled.
  MOM disabled.
  Fractional occupation disabled.
  Guess Type is SAD.
  Energy threshold   = 1.00e-08
  Density threshold  = 1.00e-08
  Integral threshold = 0.00e+00

  ==> Primary Basis <==

  Basis Set: AUG-CC-PV(Q+D)Z
    Blend: AUG-CC-PV(Q+D)Z
    Number of shells: 43
    Number of basis function: 169
    Number of Cartesian functions: 220
    Spherical Harmonics?: true
    Max angular momentum: 4

  ==> DFT Potential <==

   => Composite Functional: WB97X-V <= 

    wB97X-V Hyb-GGA Exchange-Correlation Functional

    N. Mardirossian and M. Head-Gordon, Phys. Chem. Chem. Phys. 16, 9904 (2014)

    Deriv               =              1
    GGA                 =           TRUE
    Meta                =          FALSE

    Exchange Hybrid     =           TRUE
    MP2 Hybrid          =          FALSE

   => Exchange-Correlation Functionals <=

    1.0000   wB97X-V range-separated functional

   => Exact (HF) Exchange <=

    0.8330            HF,LR [omega = 0.3000]
    0.1670               HF 

   => VV10 Non-Local Parameters <=

    VV10 B              =     6.0000E+00
    VV10 C              =     1.0000E-02

   => Molecular Quadrature <=

    Radial Scheme          =       TREUTLER
    Pruning Scheme         =           FLAT
    Nuclear Scheme         =       TREUTLER

    BS radius alpha        =              1
    Pruning alpha          =              1
    Radial Points          =             75
    Spherical Points       =            302
    Total Points           =          45300
    Total Blocks           =            426
    Max Points             =            254
    Max Functions          =            169

   => Loading Basis Set <=

    Name: (AUG-CC-PV(Q+D)Z AUX)
    Role: JKFIT
    Keyword: DF_BASIS_SCF
    atoms 1 entry C          line   178 file /work/zw18965/.conda/envs/p4env/share/psi4/basis/aug-cc-pvqz-jkfit.gbs 
    atoms 2 entry S          line   810 file /work/zw18965/.conda/envs/p4env/share/psi4/basis/aug-cc-pvqz-jkfit.gbs 

  ==> Pre-Iterations <==

   -------------------------------------------------------
    Irrep   Nso     Nmo     Nalpha   Nbeta   Ndocc  Nsocc
   -------------------------------------------------------
     A1        66      66       0       0       0       0
     A2        23      23       0       0       0       0
     B1        40      40       0       0       0       0
     B2        40      40       0       0       0       0
   -------------------------------------------------------
    Total     169     169      11      11      11       0
   -------------------------------------------------------

  ==> Integral Setup <==

  ==> DiskDFJK: Density-Fitted J/K Matrices <==

    J tasked:                  Yes
    K tasked:                  Yes
    wK tasked:                 Yes
    Omega:               3.000E-01
    OpenMP threads:             24
    Integrals threads:          24
    Memory [MiB]:           102788
    Algorithm:                Core
    Integral Cache:           NONE
    Schwarz Cutoff:          1E-12
    Fitting Condition:       1E-10

   => Auxiliary Basis Set <=

  Basis Set: (AUG-CC-PV(Q+D)Z AUX)
    Blend: AUG-CC-PVQZ-JKFIT
    Number of shells: 80
    Number of basis function: 326
    Number of Cartesian functions: 445
    Spherical Harmonics?: true
    Max angular momentum: 5

  Cached 100.0% of DFT collocation blocks in 0.203 [GiB].

  Minimum eigenvalue in the overlap matrix is 3.5489969368E-05.
  Using Symmetric Orthogonalization.

  SCF Guess: Superposition of Atomic Densities via on-the-fly atomic UHF.

  ==> Iterations <==

                           Total Energy        Delta E     RMS |[F,P]|

   @DF-RKS iter SAD:  -435.61437974125283   -4.35614e+02   0.00000e+00 
   @DF-RKS iter   1:  -436.11967735833809   -5.05298e-01   3.78920e-03 DIIS
   @DF-RKS iter   2:  -436.10800698005187    1.16704e-02   3.87723e-03 DIIS
   @DF-RKS iter   3:  -436.17227563104660   -6.42687e-02   6.64151e-04 DIIS
   @DF-RKS iter   4:  -436.17372332015162   -1.44769e-03   9.46636e-05 DIIS
   @DF-RKS iter   5:  -436.17378250313448   -5.91830e-05   2.77385e-05 DIIS
   @DF-RKS iter   6:  -436.17378720475381   -4.70162e-06   1.15617e-05 DIIS
   @DF-RKS iter   7:  -436.17378835634548   -1.15159e-06   1.37960e-06 DIIS
   @DF-RKS iter   8:  -436.17378839042806   -3.40826e-08   1.71503e-07 DIIS
   @DF-RKS iter   9:  -436.17378839086433   -4.36273e-10   2.52751e-08 DIIS
   @DF-RKS iter  10:  -436.17378839087428   -9.94760e-12   4.08464e-09 DIIS
  Energy and wave function converged.


  ==> Post-Iterations <==

    Orbital Energies [Eh]
    ---------------------

    Doubly Occupied:                                                      

       1A1   -88.937997     2A1   -10.371453     3A1    -8.098615  
       1B2    -6.051757     1B1    -6.051757     4A1    -6.050328  
       5A1    -0.972179     6A1    -0.636715     2B2    -0.460942  
       2B1    -0.460942     7A1    -0.420011  

    Virtual:                                                              

       3B2    -0.001372     3B1    -0.001372     8A1     0.047050  
       4B2     0.077952     4B1     0.077952     9A1     0.077956  
      10A1     0.092566     5B2     0.102913     5B1     0.102913  
      11A1     0.153935    12A1     0.175242     1A2     0.175242  
      13A1     0.203326     6B2     0.256566     6B1     0.256566  
      14A1     0.276179     2A2     0.282016    15A1     0.282016  
       7B1     0.287996     7B2     0.287996    16A1     0.313333  
       8B2     0.360460     8B1     0.360460    17A1     0.424158  
      18A1     0.438091     3A2     0.438091    19A1     0.476645  
      20A1     0.498144     9B2     0.503542     9B1     0.503542  
      10B1     0.516895    10B2     0.516895    11B1     0.532445  
      11B2     0.532445    21A1     0.585127     4A2     0.585129  
      22A1     0.650259    12B2     0.703443    12B1     0.703443  
      23A1     0.777774     5A2     0.791272    24A1     0.791272  
      13B2     0.806325    13B1     0.806325    14B1     0.879285  
      14B2     0.879285    25A1     0.936889     6A2     0.998076  
      26A1     0.998079    27A1     0.999202    28A1     1.051892  
      15B1     1.119033    15B2     1.119033    29A1     1.165667  
       7A2     1.165667    16B2     1.275526    16B1     1.275526  
      30A1     1.290101    17B2     1.358254    17B1     1.358254  
       8A2     1.374658    31A1     1.374659    18B2     1.382633  
      18B1     1.382633    32A1     1.458868     9A2     1.458870  
      19B2     1.479944    19B1     1.479944    20B2     1.501995  
      20B1     1.501995    33A1     1.530258    34A1     1.670897  
      21B2     1.720922    21B1     1.720922    35A1     1.770091  
      10A2     1.770094    36A1     1.954614    37A1     2.072163  
      38A1     2.100413    11A2     2.100423    39A1     2.127972  
      12A2     2.127982    22B1     2.159024    22B2     2.159024  
      40A1     2.169807    23B2     2.207281    23B1     2.207281  
      24B1     2.320425    24B2     2.320425    13A2     2.383839  
      41A1     2.383850    42A1     2.409136    25B1     2.415819  
      25B2     2.415819    43A1     2.611844    26B2     2.687559  
      26B1     2.687559    14A2     2.769577    44A1     2.769588  
      27B1     2.853218    27B2     2.853218    45A1     2.878364  
      15A2     3.042129    46A1     3.042136    28B2     3.256097  
      28B1     3.256097    47A1     3.344008    29B2     3.434468  
      29B1     3.434468    16A2     3.501290    48A1     3.501291  
      17A2     3.608221    49A1     3.608235    30B2     3.669904  
      30B1     3.669904    31B2     3.793697    31B1     3.793697  
      50A1     3.802430    51A1     3.989255    52A1     4.015008  
      18A2     4.015013    53A1     4.318978    32B2     4.411297  
      32B1     4.411297    33B2     5.616842    33B1     5.616842  
      54A1     5.742202    19A2     5.742248    34B1     5.894171  
      34B2     5.894171    35B1     5.904541    35B2     5.904541  
      55A1     6.040095    20A2     6.040103    36B1     6.086397  
      36B2     6.086397    56A1     6.099236    37B2     6.251263  
      37B1     6.251263    57A1     6.322487    21A2     6.322488  
      58A1     6.358689    22A2     6.543627    59A1     6.543643  
      60A1     6.617825    38B1     6.852266    38B2     6.852266  
      61A1     7.268631    39B1     7.407505    39B2     7.407505  
      62A1     8.599995    63A1     8.808856    23A2     8.808897  
      40B2     9.069992    40B1     9.069992    64A1     9.681774  
      65A1    20.191102    66A1    21.204914  

    Final Occupation by Irrep:
             A1    A2    B1    B2 
    DOCC [     7,    0,    2,    2 ]

  @DF-RKS Final Energy:  -436.17378839087428

   => Energetics <=

    Nuclear Repulsion Energy =             33.4857832767909400
    One-Electron Energy =                -666.6091913200900763
    Two-Electron Energy =                 219.9185817431095131
    DFT Exchange-Correlation Energy =     -23.0610209537498498
    Empirical Dispersion Energy =           0.0000000000000000
    VV10 Nonlocal Energy =                  0.0920588630652294
    Total Energy =                       -436.1737883908742788

Computation Completed


Properties will be evaluated at   0.000000,   0.000000,   0.000000 [a0]

Properties computed using the SCF density matrix

  Nuclear Dipole Moment: [e a0]
     X:     0.0000      Y:     0.0000      Z:     0.0109

  Electronic Dipole Moment: [e a0]
     X:     0.0000      Y:     0.0000      Z:     0.7756

  Dipole Moment: [e a0]
     X:     0.0000      Y:     0.0000      Z:     0.7865     Total:     0.7865

  Dipole Moment: [D]
     X:     0.0000      Y:     0.0000      Z:     1.9991     Total:     1.9991


*** tstop() called on bp1-compute00155.data.bp.acrc.priv at Tue Apr 20 11:03:33 2021
Module time:
	user time   =      79.00 seconds =       1.32 minutes
	system time =       3.39 seconds =       0.06 minutes
	total time  =          4 seconds =       0.07 minutes
Total time:
	user time   =      79.00 seconds =       1.32 minutes
	system time =       3.39 seconds =       0.06 minutes
	total time  =          4 seconds =       0.07 minutes

  //>>>>>>>>>>>>>>>>>>>>>>>>>>>>>>>>>>>//
  //    Loading displacement 2 of 3    //
  //<<<<<<<<<<<<<<<<<<<<<<<<<<<<<<<<<<<//

*** tstart() called on bp1-compute00155.data.bp.acrc.priv
*** at Tue Apr 20 11:03:33 2021

   => Loading Basis Set <=

    Name: AUG-CC-PV(Q+D)Z
    Role: ORBITAL
    Keyword: BASIS
    atoms 1 entry C          line   319 file /work/zw18965/.conda/envs/p4env/share/psi4/basis/aug-cc-pv_qpd_z.gbs 
    atoms 2 entry S          line  1148 file /work/zw18965/.conda/envs/p4env/share/psi4/basis/aug-cc-pv_qpd_z.gbs 


         ---------------------------------------------------------
                                   SCF
               by Justin Turney, Rob Parrish, Andy Simmonett
                          and Daniel G. A. Smith
                              RKS Reference
                       24 Threads, 137329 MiB Core
         ---------------------------------------------------------

  ==> Geometry <==

    Molecular point group: c2v
    Full point group: C_inf_v

    Geometry (in Angstrom), charge = 0, multiplicity = 1:

       Center              X                  Y                   Z               Mass       
    ------------   -----------------  -----------------  -----------------  -----------------
         C            0.000000000000     0.000000000000    -1.103728099541    12.000000000000
         S            0.000000000000     0.000000000000     0.414259593076    31.972071174400

  Running in c2v symmetry.

  Rotational constants: A = ************  B =      0.83846  C =      0.83846 [cm^-1]
  Rotational constants: A = ************  B =  25136.54613  C =  25136.54613 [MHz]
  Nuclear repulsion =   33.466023783595226

  Charge       = 0
  Multiplicity = 1
  Electrons    = 22
  Nalpha       = 11
  Nbeta        = 11

  ==> Algorithm <==

  SCF Algorithm Type is DF.
  DIIS enabled.
  MOM disabled.
  Fractional occupation disabled.
  Guess Type is SAD.
  Energy threshold   = 1.00e-08
  Density threshold  = 1.00e-08
  Integral threshold = 0.00e+00

  ==> Primary Basis <==

  Basis Set: AUG-CC-PV(Q+D)Z
    Blend: AUG-CC-PV(Q+D)Z
    Number of shells: 43
    Number of basis function: 169
    Number of Cartesian functions: 220
    Spherical Harmonics?: true
    Max angular momentum: 4

  ==> DFT Potential <==

   => Composite Functional: WB97X-V <= 

    wB97X-V Hyb-GGA Exchange-Correlation Functional

    N. Mardirossian and M. Head-Gordon, Phys. Chem. Chem. Phys. 16, 9904 (2014)

    Deriv               =              1
    GGA                 =           TRUE
    Meta                =          FALSE

    Exchange Hybrid     =           TRUE
    MP2 Hybrid          =          FALSE

   => Exchange-Correlation Functionals <=

    1.0000   wB97X-V range-separated functional

   => Exact (HF) Exchange <=

    0.8330            HF,LR [omega = 0.3000]
    0.1670               HF 

   => VV10 Non-Local Parameters <=

    VV10 B              =     6.0000E+00
    VV10 C              =     1.0000E-02

   => Molecular Quadrature <=

    Radial Scheme          =       TREUTLER
    Pruning Scheme         =           FLAT
    Nuclear Scheme         =       TREUTLER

    BS radius alpha        =              1
    Pruning alpha          =              1
    Radial Points          =             75
    Spherical Points       =            302
    Total Points           =          45300
    Total Blocks           =            426
    Max Points             =            254
    Max Functions          =            169

   => Loading Basis Set <=

    Name: (AUG-CC-PV(Q+D)Z AUX)
    Role: JKFIT
    Keyword: DF_BASIS_SCF
    atoms 1 entry C          line   178 file /work/zw18965/.conda/envs/p4env/share/psi4/basis/aug-cc-pvqz-jkfit.gbs 
    atoms 2 entry S          line   810 file /work/zw18965/.conda/envs/p4env/share/psi4/basis/aug-cc-pvqz-jkfit.gbs 

  ==> Pre-Iterations <==

   -------------------------------------------------------
    Irrep   Nso     Nmo     Nalpha   Nbeta   Ndocc  Nsocc
   -------------------------------------------------------
     A1        66      66       0       0       0       0
     A2        23      23       0       0       0       0
     B1        40      40       0       0       0       0
     B2        40      40       0       0       0       0
   -------------------------------------------------------
    Total     169     169      11      11      11       0
   -------------------------------------------------------

  ==> Integral Setup <==

  ==> DiskDFJK: Density-Fitted J/K Matrices <==

    J tasked:                  Yes
    K tasked:                  Yes
    wK tasked:                 Yes
    Omega:               3.000E-01
    OpenMP threads:             24
    Integrals threads:          24
    Memory [MiB]:           102788
    Algorithm:                Core
    Integral Cache:           NONE
    Schwarz Cutoff:          1E-12
    Fitting Condition:       1E-10

   => Auxiliary Basis Set <=

  Basis Set: (AUG-CC-PV(Q+D)Z AUX)
    Blend: AUG-CC-PVQZ-JKFIT
    Number of shells: 80
    Number of basis function: 326
    Number of Cartesian functions: 445
    Spherical Harmonics?: true
    Max angular momentum: 5

  Cached 100.0% of DFT collocation blocks in 0.203 [GiB].

  Minimum eigenvalue in the overlap matrix is 3.5571044309E-05.
  Using Symmetric Orthogonalization.

  SCF Guess: Superposition of Atomic Densities via on-the-fly atomic UHF.

  ==> Iterations <==

                           Total Energy        Delta E     RMS |[F,P]|

   @DF-RKS iter SAD:  -435.61306785943401   -4.35613e+02   0.00000e+00 
   @DF-RKS iter   1:  -436.11994522181209   -5.06877e-01   3.78023e-03 DIIS
   @DF-RKS iter   2:  -436.10832372011868    1.16215e-02   3.86745e-03 DIIS
   @DF-RKS iter   3:  -436.17227979155405   -6.39561e-02   6.64934e-04 DIIS
   @DF-RKS iter   4:  -436.17373260437728   -1.45281e-03   9.46785e-05 DIIS
   @DF-RKS iter   5:  -436.17379188062876   -5.92763e-05   2.77563e-05 DIIS
   @DF-RKS iter   6:  -436.17379659530741   -4.71468e-06   1.15706e-05 DIIS
   @DF-RKS iter   7:  -436.17379775013615   -1.15483e-06   1.38157e-06 DIIS
   @DF-RKS iter   8:  -436.17379778432621   -3.41901e-08   1.71633e-07 DIIS
   @DF-RKS iter   9:  -436.17379778476294   -4.36728e-10   2.52814e-08 DIIS
   @DF-RKS iter  10:  -436.17379778477260   -9.66338e-12   4.08686e-09 DIIS
  Energy and wave function converged.


  ==> Post-Iterations <==

    Orbital Energies [Eh]
    ---------------------

    Doubly Occupied:                                                      

       1A1   -88.938065     2A1   -10.371726     3A1    -8.098630  
       1B1    -6.051775     1B2    -6.051775     4A1    -6.050349  
       5A1    -0.971930     6A1    -0.636763     2B1    -0.460786  
       2B2    -0.460786     7A1    -0.420098  

    Virtual:                                                              

       3B1    -0.001498     3B2    -0.001498     8A1     0.047060  
       9A1     0.077933     4B1     0.077960     4B2     0.077960  
      10A1     0.092566     5B1     0.102909     5B2     0.102909  
      11A1     0.153907    12A1     0.175253     1A2     0.175253  
      13A1     0.203308     6B1     0.256546     6B2     0.256546  
      14A1     0.276124     2A2     0.282001    15A1     0.282002  
       7B2     0.287998     7B1     0.287998    16A1     0.313228  
       8B1     0.360494     8B2     0.360494    17A1     0.424208  
      18A1     0.438139     3A2     0.438139    19A1     0.476641  
      20A1     0.498015     9B1     0.503469     9B2     0.503469  
      10B2     0.516913    10B1     0.516913    11B2     0.532338  
      11B1     0.532338    21A1     0.585134     4A2     0.585137  
      22A1     0.650079    12B1     0.703371    12B2     0.703371  
      23A1     0.777624     5A2     0.791175    24A1     0.791175  
      13B2     0.806243    13B1     0.806243    14B2     0.879237  
      14B1     0.879237    25A1     0.936758     6A2     0.997931  
      26A1     0.997934    27A1     0.999023    28A1     1.051871  
      15B2     1.119063    15B1     1.119063    29A1     1.165748  
       7A2     1.165748    16B1     1.275298    16B2     1.275298  
      30A1     1.289865    17B1     1.358398    17B2     1.358398  
       8A2     1.374695    31A1     1.374696    18B2     1.382679  
      18B1     1.382679    32A1     1.458819     9A2     1.458821  
      19B1     1.479815    19B2     1.479815    20B1     1.501897  
      20B2     1.501897    33A1     1.529927    34A1     1.670626  
      21B1     1.720489    21B2     1.720489    35A1     1.769895  
      10A2     1.769898    36A1     1.954829    37A1     2.072122  
      38A1     2.100262    11A2     2.100272    39A1     2.127768  
      12A2     2.127778    22B2     2.158887    22B1     2.158887  
      40A1     2.169714    23B2     2.207145    23B1     2.207145  
      24B2     2.320238    24B1     2.320238    13A2     2.383571  
      41A1     2.383582    42A1     2.408749    25B1     2.415337  
      25B2     2.415337    43A1     2.611591    26B1     2.687507  
      26B2     2.687507    14A2     2.769485    44A1     2.769497  
      27B2     2.852418    27B1     2.852418    45A1     2.877592  
      15A2     3.041625    46A1     3.041632    28B1     3.255703  
      28B2     3.255703    47A1     3.343628    29B2     3.434552  
      29B1     3.434552    16A2     3.501188    48A1     3.501189  
      17A2     3.608292    49A1     3.608306    30B1     3.669793  
      30B2     3.669793    31B1     3.793350    31B2     3.793350  
      50A1     3.800717    51A1     3.989199    52A1     4.014177  
      18A2     4.014182    53A1     4.318432    32B1     4.410827  
      32B2     4.410827    33B1     5.615899    33B2     5.615899  
      54A1     5.742073    19A2     5.742119    34B1     5.893761  
      34B2     5.893761    35B2     5.904012    35B1     5.904012  
      55A1     6.039810    20A2     6.039818    36B2     6.086252  
      36B1     6.086252    56A1     6.099464    37B1     6.251074  
      37B2     6.251074    57A1     6.321747    21A2     6.321748  
      58A1     6.358536    22A2     6.542831    59A1     6.542847  
      60A1     6.616033    38B2     6.851315    38B1     6.851315  
      61A1     7.266688    39B2     7.405070    39B1     7.405070  
      62A1     8.599302    63A1     8.808768    23A2     8.808810  
      40B1     9.069505    40B2     9.069505    64A1     9.679618  
      65A1    20.183316    66A1    21.201942  

    Final Occupation by Irrep:
             A1    A2    B1    B2 
    DOCC [     7,    0,    2,    2 ]

  @DF-RKS Final Energy:  -436.17379778477260

   => Energetics <=

    Nuclear Repulsion Energy =             33.4660237835952259
    One-Electron Energy =                -666.5700142744824461
    Two-Electron Energy =                 219.8986719427290382
    DFT Exchange-Correlation Energy =     -23.0605384099479807
    Empirical Dispersion Energy =           0.0000000000000000
    VV10 Nonlocal Energy =                  0.0920591733334919
    Total Energy =                       -436.1737977847726597

Computation Completed


Properties will be evaluated at   0.000000,   0.000000,   0.000000 [a0]

Properties computed using the SCF density matrix

  Nuclear Dipole Moment: [e a0]
     X:     0.0000      Y:     0.0000      Z:     0.0109

  Electronic Dipole Moment: [e a0]
     X:     0.0000      Y:     0.0000      Z:     0.7740

  Dipole Moment: [e a0]
     X:     0.0000      Y:     0.0000      Z:     0.7849     Total:     0.7849

  Dipole Moment: [D]
     X:     0.0000      Y:     0.0000      Z:     1.9950     Total:     1.9950


*** tstop() called on bp1-compute00155.data.bp.acrc.priv at Tue Apr 20 11:03:37 2021
Module time:
	user time   =      84.89 seconds =       1.41 minutes
	system time =       3.56 seconds =       0.06 minutes
	total time  =          4 seconds =       0.07 minutes
Total time:
	user time   =     164.02 seconds =       2.73 minutes
	system time =       6.96 seconds =       0.12 minutes
	total time  =          8 seconds =       0.13 minutes

  //>>>>>>>>>>>>>>>>>>>>>>>>>>>>>>>>>>>//
  //    Loading displacement 3 of 3    //
  //<<<<<<<<<<<<<<<<<<<<<<<<<<<<<<<<<<<//

*** tstart() called on bp1-compute00155.data.bp.acrc.priv
*** at Tue Apr 20 11:03:37 2021

   => Loading Basis Set <=

    Name: AUG-CC-PV(Q+D)Z
    Role: ORBITAL
    Keyword: BASIS
    atoms 1 entry C          line   319 file /work/zw18965/.conda/envs/p4env/share/psi4/basis/aug-cc-pv_qpd_z.gbs 
    atoms 2 entry S          line  1148 file /work/zw18965/.conda/envs/p4env/share/psi4/basis/aug-cc-pv_qpd_z.gbs 


         ---------------------------------------------------------
                                   SCF
               by Justin Turney, Rob Parrish, Andy Simmonett
                          and Daniel G. A. Smith
                              RKS Reference
                       24 Threads, 137329 MiB Core
         ---------------------------------------------------------

  ==> Geometry <==

    Molecular point group: c2v
    Full point group: C_inf_v

    Geometry (in Angstrom), charge = 0, multiplicity = 1:

       Center              X                  Y                   Z               Mass       
    ------------   -----------------  -----------------  -----------------  -----------------
         C            0.000000000000     0.000000000000    -1.102425510458    12.000000000000
         S            0.000000000000     0.000000000000     0.413770695471    31.972071174400

  Running in c2v symmetry.

  Rotational constants: A = ************  B =      0.84045  C =      0.84045 [cm^-1]
  Rotational constants: A = ************  B =  25195.98223  C =  25195.98223 [MHz]
  Nuclear repulsion =   33.505566117142450

  Charge       = 0
  Multiplicity = 1
  Electrons    = 22
  Nalpha       = 11
  Nbeta        = 11

  ==> Algorithm <==

  SCF Algorithm Type is DF.
  DIIS enabled.
  MOM disabled.
  Fractional occupation disabled.
  Guess Type is SAD.
  Energy threshold   = 1.00e-08
  Density threshold  = 1.00e-08
  Integral threshold = 0.00e+00

  ==> Primary Basis <==

  Basis Set: AUG-CC-PV(Q+D)Z
    Blend: AUG-CC-PV(Q+D)Z
    Number of shells: 43
    Number of basis function: 169
    Number of Cartesian functions: 220
    Spherical Harmonics?: true
    Max angular momentum: 4

  ==> DFT Potential <==

   => Composite Functional: WB97X-V <= 

    wB97X-V Hyb-GGA Exchange-Correlation Functional

    N. Mardirossian and M. Head-Gordon, Phys. Chem. Chem. Phys. 16, 9904 (2014)

    Deriv               =              1
    GGA                 =           TRUE
    Meta                =          FALSE

    Exchange Hybrid     =           TRUE
    MP2 Hybrid          =          FALSE

   => Exchange-Correlation Functionals <=

    1.0000   wB97X-V range-separated functional

   => Exact (HF) Exchange <=

    0.8330            HF,LR [omega = 0.3000]
    0.1670               HF 

   => VV10 Non-Local Parameters <=

    VV10 B              =     6.0000E+00
    VV10 C              =     1.0000E-02

   => Molecular Quadrature <=

    Radial Scheme          =       TREUTLER
    Pruning Scheme         =           FLAT
    Nuclear Scheme         =       TREUTLER

    BS radius alpha        =              1
    Pruning alpha          =              1
    Radial Points          =             75
    Spherical Points       =            302
    Total Points           =          45300
    Total Blocks           =            426
    Max Points             =            254
    Max Functions          =            169

   => Loading Basis Set <=

    Name: (AUG-CC-PV(Q+D)Z AUX)
    Role: JKFIT
    Keyword: DF_BASIS_SCF
    atoms 1 entry C          line   178 file /work/zw18965/.conda/envs/p4env/share/psi4/basis/aug-cc-pvqz-jkfit.gbs 
    atoms 2 entry S          line   810 file /work/zw18965/.conda/envs/p4env/share/psi4/basis/aug-cc-pvqz-jkfit.gbs 

  ==> Pre-Iterations <==

   -------------------------------------------------------
    Irrep   Nso     Nmo     Nalpha   Nbeta   Ndocc  Nsocc
   -------------------------------------------------------
     A1        66      66       0       0       0       0
     A2        23      23       0       0       0       0
     B1        40      40       0       0       0       0
     B2        40      40       0       0       0       0
   -------------------------------------------------------
    Total     169     169      11      11      11       0
   -------------------------------------------------------

  ==> Integral Setup <==

  ==> DiskDFJK: Density-Fitted J/K Matrices <==

    J tasked:                  Yes
    K tasked:                  Yes
    wK tasked:                 Yes
    Omega:               3.000E-01
    OpenMP threads:             24
    Integrals threads:          24
    Memory [MiB]:           102788
    Algorithm:                Core
    Integral Cache:           NONE
    Schwarz Cutoff:          1E-12
    Fitting Condition:       1E-10

   => Auxiliary Basis Set <=

  Basis Set: (AUG-CC-PV(Q+D)Z AUX)
    Blend: AUG-CC-PVQZ-JKFIT
    Number of shells: 80
    Number of basis function: 326
    Number of Cartesian functions: 445
    Spherical Harmonics?: true
    Max angular momentum: 5

  Cached 100.0% of DFT collocation blocks in 0.203 [GiB].

  Minimum eigenvalue in the overlap matrix is 3.5409116778E-05.
  Using Symmetric Orthogonalization.

  SCF Guess: Superposition of Atomic Densities via on-the-fly atomic UHF.

  ==> Iterations <==

                           Total Energy        Delta E     RMS |[F,P]|

   @DF-RKS iter SAD:  -435.61569282528734   -4.35616e+02   0.00000e+00 
   @DF-RKS iter   1:  -436.11940695139049   -5.03714e-01   3.79818e-03 DIIS
   @DF-RKS iter   2:  -436.10768812670881    1.17188e-02   3.88701e-03 DIIS
   @DF-RKS iter   3:  -436.17226959885772   -6.45815e-02   6.63377e-04 DIIS
   @DF-RKS iter   4:  -436.17371222002521   -1.44262e-03   9.46488e-05 DIIS
   @DF-RKS iter   5:  -436.17377130966111   -5.90896e-05   2.77206e-05 DIIS
   @DF-RKS iter   6:  -436.17377599825693   -4.68860e-06   1.15527e-05 DIIS
   @DF-RKS iter   7:  -436.17377714661757   -1.14836e-06   1.37764e-06 DIIS
   @DF-RKS iter   8:  -436.17377718059390   -3.39763e-08   1.71374e-07 DIIS
   @DF-RKS iter   9:  -436.17377718102921   -4.35307e-10   2.52689e-08 DIIS
   @DF-RKS iter  10:  -436.17377718103893   -9.72022e-12   4.08246e-09 DIIS
  Energy and wave function converged.


  ==> Post-Iterations <==

    Orbital Energies [Eh]
    ---------------------

    Doubly Occupied:                                                      

       1A1   -88.937928     2A1   -10.371180     3A1    -8.098599  
       1B2    -6.051739     1B1    -6.051739     4A1    -6.050307  
       5A1    -0.972427     6A1    -0.636667     2B2    -0.461098  
       2B1    -0.461098     7A1    -0.419923  

    Virtual:                                                              

       3B2    -0.001246     3B1    -0.001246     8A1     0.047041  
       4B2     0.077944     4B1     0.077944     9A1     0.077980  
      10A1     0.092566     5B2     0.102916     5B1     0.102916  
      11A1     0.153963    12A1     0.175232     1A2     0.175232  
      13A1     0.203344     6B2     0.256585     6B1     0.256585  
      14A1     0.276234     2A2     0.282030    15A1     0.282031  
       7B1     0.287994     7B2     0.287994    16A1     0.313438  
       8B2     0.360426     8B1     0.360426    17A1     0.424108  
      18A1     0.438043     3A2     0.438043    19A1     0.476649  
      20A1     0.498273     9B2     0.503615     9B1     0.503615  
      10B1     0.516877    10B2     0.516877    11B1     0.532553  
      11B2     0.532553    21A1     0.585119     4A2     0.585122  
      22A1     0.650439    12B2     0.703515    12B1     0.703515  
      23A1     0.777922     5A2     0.791368    24A1     0.791369  
      13B1     0.806407    13B2     0.806407    14B1     0.879333  
      14B2     0.879333    25A1     0.937019     6A2     0.998222  
      26A1     0.998225    27A1     0.999381    28A1     1.051915  
      15B2     1.119004    15B1     1.119004    29A1     1.165585  
       7A2     1.165585    16B2     1.275755    16B1     1.275755  
      30A1     1.290339    17B2     1.358110    17B1     1.358110  
       8A2     1.374621    31A1     1.374622    18B1     1.382587  
      18B2     1.382587    32A1     1.458918     9A2     1.458920  
      19B2     1.480073    19B1     1.480073    20B1     1.502093  
      20B2     1.502093    33A1     1.530590    34A1     1.671168  
      21B2     1.721356    21B1     1.721356    35A1     1.770287  
      10A2     1.770289    36A1     1.954399    37A1     2.072203  
      38A1     2.100564    11A2     2.100574    39A1     2.128177  
      12A2     2.128187    22B1     2.159159    22B2     2.159159  
      40A1     2.169901    23B2     2.207417    23B1     2.207417  
      24B1     2.320611    24B2     2.320611    13A2     2.384107  
      41A1     2.384118    42A1     2.409525    25B1     2.416301  
      25B2     2.416301    43A1     2.612096    26B2     2.687610  
      26B1     2.687610    14A2     2.769668    44A1     2.769680  
      27B2     2.854019    27B1     2.854019    45A1     2.879139  
      15A2     3.042634    46A1     3.042641    28B2     3.256492  
      28B1     3.256492    47A1     3.344385    29B2     3.434383  
      29B1     3.434383    16A2     3.501394    48A1     3.501395  
      17A2     3.608150    49A1     3.608164    30B1     3.670015  
      30B2     3.670015    31B2     3.794046    31B1     3.794046  
      50A1     3.804145    51A1     3.989300    52A1     4.015840  
      18A2     4.015845    53A1     4.319543    32B2     4.411764  
      32B1     4.411764    33B2     5.617785    33B1     5.617785  
      54A1     5.742332    19A2     5.742377    34B1     5.894581  
      34B2     5.894581    35B1     5.905074    35B2     5.905074  
      55A1     6.040379    20A2     6.040387    36B1     6.086542  
      36B2     6.086542    56A1     6.099002    37B2     6.251452  
      37B1     6.251452    57A1     6.323230    21A2     6.323231  
      58A1     6.358827    22A2     6.544425    59A1     6.544440  
      60A1     6.619634    38B1     6.853216    38B2     6.853216  
      61A1     7.270582    39B1     7.409942    39B2     7.409942  
      62A1     8.600680    63A1     8.808944    23A2     8.808985  
      40B2     9.070483    40B1     9.070483    64A1     9.683927  
      65A1    20.198906    66A1    21.207908  

    Final Occupation by Irrep:
             A1    A2    B1    B2 
    DOCC [     7,    0,    2,    2 ]

  @DF-RKS Final Energy:  -436.17377718103893

   => Energetics <=

    Nuclear Repulsion Energy =             33.5055661171424504
    One-Electron Energy =                -666.6484122426151089
    Two-Electron Energy =                 219.9385147127810285
    DFT Exchange-Correlation Energy =     -23.0615043216043745
    Empirical Dispersion Energy =           0.0000000000000000
    VV10 Nonlocal Energy =                  0.0920585532571533
    Total Energy =                       -436.1737771810388722

Computation Completed


Properties will be evaluated at   0.000000,   0.000000,   0.000000 [a0]

Properties computed using the SCF density matrix

  Nuclear Dipole Moment: [e a0]
     X:     0.0000      Y:     0.0000      Z:     0.0109

  Electronic Dipole Moment: [e a0]
     X:     0.0000      Y:     0.0000      Z:     0.7772

  Dipole Moment: [e a0]
     X:     0.0000      Y:     0.0000      Z:     0.7881     Total:     0.7881

  Dipole Moment: [D]
     X:     0.0000      Y:     0.0000      Z:     2.0033     Total:     2.0033


*** tstop() called on bp1-compute00155.data.bp.acrc.priv at Tue Apr 20 11:03:40 2021
Module time:
	user time   =      78.98 seconds =       1.32 minutes
	system time =       2.37 seconds =       0.04 minutes
	total time  =          3 seconds =       0.05 minutes
Total time:
	user time   =     243.14 seconds =       4.05 minutes
	system time =       9.34 seconds =       0.16 minutes
	total time  =         11 seconds =       0.18 minutes

         ----------------------------------------------------------
                                   FINDIF
                     R. A. King and Jonathon Misiewicz
         ---------------------------------------------------------

  Computing gradient from energies.
    Using 3-point formula.
    Energy without displacement: -436.1737883909
    Check energies below for precision!
    Forces are for mass-weighted, symmetry-adapted cartesians (in au).

     Coord      Energy(-1)        Energy(+1)            Force
        0   -436.1737977848   -436.1737771810      0.0020603734


-------------------------------------------------------------
  ## New Matrix (Symmetry 0) ##
  Irrep: 1 Size: 2 x 3

                 1                   2                   3

    1     0.00000000000000     0.00000000000000     0.00608602139770
    2     0.00000000000000     0.00000000000000    -0.00608602139770




			-----------------------------------------
			 OPTKING 2.0: for geometry optimizations 
			  - R.A. King,  Bethel University        
			-----------------------------------------

	Internal coordinates to be generated automatically.
	Detected frag 1 with atoms:  1 2
	---Fragment 1 Bond Connectivity---
	 1 : 2
	 2 : 1

	---Fragment 1 Geometry and Gradient---
	 C           0.0000000000        0.0000000000       -2.0845130568
	 S           0.0000000000        0.0000000000        0.7823752345
	             0.0000000000        0.0000000000        0.0060860214
	             0.0000000000        0.0000000000       -0.0060860214

	Previous optimization step data not found.  Starting new optimization.

	---Fragment 1 Intrafragment Coordinates---
	 - Coordinate -           - BOHR/RAD -       - ANG/DEG -
	 R(1,2)           =         2.866888	       1.517092

	Current energy   :      -436.1737883909

	Generating empirical Hessian (Schlegel '84) for each fragment.
	Taking RFO optimization step.
	Going to follow RFO solution 1.
	Using RFO vector 1.
	Norm of target step-size    0.00854
	Projected energy change by RFO approximation:        -0.0000155148

	Back-transformation to cartesian coordinates...
	Successfully converged to displaced geometry.

	--- Internal Coordinate Step in ANG or DEG, aJ/ANG or AJ/DEG ---
	 ---------------------------------------------------------------------------
	   Coordinate                Previous        Force       Change         New 
	   ----------                --------       ------       ------       ------
	    1 R(1,2)          =      1.517092     0.050141     0.004518     1.521610
	 ---------------------------------------------------------------------------
	Successfully symmetrized geometry.

  ==> Convergence Check <==

  Measures of convergence in internal coordinates in au.
  Criteria marked as inactive (o), active & met (*), and active & unmet ( ).
  --------------------------------------------------------------------------------------------- ~
   Step     Total Energy     Delta E     MAX Force     RMS Force      MAX Disp      RMS Disp    ~
  --------------------------------------------------------------------------------------------- ~
    Convergence Criteria    1.00e-06 *    3.00e-04 *             o    1.20e-03 *             o  ~
  --------------------------------------------------------------------------------------------- ~
      1    -436.17378839   -4.36e+02      6.09e-03      6.09e-03 o    8.54e-03      8.54e-03 o  ~
  ---------------------------------------------------------------------------------------------

	Writing optimization data to binary file.
	Structure for next step:
	Cartesian Geometry (in Angstrom)
	    C     0.0000000000   0.0000000000  -1.1053356252
	    S     0.0000000000   0.0000000000   0.4162739672
			--------------------------
			 OPTKING Finished Execution 
			--------------------------

    Structure for next step:
    Molecular point group: c2v
    Full point group: C_inf_v

    Geometry (in Angstrom), charge = 0, multiplicity = 1:

    C            0.000000000000     0.000000000000    -1.106361585452
    S            0.000000000000     0.000000000000     0.415248012961

gradient() will perform gradient computation by finite difference of analytic energies.

         ----------------------------------------------------------
                                   FINDIF
                     R. A. King and Jonathon Misiewicz
         ---------------------------------------------------------

  Using finite-differences of energies to determine gradients.
    Generating geometries for use with 3-point formula.
    Displacement size will be 5.00e-03.
    Number of atoms is 2.
    Number of symmetric SALCs is 1.
    Translations projected? 1. Rotations projected? 1.
    Number of geometries (including reference) is 3.

  //>>>>>>>>>>>>>>>>>>>>>>>>>>>>>>>>>>>//
  //    Loading displacement 1 of 3    //
  //<<<<<<<<<<<<<<<<<<<<<<<<<<<<<<<<<<<//

*** tstart() called on bp1-compute00155.data.bp.acrc.priv
*** at Tue Apr 20 11:03:40 2021

   => Loading Basis Set <=

    Name: AUG-CC-PV(Q+D)Z
    Role: ORBITAL
    Keyword: BASIS
    atoms 1 entry C          line   319 file /work/zw18965/.conda/envs/p4env/share/psi4/basis/aug-cc-pv_qpd_z.gbs 
    atoms 2 entry S          line  1148 file /work/zw18965/.conda/envs/p4env/share/psi4/basis/aug-cc-pv_qpd_z.gbs 


         ---------------------------------------------------------
                                   SCF
               by Justin Turney, Rob Parrish, Andy Simmonett
                          and Daniel G. A. Smith
                              RKS Reference
                       24 Threads, 137329 MiB Core
         ---------------------------------------------------------

  ==> Geometry <==

    Molecular point group: c2v
    Full point group: C_inf_v

    Geometry (in Angstrom), charge = 0, multiplicity = 1:

       Center              X                  Y                   Z               Mass       
    ------------   -----------------  -----------------  -----------------  -----------------
         C            0.000000000000     0.000000000000    -1.106361585452    12.000000000000
         S            0.000000000000     0.000000000000     0.415248012961    31.972071174400

  Running in c2v symmetry.

  Rotational constants: A = ************  B =      0.83448  C =      0.83448 [cm^-1]
  Rotational constants: A = ************  B =  25017.02290  C =  25017.02290 [MHz]
  Nuclear repulsion =   33.386364200968302

  Charge       = 0
  Multiplicity = 1
  Electrons    = 22
  Nalpha       = 11
  Nbeta        = 11

  ==> Algorithm <==

  SCF Algorithm Type is DF.
  DIIS enabled.
  MOM disabled.
  Fractional occupation disabled.
  Guess Type is READ.
  Energy threshold   = 1.00e-08
  Density threshold  = 1.00e-08
  Integral threshold = 0.00e+00

  ==> Primary Basis <==

  Basis Set: AUG-CC-PV(Q+D)Z
    Blend: AUG-CC-PV(Q+D)Z
    Number of shells: 43
    Number of basis function: 169
    Number of Cartesian functions: 220
    Spherical Harmonics?: true
    Max angular momentum: 4

  ==> DFT Potential <==

   => Composite Functional: WB97X-V <= 

    wB97X-V Hyb-GGA Exchange-Correlation Functional

    N. Mardirossian and M. Head-Gordon, Phys. Chem. Chem. Phys. 16, 9904 (2014)

    Deriv               =              1
    GGA                 =           TRUE
    Meta                =          FALSE

    Exchange Hybrid     =           TRUE
    MP2 Hybrid          =          FALSE

   => Exchange-Correlation Functionals <=

    1.0000   wB97X-V range-separated functional

   => Exact (HF) Exchange <=

    0.8330            HF,LR [omega = 0.3000]
    0.1670               HF 

   => VV10 Non-Local Parameters <=

    VV10 B              =     6.0000E+00
    VV10 C              =     1.0000E-02

   => Molecular Quadrature <=

    Radial Scheme          =       TREUTLER
    Pruning Scheme         =           FLAT
    Nuclear Scheme         =       TREUTLER

    BS radius alpha        =              1
    Pruning alpha          =              1
    Radial Points          =             75
    Spherical Points       =            302
    Total Points           =          45300
    Total Blocks           =            427
    Max Points             =            254
    Max Functions          =            169

   => Loading Basis Set <=

    Name: (AUG-CC-PV(Q+D)Z AUX)
    Role: JKFIT
    Keyword: DF_BASIS_SCF
    atoms 1 entry C          line   178 file /work/zw18965/.conda/envs/p4env/share/psi4/basis/aug-cc-pvqz-jkfit.gbs 
    atoms 2 entry S          line   810 file /work/zw18965/.conda/envs/p4env/share/psi4/basis/aug-cc-pvqz-jkfit.gbs 

   => Loading Basis Set <=

    Name: AUG-CC-PV(Q+D)Z
    Role: ORBITAL
    Keyword: BASIS
    atoms 1 entry C          line   319 file /work/zw18965/.conda/envs/p4env/share/psi4/basis/aug-cc-pv_qpd_z.gbs 
    atoms 2 entry S          line  1148 file /work/zw18965/.conda/envs/p4env/share/psi4/basis/aug-cc-pv_qpd_z.gbs 

  Reading orbitals from file 180, no projection.

  ==> Pre-Iterations <==

   -------------------------------------------------------
    Irrep   Nso     Nmo     Nalpha   Nbeta   Ndocc  Nsocc
   -------------------------------------------------------
     A1        66      66       0       0       0       0
     A2        23      23       0       0       0       0
     B1        40      40       0       0       0       0
     B2        40      40       0       0       0       0
   -------------------------------------------------------
    Total     169     169      11      11      11       0
   -------------------------------------------------------

  ==> Integral Setup <==

  ==> DiskDFJK: Density-Fitted J/K Matrices <==

    J tasked:                  Yes
    K tasked:                  Yes
    wK tasked:                 Yes
    Omega:               3.000E-01
    OpenMP threads:             24
    Integrals threads:          24
    Memory [MiB]:           102788
    Algorithm:                Core
    Integral Cache:           NONE
    Schwarz Cutoff:          1E-12
    Fitting Condition:       1E-10

   => Auxiliary Basis Set <=

  Basis Set: (AUG-CC-PV(Q+D)Z AUX)
    Blend: AUG-CC-PVQZ-JKFIT
    Number of shells: 80
    Number of basis function: 326
    Number of Cartesian functions: 445
    Spherical Harmonics?: true
    Max angular momentum: 5

  Cached 100.0% of DFT collocation blocks in 0.203 [GiB].

  Minimum eigenvalue in the overlap matrix is 3.5901148951E-05.
  Using Symmetric Orthogonalization.

  SCF Guess: Orbitals guess was supplied from a previous computation.

  ==> Iterations <==

                           Total Energy        Delta E     RMS |[F,P]|

   @DF-RKS iter   0:  -436.16918450530227   -4.36169e+02   1.93249e-04 
   @DF-RKS iter   1:  -436.17381408978872   -4.62958e-03   2.64399e-05 DIIS
   @DF-RKS iter   2:  -436.17381327361562    8.16173e-07   3.16369e-05 DIIS
   @DF-RKS iter   3:  -436.17381737178965   -4.09817e-06   3.81536e-06 DIIS
   @DF-RKS iter   4:  -436.17381741866336   -4.68737e-08   5.94567e-07 DIIS
   @DF-RKS iter   5:  -436.17381742145125   -2.78789e-09   2.17120e-07 DIIS
   @DF-RKS iter   6:  -436.17381742187354   -4.22290e-10   2.55516e-08 DIIS
   @DF-RKS iter   7:  -436.17381742188246   -8.92442e-12   4.42787e-09 DIIS
  Energy and wave function converged.


  ==> Post-Iterations <==

    Orbital Energies [Eh]
    ---------------------

    Doubly Occupied:                                                      

       1A1   -88.938338     2A1   -10.372828     3A1    -8.098689  
       1B1    -6.051847     1B2    -6.051847     4A1    -6.050433  
       5A1    -0.970926     6A1    -0.636958     2B2    -0.460159  
       2B1    -0.460159     7A1    -0.420449  

    Virtual:                                                              

       3B2    -0.002009     3B1    -0.002009     8A1     0.047098  
       9A1     0.077837     4B2     0.077993     4B1     0.077993  
      10A1     0.092565     5B2     0.102894     5B1     0.102894  
      11A1     0.153791    12A1     0.175294     1A2     0.175294  
      13A1     0.203234     6B1     0.256467     6B2     0.256467  
      14A1     0.275900     2A2     0.281942    15A1     0.281943  
       7B1     0.288006     7B2     0.288006    16A1     0.312803  
       8B2     0.360631     8B1     0.360631    17A1     0.424411  
      18A1     0.438334     3A2     0.438334    19A1     0.476624  
      20A1     0.497492     9B1     0.503174     9B2     0.503174  
      10B1     0.516987    10B2     0.516987    11B1     0.531906  
      11B2     0.531906    21A1     0.585164     4A2     0.585166  
      22A1     0.649350    12B1     0.703080    12B2     0.703080  
      23A1     0.777019     5A2     0.790783    24A1     0.790783  
      13B1     0.805912    13B2     0.805912    14B2     0.879042  
      14B1     0.879042    25A1     0.936218     6A2     0.997343  
      26A1     0.997346    27A1     0.998288    28A1     1.051809  
      15B1     1.119182    15B2     1.119182    29A1     1.166076  
       7A2     1.166076    16B2     1.274378    16B1     1.274378  
      30A1     1.288925    17B2     1.358978    17B1     1.358978  
       8A2     1.374845    31A1     1.374846    18B2     1.382865  
      18B1     1.382865    32A1     1.458619     9A2     1.458621  
      19B2     1.479287    19B1     1.479287    20B1     1.501502  
      20B2     1.501502    33A1     1.528601    34A1     1.669529  
      21B2     1.718750    21B1     1.718750    35A1     1.769104  
      10A2     1.769106    36A1     1.955690    37A1     2.071942  
      38A1     2.099655    11A2     2.099665    39A1     2.126943  
      12A2     2.126953    22B1     2.158326    22B2     2.158326  
      40A1     2.169351    23B1     2.206596    23B2     2.206596  
      24B1     2.319483    24B2     2.319483    13A2     2.382490  
      41A1     2.382502    42A1     2.407189    25B1     2.413394  
      25B2     2.413394    43A1     2.610562    26B2     2.687284  
      26B1     2.687284    14A2     2.769110    44A1     2.769122  
      27B2     2.849204    27B1     2.849204    45A1     2.874492  
      15A2     3.039576    46A1     3.039583    28B2     3.254127  
      28B1     3.254127    47A1     3.342071    29B2     3.434892  
      29B1     3.434892    16A2     3.500786    48A1     3.500787  
      17A2     3.608577    49A1     3.608592    30B1     3.669355  
      30B2     3.669355    31B2     3.791950    31B1     3.791950  
      50A1     3.793805    51A1     3.988854    52A1     4.010833  
      18A2     4.010838    53A1     4.316404    32B2     4.408904  
      32B1     4.408904    33B1     5.612084    33B2     5.612084  
      54A1     5.741551    19A2     5.741599    34B2     5.892113  
      34B1     5.892113    35B1     5.901919    35B2     5.901919  
      55A1     6.038654    20A2     6.038661    36B1     6.085656  
      36B2     6.085656    56A1     6.100327    37B1     6.250314  
      37B2     6.250314    57A1     6.318770    21A2     6.318771  
      58A1     6.357757    22A2     6.539624    59A1     6.539639  
      60A1     6.608967    38B2     6.847464    38B1     6.847464  
      61A1     7.258921    39B2     7.395246    39B1     7.395246  
      62A1     8.596404    63A1     8.808419    23A2     8.808460  
      40B2     9.067585    40B1     9.067585    64A1     9.670867  
      65A1    20.152018    66A1    21.190142  

    Final Occupation by Irrep:
             A1    A2    B1    B2 
    DOCC [     7,    0,    2,    2 ]

  @DF-RKS Final Energy:  -436.17381742188246

   => Energetics <=

    Nuclear Repulsion Energy =             33.3863642009683019
    One-Electron Energy =                -666.4120472306963165
    Two-Electron Energy =                 219.8184006319787045
    DFT Exchange-Correlation Energy =     -23.0585954561597362
    Empirical Dispersion Energy =           0.0000000000000000
    VV10 Nonlocal Energy =                  0.0920604320265896
    Total Energy =                       -436.1738174218824611

Computation Completed


Properties will be evaluated at   0.000000,   0.000000,   0.000000 [a0]

Properties computed using the SCF density matrix

  Nuclear Dipole Moment: [e a0]
     X:     0.0000      Y:     0.0000      Z:     0.0110

  Electronic Dipole Moment: [e a0]
     X:     0.0000      Y:     0.0000      Z:     0.7674

  Dipole Moment: [e a0]
     X:     0.0000      Y:     0.0000      Z:     0.7783     Total:     0.7783

  Dipole Moment: [D]
     X:     0.0000      Y:     0.0000      Z:     1.9783     Total:     1.9783


*** tstop() called on bp1-compute00155.data.bp.acrc.priv at Tue Apr 20 11:03:43 2021
Module time:
	user time   =      56.63 seconds =       0.94 minutes
	system time =       1.69 seconds =       0.03 minutes
	total time  =          3 seconds =       0.05 minutes
Total time:
	user time   =     300.09 seconds =       5.00 minutes
	system time =      11.05 seconds =       0.18 minutes
	total time  =         14 seconds =       0.23 minutes

  //>>>>>>>>>>>>>>>>>>>>>>>>>>>>>>>>>>>//
  //    Loading displacement 2 of 3    //
  //<<<<<<<<<<<<<<<<<<<<<<<<<<<<<<<<<<<//

*** tstart() called on bp1-compute00155.data.bp.acrc.priv
*** at Tue Apr 20 11:03:43 2021

   => Loading Basis Set <=

    Name: AUG-CC-PV(Q+D)Z
    Role: ORBITAL
    Keyword: BASIS
    atoms 1 entry C          line   319 file /work/zw18965/.conda/envs/p4env/share/psi4/basis/aug-cc-pv_qpd_z.gbs 
    atoms 2 entry S          line  1148 file /work/zw18965/.conda/envs/p4env/share/psi4/basis/aug-cc-pv_qpd_z.gbs 


         ---------------------------------------------------------
                                   SCF
               by Justin Turney, Rob Parrish, Andy Simmonett
                          and Daniel G. A. Smith
                              RKS Reference
                       24 Threads, 137329 MiB Core
         ---------------------------------------------------------

  ==> Geometry <==

    Molecular point group: c2v
    Full point group: C_inf_v

    Geometry (in Angstrom), charge = 0, multiplicity = 1:

       Center              X                  Y                   Z               Mass       
    ------------   -----------------  -----------------  -----------------  -----------------
         C            0.000000000000     0.000000000000    -1.107012879994    12.000000000000
         S            0.000000000000     0.000000000000     0.415492461763    31.972071174400

  Running in c2v symmetry.

  Rotational constants: A = ************  B =      0.83350  C =      0.83350 [cm^-1]
  Rotational constants: A = ************  B =  24987.59478  C =  24987.59478 [MHz]
  Nuclear repulsion =   33.366721830798674

  Charge       = 0
  Multiplicity = 1
  Electrons    = 22
  Nalpha       = 11
  Nbeta        = 11

  ==> Algorithm <==

  SCF Algorithm Type is DF.
  DIIS enabled.
  MOM disabled.
  Fractional occupation disabled.
  Guess Type is READ.
  Energy threshold   = 1.00e-08
  Density threshold  = 1.00e-08
  Integral threshold = 0.00e+00

  ==> Primary Basis <==

  Basis Set: AUG-CC-PV(Q+D)Z
    Blend: AUG-CC-PV(Q+D)Z
    Number of shells: 43
    Number of basis function: 169
    Number of Cartesian functions: 220
    Spherical Harmonics?: true
    Max angular momentum: 4

  ==> DFT Potential <==

   => Composite Functional: WB97X-V <= 

    wB97X-V Hyb-GGA Exchange-Correlation Functional

    N. Mardirossian and M. Head-Gordon, Phys. Chem. Chem. Phys. 16, 9904 (2014)

    Deriv               =              1
    GGA                 =           TRUE
    Meta                =          FALSE

    Exchange Hybrid     =           TRUE
    MP2 Hybrid          =          FALSE

   => Exchange-Correlation Functionals <=

    1.0000   wB97X-V range-separated functional

   => Exact (HF) Exchange <=

    0.8330            HF,LR [omega = 0.3000]
    0.1670               HF 

   => VV10 Non-Local Parameters <=

    VV10 B              =     6.0000E+00
    VV10 C              =     1.0000E-02

   => Molecular Quadrature <=

    Radial Scheme          =       TREUTLER
    Pruning Scheme         =           FLAT
    Nuclear Scheme         =       TREUTLER

    BS radius alpha        =              1
    Pruning alpha          =              1
    Radial Points          =             75
    Spherical Points       =            302
    Total Points           =          45300
    Total Blocks           =            427
    Max Points             =            254
    Max Functions          =            169

   => Loading Basis Set <=

    Name: (AUG-CC-PV(Q+D)Z AUX)
    Role: JKFIT
    Keyword: DF_BASIS_SCF
    atoms 1 entry C          line   178 file /work/zw18965/.conda/envs/p4env/share/psi4/basis/aug-cc-pvqz-jkfit.gbs 
    atoms 2 entry S          line   810 file /work/zw18965/.conda/envs/p4env/share/psi4/basis/aug-cc-pvqz-jkfit.gbs 

   => Loading Basis Set <=

    Name: AUG-CC-PV(Q+D)Z
    Role: ORBITAL
    Keyword: BASIS
    atoms 1 entry C          line   319 file /work/zw18965/.conda/envs/p4env/share/psi4/basis/aug-cc-pv_qpd_z.gbs 
    atoms 2 entry S          line  1148 file /work/zw18965/.conda/envs/p4env/share/psi4/basis/aug-cc-pv_qpd_z.gbs 

  Reading orbitals from file 180, no projection.

  ==> Pre-Iterations <==

   -------------------------------------------------------
    Irrep   Nso     Nmo     Nalpha   Nbeta   Ndocc  Nsocc
   -------------------------------------------------------
     A1        66      66       0       0       0       0
     A2        23      23       0       0       0       0
     B1        40      40       0       0       0       0
     B2        40      40       0       0       0       0
   -------------------------------------------------------
    Total     169     169      11      11      11       0
   -------------------------------------------------------

  ==> Integral Setup <==

  ==> DiskDFJK: Density-Fitted J/K Matrices <==

    J tasked:                  Yes
    K tasked:                  Yes
    wK tasked:                 Yes
    Omega:               3.000E-01
    OpenMP threads:             24
    Integrals threads:          24
    Memory [MiB]:           102788
    Algorithm:                Core
    Integral Cache:           NONE
    Schwarz Cutoff:          1E-12
    Fitting Condition:       1E-10

   => Auxiliary Basis Set <=

  Basis Set: (AUG-CC-PV(Q+D)Z AUX)
    Blend: AUG-CC-PVQZ-JKFIT
    Number of shells: 80
    Number of basis function: 326
    Number of Cartesian functions: 445
    Spherical Harmonics?: true
    Max angular momentum: 5

  Cached 100.0% of DFT collocation blocks in 0.203 [GiB].

  Minimum eigenvalue in the overlap matrix is 3.5983355575E-05.
  Using Symmetric Orthogonalization.

  SCF Guess: Orbitals guess was supplied from a previous computation.

  ==> Iterations <==

                           Total Energy        Delta E     RMS |[F,P]|

   @DF-RKS iter   0:  -436.17289390840432   -4.36173e+02   3.81856e-05 
   @DF-RKS iter   1:  -436.17381765393918   -9.23746e-04   5.22846e-06 DIIS
   @DF-RKS iter   2:  -436.17381762215950    3.17797e-08   6.25474e-06 DIIS
   @DF-RKS iter   3:  -436.17381778237541   -1.60216e-07   7.56634e-07 DIIS
   @DF-RKS iter   4:  -436.17381778421884   -1.84343e-09   1.17708e-07 DIIS
   @DF-RKS iter   5:  -436.17381778432832   -1.09480e-10   4.28137e-08 DIIS
   @DF-RKS iter   6:  -436.17381778434498   -1.66551e-11   5.06275e-09 DIIS
  Energy and wave function converged.


  ==> Post-Iterations <==

    Orbital Energies [Eh]
    ---------------------

    Doubly Occupied:                                                      

       1A1   -88.938404     2A1   -10.373100     3A1    -8.098704  
       1B2    -6.051864     1B1    -6.051864     4A1    -6.050453  
       5A1    -0.970677     6A1    -0.637006     2B2    -0.460004  
       2B1    -0.460004     7A1    -0.420535  

    Virtual:                                                              

       3B2    -0.002135     3B1    -0.002135     8A1     0.047107  
       9A1     0.077814     4B2     0.078001     4B1     0.078001  
      10A1     0.092565     5B1     0.102890     5B2     0.102890  
      11A1     0.153762    12A1     0.175305     1A2     0.175305  
      13A1     0.203216     6B1     0.256447     6B2     0.256447  
      14A1     0.275845     2A2     0.281928    15A1     0.281928  
       7B1     0.288008     7B2     0.288008    16A1     0.312697  
       8B2     0.360665     8B1     0.360665    17A1     0.424462  
      18A1     0.438382     3A2     0.438382    19A1     0.476620  
      20A1     0.497364     9B1     0.503101     9B2     0.503101  
      10B1     0.517005    10B2     0.517005    11B1     0.531799  
      11B2     0.531799    21A1     0.585171     4A2     0.585174  
      22A1     0.649170    12B1     0.703008    12B2     0.703008  
      23A1     0.776869     5A2     0.790686    24A1     0.790686  
      13B2     0.805830    13B1     0.805830    14B2     0.878995  
      14B1     0.878995    25A1     0.936081     6A2     0.997198  
      26A1     0.997201    27A1     0.998103    28A1     1.051799  
      15B1     1.119212    15B2     1.119212    29A1     1.166157  
       7A2     1.166157    16B1     1.274152    16B2     1.274152  
      30A1     1.288697    17B2     1.359121    17B1     1.359121  
       8A2     1.374882    31A1     1.374883    18B1     1.382911  
      18B2     1.382911    32A1     1.458569     9A2     1.458571  
      19B2     1.479156    19B1     1.479156    20B1     1.501404  
      20B2     1.501404    33A1     1.528276    34A1     1.669259  
      21B1     1.718322    21B2     1.718322    35A1     1.768907  
      10A2     1.768910    36A1     1.955901    37A1     2.071895  
      38A1     2.099505    11A2     2.099515    39A1     2.126740  
      12A2     2.126750    22B1     2.158186    22B2     2.158186  
      40A1     2.169264    23B1     2.206460    23B2     2.206460  
      24B1     2.319296    24B2     2.319296    13A2     2.382224  
      41A1     2.382236    42A1     2.406805    25B1     2.412915  
      25B2     2.412915    43A1     2.610306    26B1     2.687225  
      26B2     2.687225    14A2     2.769016    44A1     2.769028  
      27B1     2.848413    27B2     2.848413    45A1     2.873731  
      15A2     3.039067    46A1     3.039074    28B1     3.253741  
      28B2     3.253741    47A1     3.341681    29B2     3.434976  
      29B1     3.434976    16A2     3.500690    48A1     3.500691  
      17A2     3.608647    49A1     3.608662    30B1     3.669248  
      30B2     3.669248    31B1     3.791605    31B2     3.791605  
      50A1     3.792100    51A1     3.988739    52A1     4.010010  
      18A2     4.010015    53A1     4.315948    32B2     4.408422  
      32B1     4.408422    33B1     5.611140    33B2     5.611140  
      54A1     5.741422    19A2     5.741470    34B2     5.891708  
      34B1     5.891708    35B1     5.901413    35B2     5.901413  
      55A1     6.038368    20A2     6.038374    36B1     6.085506  
      36B2     6.085506    56A1     6.100526    37B1     6.250126  
      37B2     6.250126    57A1     6.318039    21A2     6.318040  
      58A1     6.357523    22A2     6.538834    59A1     6.538849  
      60A1     6.607265    38B1     6.846510    38B2     6.846510  
      61A1     7.257022    39B1     7.392821    39B2     7.392821  
      62A1     8.595664    63A1     8.808334    23A2     8.808374  
      40B2     9.067122    40B1     9.067122    64A1     9.668696  
      65A1    20.144322    66A1    21.187278  

    Final Occupation by Irrep:
             A1    A2    B1    B2 
    DOCC [     7,    0,    2,    2 ]

  @DF-RKS Final Energy:  -436.17381778434498

   => Energetics <=

    Nuclear Repulsion Energy =             33.3667218307986744
    One-Electron Energy =                -666.3730932360367660
    Two-Electron Energy =                 219.7986101381687547
    DFT Exchange-Correlation Energy =     -23.0581172624724609
    Empirical Dispersion Energy =           0.0000000000000000
    VV10 Nonlocal Energy =                  0.0920607451967820
    Total Energy =                       -436.1738177843449762

Computation Completed


Properties will be evaluated at   0.000000,   0.000000,   0.000000 [a0]

Properties computed using the SCF density matrix

  Nuclear Dipole Moment: [e a0]
     X:     0.0000      Y:     0.0000      Z:     0.0110

  Electronic Dipole Moment: [e a0]
     X:     0.0000      Y:     0.0000      Z:     0.7657

  Dipole Moment: [e a0]
     X:     0.0000      Y:     0.0000      Z:     0.7767     Total:     0.7767

  Dipole Moment: [D]
     X:     0.0000      Y:     0.0000      Z:     1.9742     Total:     1.9742


*** tstop() called on bp1-compute00155.data.bp.acrc.priv at Tue Apr 20 11:03:46 2021
Module time:
	user time   =      58.63 seconds =       0.98 minutes
	system time =       2.13 seconds =       0.04 minutes
	total time  =          3 seconds =       0.05 minutes
Total time:
	user time   =     358.85 seconds =       5.98 minutes
	system time =      13.19 seconds =       0.22 minutes
	total time  =         17 seconds =       0.28 minutes

  //>>>>>>>>>>>>>>>>>>>>>>>>>>>>>>>>>>>//
  //    Loading displacement 3 of 3    //
  //<<<<<<<<<<<<<<<<<<<<<<<<<<<<<<<<<<<//

*** tstart() called on bp1-compute00155.data.bp.acrc.priv
*** at Tue Apr 20 11:03:46 2021

   => Loading Basis Set <=

    Name: AUG-CC-PV(Q+D)Z
    Role: ORBITAL
    Keyword: BASIS
    atoms 1 entry C          line   319 file /work/zw18965/.conda/envs/p4env/share/psi4/basis/aug-cc-pv_qpd_z.gbs 
    atoms 2 entry S          line  1148 file /work/zw18965/.conda/envs/p4env/share/psi4/basis/aug-cc-pv_qpd_z.gbs 


         ---------------------------------------------------------
                                   SCF
               by Justin Turney, Rob Parrish, Andy Simmonett
                          and Daniel G. A. Smith
                              RKS Reference
                       24 Threads, 137329 MiB Core
         ---------------------------------------------------------

  ==> Geometry <==

    Molecular point group: c2v
    Full point group: C_inf_v

    Geometry (in Angstrom), charge = 0, multiplicity = 1:

       Center              X                  Y                   Z               Mass       
    ------------   -----------------  -----------------  -----------------  -----------------
         C            0.000000000000     0.000000000000    -1.105710290910    12.000000000000
         S            0.000000000000     0.000000000000     0.415003564159    31.972071174400

  Running in c2v symmetry.

  Rotational constants: A = ************  B =      0.83546  C =      0.83546 [cm^-1]
  Rotational constants: A = ************  B =  25046.50305  C =  25046.50305 [MHz]
  Nuclear repulsion =   33.406029710957796

  Charge       = 0
  Multiplicity = 1
  Electrons    = 22
  Nalpha       = 11
  Nbeta        = 11

  ==> Algorithm <==

  SCF Algorithm Type is DF.
  DIIS enabled.
  MOM disabled.
  Fractional occupation disabled.
  Guess Type is READ.
  Energy threshold   = 1.00e-08
  Density threshold  = 1.00e-08
  Integral threshold = 0.00e+00

  ==> Primary Basis <==

  Basis Set: AUG-CC-PV(Q+D)Z
    Blend: AUG-CC-PV(Q+D)Z
    Number of shells: 43
    Number of basis function: 169
    Number of Cartesian functions: 220
    Spherical Harmonics?: true
    Max angular momentum: 4

  ==> DFT Potential <==

   => Composite Functional: WB97X-V <= 

    wB97X-V Hyb-GGA Exchange-Correlation Functional

    N. Mardirossian and M. Head-Gordon, Phys. Chem. Chem. Phys. 16, 9904 (2014)

    Deriv               =              1
    GGA                 =           TRUE
    Meta                =          FALSE

    Exchange Hybrid     =           TRUE
    MP2 Hybrid          =          FALSE

   => Exchange-Correlation Functionals <=

    1.0000   wB97X-V range-separated functional

   => Exact (HF) Exchange <=

    0.8330            HF,LR [omega = 0.3000]
    0.1670               HF 

   => VV10 Non-Local Parameters <=

    VV10 B              =     6.0000E+00
    VV10 C              =     1.0000E-02

   => Molecular Quadrature <=

    Radial Scheme          =       TREUTLER
    Pruning Scheme         =           FLAT
    Nuclear Scheme         =       TREUTLER

    BS radius alpha        =              1
    Pruning alpha          =              1
    Radial Points          =             75
    Spherical Points       =            302
    Total Points           =          45300
    Total Blocks           =            427
    Max Points             =            254
    Max Functions          =            169

   => Loading Basis Set <=

    Name: (AUG-CC-PV(Q+D)Z AUX)
    Role: JKFIT
    Keyword: DF_BASIS_SCF
    atoms 1 entry C          line   178 file /work/zw18965/.conda/envs/p4env/share/psi4/basis/aug-cc-pvqz-jkfit.gbs 
    atoms 2 entry S          line   810 file /work/zw18965/.conda/envs/p4env/share/psi4/basis/aug-cc-pvqz-jkfit.gbs 

   => Loading Basis Set <=

    Name: AUG-CC-PV(Q+D)Z
    Role: ORBITAL
    Keyword: BASIS
    atoms 1 entry C          line   319 file /work/zw18965/.conda/envs/p4env/share/psi4/basis/aug-cc-pv_qpd_z.gbs 
    atoms 2 entry S          line  1148 file /work/zw18965/.conda/envs/p4env/share/psi4/basis/aug-cc-pv_qpd_z.gbs 

  Reading orbitals from file 180, no projection.

  ==> Pre-Iterations <==

   -------------------------------------------------------
    Irrep   Nso     Nmo     Nalpha   Nbeta   Ndocc  Nsocc
   -------------------------------------------------------
     A1        66      66       0       0       0       0
     A2        23      23       0       0       0       0
     B1        40      40       0       0       0       0
     B2        40      40       0       0       0       0
   -------------------------------------------------------
    Total     169     169      11      11      11       0
   -------------------------------------------------------

  ==> Integral Setup <==

  ==> DiskDFJK: Density-Fitted J/K Matrices <==

    J tasked:                  Yes
    K tasked:                  Yes
    wK tasked:                 Yes
    Omega:               3.000E-01
    OpenMP threads:             24
    Integrals threads:          24
    Memory [MiB]:           102788
    Algorithm:                Core
    Integral Cache:           NONE
    Schwarz Cutoff:          1E-12
    Fitting Condition:       1E-10

   => Auxiliary Basis Set <=

  Basis Set: (AUG-CC-PV(Q+D)Z AUX)
    Blend: AUG-CC-PVQZ-JKFIT
    Number of shells: 80
    Number of basis function: 326
    Number of Cartesian functions: 445
    Spherical Harmonics?: true
    Max angular momentum: 5

  Cached 100.0% of DFT collocation blocks in 0.203 [GiB].

  Minimum eigenvalue in the overlap matrix is 3.5819168072E-05.
  Using Symmetric Orthogonalization.

  SCF Guess: Orbitals guess was supplied from a previous computation.

  ==> Iterations <==

                           Total Energy        Delta E     RMS |[F,P]|

   @DF-RKS iter   0:  -436.17474052750424   -4.36175e+02   3.82413e-05 
   @DF-RKS iter   1:  -436.17381515790925    9.25370e-04   5.22599e-06 DIIS
   @DF-RKS iter   2:  -436.17381512669027    3.12190e-08   6.24139e-06 DIIS
   @DF-RKS iter   3:  -436.17381528614277   -1.59452e-07   7.54406e-07 DIIS
   @DF-RKS iter   4:  -436.17381528797398   -1.83121e-09   1.17559e-07 DIIS
   @DF-RKS iter   5:  -436.17381528808284   -1.08855e-10   4.27972e-08 DIIS
   @DF-RKS iter   6:  -436.17381528809983   -1.69962e-11   5.07248e-09 DIIS
  Energy and wave function converged.


  ==> Post-Iterations <==

    Orbital Energies [Eh]
    ---------------------

    Doubly Occupied:                                                      

       1A1   -88.938271     2A1   -10.372556     3A1    -8.098675  
       1B2    -6.051829     1B1    -6.051829     4A1    -6.050412  
       5A1    -0.971174     6A1    -0.636909     2B2    -0.460314  
       2B1    -0.460314     7A1    -0.420363  

    Virtual:                                                              

       3B1    -0.001882     3B2    -0.001882     8A1     0.047089  
       9A1     0.077861     4B1     0.077985     4B2     0.077985  
      10A1     0.092566     5B1     0.102897     5B2     0.102897  
      11A1     0.153820    12A1     0.175284     1A2     0.175284  
      13A1     0.203253     6B1     0.256487     6B2     0.256487  
      14A1     0.275956     2A2     0.281957    15A1     0.281958  
       7B1     0.288004     7B2     0.288004    16A1     0.312908  
       8B1     0.360597     8B2     0.360597    17A1     0.424361  
      18A1     0.438286     3A2     0.438286    19A1     0.476629  
      20A1     0.497621     9B2     0.503247     9B1     0.503247  
      10B2     0.516969    10B1     0.516969    11B1     0.532012  
      11B2     0.532012    21A1     0.585156     4A2     0.585159  
      22A1     0.649530    12B1     0.703151    12B2     0.703151  
      23A1     0.777169     5A2     0.790880    24A1     0.790880  
      13B2     0.805994    13B1     0.805994    14B1     0.879090  
      14B2     0.879090    25A1     0.936353     6A2     0.997489  
      26A1     0.997492    27A1     0.998471    28A1     1.051821  
      15B1     1.119153    15B2     1.119153    29A1     1.165995  
       7A2     1.165995    16B1     1.274605    16B2     1.274605  
      30A1     1.289155    17B2     1.358835    17B1     1.358835  
       8A2     1.374808    31A1     1.374809    18B2     1.382819  
      18B1     1.382819    32A1     1.458668     9A2     1.458670  
      19B2     1.479418    19B1     1.479418    20B2     1.501599  
      20B1     1.501599    33A1     1.528927    34A1     1.669800  
      21B1     1.719178    21B2     1.719178    35A1     1.769300  
      10A2     1.769302    36A1     1.955479    37A1     2.071988  
      38A1     2.099805    11A2     2.099815    39A1     2.127147  
      12A2     2.127157    22B1     2.158466    22B2     2.158466  
      40A1     2.169439    23B2     2.206731    23B1     2.206731  
      24B1     2.319670    24B2     2.319670    13A2     2.382757  
      41A1     2.382769    42A1     2.407573    25B2     2.413874  
      25B1     2.413874    43A1     2.610817    26B2     2.687341  
      26B1     2.687341    14A2     2.769203    44A1     2.769215  
      27B1     2.849996    27B2     2.849996    45A1     2.875255  
      15A2     3.040084    46A1     3.040091    28B2     3.254514  
      28B1     3.254514    47A1     3.342460    29B2     3.434808  
      29B1     3.434808    16A2     3.500884    48A1     3.500885  
      17A2     3.608506    49A1     3.608521    30B1     3.669462  
      30B2     3.669462    31B2     3.792295    31B1     3.792295  
      50A1     3.795512    51A1     3.988957    52A1     4.011658  
      18A2     4.011663    53A1     4.316878    32B2     4.409383  
      32B1     4.409383    33B2     5.613027    33B1     5.613027  
      54A1     5.741680    19A2     5.741727    34B2     5.892520  
      34B1     5.892520    35B2     5.902430    35B1     5.902430  
      55A1     6.038941    20A2     6.038948    36B2     6.085804  
      36B1     6.085804    56A1     6.100123    37B2     6.250501  
      37B1     6.250501    57A1     6.319504    21A2     6.319505  
      58A1     6.357974    22A2     6.540415    59A1     6.540431  
      60A1     6.610687    38B1     6.848417    38B2     6.848417  
      61A1     7.260829    39B2     7.397672    39B1     7.397672  
      62A1     8.597134    63A1     8.808505    23A2     8.808545  
      40B2     9.068053    40B1     9.068053    64A1     9.673036  
      65A1    20.159731    66A1    21.193027  

    Final Occupation by Irrep:
             A1    A2    B1    B2 
    DOCC [     7,    0,    2,    2 ]

  @DF-RKS Final Energy:  -436.17381528809983

   => Energetics <=

    Nuclear Repulsion Energy =             33.4060297109577959
    One-Electron Energy =                -666.4510483311902362
    Two-Electron Energy =                 219.8382180069582148
    DFT Exchange-Correlation Energy =     -23.0590747953648787
    Empirical Dispersion Energy =           0.0000000000000000
    VV10 Nonlocal Energy =                  0.0920601205392749
    Total Energy =                       -436.1738152880998882

Computation Completed


Properties will be evaluated at   0.000000,   0.000000,   0.000000 [a0]

Properties computed using the SCF density matrix

  Nuclear Dipole Moment: [e a0]
     X:     0.0000      Y:     0.0000      Z:     0.0110

  Electronic Dipole Moment: [e a0]
     X:     0.0000      Y:     0.0000      Z:     0.7690

  Dipole Moment: [e a0]
     X:     0.0000      Y:     0.0000      Z:     0.7800     Total:     0.7800

  Dipole Moment: [D]
     X:     0.0000      Y:     0.0000      Z:     1.9824     Total:     1.9824


*** tstop() called on bp1-compute00155.data.bp.acrc.priv at Tue Apr 20 11:03:48 2021
Module time:
	user time   =      54.04 seconds =       0.90 minutes
	system time =       1.73 seconds =       0.03 minutes
	total time  =          2 seconds =       0.03 minutes
Total time:
	user time   =     413.02 seconds =       6.88 minutes
	system time =      14.92 seconds =       0.25 minutes
	total time  =         19 seconds =       0.32 minutes

         ----------------------------------------------------------
                                   FINDIF
                     R. A. King and Jonathon Misiewicz
         ---------------------------------------------------------

  Computing gradient from energies.
    Using 3-point formula.
    Energy without displacement: -436.1738174219
    Check energies below for precision!
    Forces are for mass-weighted, symmetry-adapted cartesians (in au).

     Coord      Energy(-1)        Energy(+1)            Force
[...]
     X:     0.0000      Y:     0.0000      Z:     0.0110

  Electronic Dipole Moment: [e a0]
     X:     0.0000      Y:     0.0000      Z:     0.7646

  Dipole Moment: [e a0]
     X:     0.0000      Y:     0.0000      Z:     0.7756     Total:     0.7756

  Dipole Moment: [D]
     X:     0.0000      Y:     0.0000      Z:     1.9713     Total:     1.9713


*** tstop() called on bp1-compute00155.data.bp.acrc.priv at Tue Apr 20 11:04:15 2021
Module time:
	user time   =      85.34 seconds =       1.42 minutes
	system time =       2.53 seconds =       0.04 minutes
	total time  =          4 seconds =       0.07 minutes
Total time:
	user time   =     989.28 seconds =      16.49 minutes
	system time =      33.76 seconds =       0.56 minutes
	total time  =         46 seconds =       0.77 minutes

  //>>>>>>>>>>>>>>>>>>>>>>>>>>>>>>>>>>>//
  //    Loading displacement 3 of 3    //
  //<<<<<<<<<<<<<<<<<<<<<<<<<<<<<<<<<<<//

*** tstart() called on bp1-compute00155.data.bp.acrc.priv
*** at Tue Apr 20 11:04:15 2021

   => Loading Basis Set <=

    Name: AUG-CC-PV(Q+D)Z
    Role: ORBITAL
    Keyword: BASIS
    atoms 1 entry C          line   319 file /work/zw18965/.conda/envs/p4env/share/psi4/basis/aug-cc-pv_qpd_z.gbs 
    atoms 2 entry S          line  1148 file /work/zw18965/.conda/envs/p4env/share/psi4/basis/aug-cc-pv_qpd_z.gbs 


         ---------------------------------------------------------
                                   SCF
               by Justin Turney, Rob Parrish, Andy Simmonett
                          and Daniel G. A. Smith
                              RKS Reference
                       24 Threads, 137329 MiB Core
         ---------------------------------------------------------

  ==> Geometry <==

    Molecular point group: c2v
    Full point group: C_inf_v

    Geometry (in Angstrom), charge = 0, multiplicity = 1:

       Center              X                  Y                   Z               Mass       
    ------------   -----------------  -----------------  -----------------  -----------------
         C            0.000000000000     0.000000000000    -1.106163120461    12.000000000000
         S            0.000000000000     0.000000000000     0.415173523577    31.972071174400

  Running in c2v symmetry.

  Rotational constants: A = ************  B =      0.83478  C =      0.83478 [cm^-1]
  Rotational constants: A = ************  B =  25026.00069  C =  25026.00069 [MHz]
  Nuclear repulsion =   33.392354298034036

  Charge       = 0
  Multiplicity = 1
  Electrons    = 22
  Nalpha       = 11
  Nbeta        = 11

  ==> Algorithm <==

  SCF Algorithm Type is DF.
  DIIS enabled.
  MOM disabled.
  Fractional occupation disabled.
  Guess Type is SAD.
  Energy threshold   = 1.00e-10
  Density threshold  = 1.00e-10
  Integral threshold = 0.00e+00

  ==> Primary Basis <==

  Basis Set: AUG-CC-PV(Q+D)Z
    Blend: AUG-CC-PV(Q+D)Z
    Number of shells: 43
    Number of basis function: 169
    Number of Cartesian functions: 220
    Spherical Harmonics?: true
    Max angular momentum: 4

  ==> DFT Potential <==

   => Composite Functional: WB97X-V <= 

    wB97X-V Hyb-GGA Exchange-Correlation Functional

    N. Mardirossian and M. Head-Gordon, Phys. Chem. Chem. Phys. 16, 9904 (2014)

    Deriv               =              1
    GGA                 =           TRUE
    Meta                =          FALSE

    Exchange Hybrid     =           TRUE
    MP2 Hybrid          =          FALSE

   => Exchange-Correlation Functionals <=

    1.0000   wB97X-V range-separated functional

   => Exact (HF) Exchange <=

    0.8330            HF,LR [omega = 0.3000]
    0.1670               HF 

   => VV10 Non-Local Parameters <=

    VV10 B              =     6.0000E+00
    VV10 C              =     1.0000E-02

   => Molecular Quadrature <=

    Radial Scheme          =       TREUTLER
    Pruning Scheme         =           FLAT
    Nuclear Scheme         =       TREUTLER

    BS radius alpha        =              1
    Pruning alpha          =              1
    Radial Points          =             75
    Spherical Points       =            302
    Total Points           =          45300
    Total Blocks           =            427
    Max Points             =            254
    Max Functions          =            169

   => Loading Basis Set <=

    Name: (AUG-CC-PV(Q+D)Z AUX)
    Role: JKFIT
    Keyword: DF_BASIS_SCF
    atoms 1 entry C          line   178 file /work/zw18965/.conda/envs/p4env/share/psi4/basis/aug-cc-pvqz-jkfit.gbs 
    atoms 2 entry S          line   810 file /work/zw18965/.conda/envs/p4env/share/psi4/basis/aug-cc-pvqz-jkfit.gbs 

  ==> Pre-Iterations <==

   -------------------------------------------------------
    Irrep   Nso     Nmo     Nalpha   Nbeta   Ndocc  Nsocc
   -------------------------------------------------------
     A1        66      66       0       0       0       0
     A2        23      23       0       0       0       0
     B1        40      40       0       0       0       0
     B2        40      40       0       0       0       0
   -------------------------------------------------------
    Total     169     169      11      11      11       0
   -------------------------------------------------------

  ==> Integral Setup <==

  ==> DiskDFJK: Density-Fitted J/K Matrices <==

    J tasked:                  Yes
    K tasked:                  Yes
    wK tasked:                 Yes
    Omega:               3.000E-01
    OpenMP threads:             24
    Integrals threads:          24
    Memory [MiB]:           102788
    Algorithm:                Core
    Integral Cache:           NONE
    Schwarz Cutoff:          1E-12
    Fitting Condition:       1E-10

   => Auxiliary Basis Set <=

  Basis Set: (AUG-CC-PV(Q+D)Z AUX)
    Blend: AUG-CC-PVQZ-JKFIT
    Number of shells: 80
    Number of basis function: 326
    Number of Cartesian functions: 445
    Spherical Harmonics?: true
    Max angular momentum: 5

  Cached 100.0% of DFT collocation blocks in 0.203 [GiB].

  Minimum eigenvalue in the overlap matrix is 3.5876143537E-05.
  Using Symmetric Orthogonalization.

  SCF Guess: Superposition of Atomic Densities via on-the-fly atomic UHF.

  ==> Iterations <==

                           Total Energy        Delta E     RMS |[F,P]|

   @DF-RKS iter SAD:  -435.60817508884008   -4.35608e+02   0.00000e+00 
   @DF-RKS iter   1:  -436.12092470388990   -5.12750e-01   3.74683e-03 DIIS
   @DF-RKS iter   2:  -436.10949006000578    1.14346e-02   3.83079e-03 DIIS
   @DF-RKS iter   3:  -436.17227887146311   -6.27888e-02   6.67938e-04 DIIS
   @DF-RKS iter   4:  -436.17375137567063   -1.47250e-03   9.47336e-05 DIIS
   @DF-RKS iter   5:  -436.17381099853526   -5.96229e-05   2.78227e-05 DIIS
   @DF-RKS iter   6:  -436.17381576225870   -4.76372e-06   1.16036e-05 DIIS
   @DF-RKS iter   7:  -436.17381692921157   -1.16695e-06   1.38902e-06 DIIS
   @DF-RKS iter   8:  -436.17381696380676   -3.45952e-08   1.72124e-07 DIIS
   @DF-RKS iter   9:  -436.17381696424650   -4.39741e-10   2.53062e-08 DIIS
   @DF-RKS iter  10:  -436.17381696425593   -9.43601e-12   4.09600e-09 DIIS
   @DF-RKS iter  11:  -436.17381696425650   -5.68434e-13   7.31006e-10 DIIS
   @DF-RKS iter  12:  -436.17381696425622    2.84217e-13   9.00082e-11 DIIS
  Energy and wave function converged.


  ==> Post-Iterations <==

    Orbital Energies [Eh]
    ---------------------

    Doubly Occupied:                                                      

       1A1   -88.938317     2A1   -10.372745     3A1    -8.098685  
       1B2    -6.051841     1B1    -6.051841     4A1    -6.050426  
       5A1    -0.971001     6A1    -0.636943     2B2    -0.460206  
       2B1    -0.460206     7A1    -0.420423  

    Virtual:                                                              

       3B2    -0.001970     3B1    -0.001970     8A1     0.047095  
       9A1     0.077844     4B1     0.077990     4B2     0.077990  
      10A1     0.092566     5B1     0.102895     5B2     0.102895  
      11A1     0.153800    12A1     0.175291     1A2     0.175291  
      13A1     0.203240     6B1     0.256473     6B2     0.256473  
      14A1     0.275917     2A2     0.281947    15A1     0.281947  
       7B1     0.288006     7B2     0.288006    16A1     0.312835  
       8B2     0.360620     8B1     0.360620    17A1     0.424396  
      18A1     0.438319     3A2     0.438319    19A1     0.476626  
      20A1     0.497532     9B2     0.503196     9B1     0.503196  
      10B2     0.516981    10B1     0.516981    11B1     0.531938  
      11B2     0.531938    21A1     0.585162     4A2     0.585164  
      22A1     0.649405    12B1     0.703101    12B2     0.703101  
      23A1     0.777065     5A2     0.790812    24A1     0.790813  
      13B2     0.805937    13B1     0.805937    14B1     0.879057  
      14B2     0.879057    25A1     0.936259     6A2     0.997388  
      26A1     0.997390    27A1     0.998344    28A1     1.051813  
      15B1     1.119173    15B2     1.119173    29A1     1.166051  
       7A2     1.166051    16B2     1.274447    16B1     1.274447  
      30A1     1.288995    17B2     1.358934    17B1     1.358934  
       8A2     1.374834    31A1     1.374835    18B2     1.382851  
      18B1     1.382851    32A1     1.458634     9A2     1.458636  
      19B2     1.479327    19B1     1.479327    20B2     1.501531  
      20B1     1.501531    33A1     1.528700    34A1     1.669612  
      21B1     1.718880    21B2     1.718880    35A1     1.769163  
      10A2     1.769166    36A1     1.955626    37A1     2.071956  
      38A1     2.099701    11A2     2.099711    39A1     2.127005  
      12A2     2.127015    22B1     2.158369    22B2     2.158369  
      40A1     2.169377    23B1     2.206637    23B2     2.206637  
      24B1     2.319540    24B2     2.319540    13A2     2.382572  
      41A1     2.382583    42A1     2.407306    25B2     2.413540  
      25B1     2.413540    43A1     2.610640    26B2     2.687301  
      26B1     2.687301    14A2     2.769138    44A1     2.769150  
      27B1     2.849445    27B2     2.849445    45A1     2.874724  
      15A2     3.039731    46A1     3.039738    28B1     3.254245  
      28B2     3.254245    47A1     3.342190    29B1     3.434867  
      29B2     3.434867    16A2     3.500816    48A1     3.500817  
      17A2     3.608555    49A1     3.608570    30B1     3.669387  
      30B2     3.669387    31B2     3.792055    31B1     3.792055  
      50A1     3.794325    51A1     3.988887    52A1     4.011084  
      18A2     4.011089    53A1     4.316547    32B1     4.409050  
      32B2     4.409050    33B2     5.612371    33B1     5.612371  
      54A1     5.741590    19A2     5.741638    34B1     5.892237  
      34B2     5.892237    35B1     5.902075    35B2     5.902075  
      55A1     6.038742    20A2     6.038749    36B1     6.085701  
      36B2     6.085701    56A1     6.100265    37B1     6.250371  
      37B2     6.250371    57A1     6.318994    21A2     6.318994  
      58A1     6.357825    22A2     6.539865    59A1     6.539880  
      60A1     6.609489    38B1     6.847755    38B2     6.847755  
      61A1     7.259502    39B1     7.395985    39B2     7.395985  
      62A1     8.596627    63A1     8.808445    23A2     8.808486  
      40B2     9.067727    40B1     9.067727    64A1     9.671528  
      65A1    20.154367    66A1    21.191019  

    Final Occupation by Irrep:
             A1    A2    B1    B2 
    DOCC [     7,    0,    2,    2 ]

  @DF-RKS Final Energy:  -436.17381696425622

   => Energetics <=

    Nuclear Repulsion Energy =             33.3923542980340358
    One-Electron Energy =                -666.4239287054737133
    Two-Electron Energy =                 219.8244386709428113
    DFT Exchange-Correlation Energy =     -23.0587415652136798
    Empirical Dispersion Energy =           0.0000000000000000
    VV10 Nonlocal Energy =                  0.0920603374542692
    Total Energy =                       -436.1738169642562184

Computation Completed


Properties will be evaluated at   0.000000,   0.000000,   0.000000 [a0]

Properties computed using the SCF density matrix

  Nuclear Dipole Moment: [e a0]
     X:     0.0000      Y:     0.0000      Z:     0.0110

  Electronic Dipole Moment: [e a0]
     X:     0.0000      Y:     0.0000      Z:     0.7679

  Dipole Moment: [e a0]
     X:     0.0000      Y:     0.0000      Z:     0.7788     Total:     0.7788

  Dipole Moment: [D]
     X:     0.0000      Y:     0.0000      Z:     1.9796     Total:     1.9796


*** tstop() called on bp1-compute00155.data.bp.acrc.priv at Tue Apr 20 11:04:18 2021
Module time:
	user time   =      84.74 seconds =       1.41 minutes
	system time =       2.39 seconds =       0.04 minutes
	total time  =          3 seconds =       0.05 minutes
Total time:
	user time   =    1074.15 seconds =      17.90 minutes
	system time =      36.15 seconds =       0.60 minutes
	total time  =         49 seconds =       0.82 minutes

         ----------------------------------------------------------
                                   FINDIF
                     R. A. King and Jonathon Misiewicz
         ---------------------------------------------------------

  Computing second-derivative from energies using projected, 
  symmetry-adapted, cartesian coordinates.

  3 energies passed in, including the reference geometry.
    Using 3-point formula.
    Energy without displacement: -436.1738178634
    Check energies below for precision!
    0: -1 :      -436.1738169973
    0: 1  :      -436.1738169643

-------------------------------------------------------------


  ==> Harmonic Vibrational Analysis <==

  non-mass-weighted Hessian:       Symmetric? True   Hermitian? True   Lin Dep Dim?  5 (0)
  projection of translations (True) and rotations (True) removed 5 degrees of freedom (5)
  total projector:                 Symmetric? True   Hermitian? True   Lin Dep Dim?  5 (5)
  mass-weighted Hessian:           Symmetric? True   Hermitian? True   Lin Dep Dim?  5 (0)
  pre-proj  low-frequency mode:    0.0000  [cm^-1]
  pre-proj  low-frequency mode:    0.0000  [cm^-1]
  pre-proj  low-frequency mode:    0.0000  [cm^-1]
  pre-proj  low-frequency mode:    0.0000  [cm^-1]
  pre-proj  low-frequency mode:    0.0000  [cm^-1]
  pre-proj  all modes:['0.0000' '0.0000' '0.0000' '0.0000' '0.0000' '1366.0028']
  projected mass-weighted Hessian: Symmetric? True   Hermitian? True   Lin Dep Dim?  5 (5)
  post-proj low-frequency mode:    0.0000i [cm^-1] (TR)
  post-proj low-frequency mode:    0.0000  [cm^-1] (TR)
  post-proj low-frequency mode:    0.0000  [cm^-1] (TR)
  post-proj low-frequency mode:    0.0000  [cm^-1] (TR)
  post-proj low-frequency mode:    0.0000  [cm^-1] (TR)
  post-proj  all modes:['0.0000i' '0.0000' '0.0000' '0.0000' '0.0000' '1366.0028']

  Vibration                       6           
  Freq [cm^-1]                1366.0028       
  Irrep                           A1          
  Reduced mass [u]             14.4661        
  Force const [mDyne/A]        15.9039        
  Turning point v=0 [a0]        0.0781        
  RMS dev v=0 [a0 u^1/2]        0.2099        
  Char temp [K]               1965.3739       
  ----------------------------------------------------------------------------------
      1   C                0.00  0.00  0.94   
      2   S                0.00  0.00 -0.35   

  ==> Thermochemistry Components <==

  Entropy, S
    Electronic S            0.000 [cal/(mol K)]        0.000 [J/(mol K)]       0.00000000 [mEh/K] (multiplicity = 1)
    Translational S        37.269 [cal/(mol K)]      155.933 [J/(mol K)]       0.05939180 [mEh/K] (mol. weight = 43.9721 [u], P = 101325.00 [Pa])
    Rotational S           12.948 [cal/(mol K)]       54.173 [J/(mol K)]       0.02063358 [mEh/K] (symmetry no. = 1)
    Vibrational S           0.021 [cal/(mol K)]        0.087 [J/(mol K)]       0.00003301 [mEh/K]
  Total S                  50.237 [cal/(mol K)]      210.193 [J/(mol K)]       0.08005839 [mEh/K]
  Correction S              0.000 [cal/(mol K)]        0.000 [J/(mol K)]       0.00000000 [mEh/K]

  Constant volume heat capacity, Cv
    Electronic Cv           0.000 [cal/(mol K)]        0.000 [J/(mol K)]       0.00000000 [mEh/K]
    Translational Cv        2.981 [cal/(mol K)]       12.472 [J/(mol K)]       0.00475022 [mEh/K]
    Rotational Cv           1.987 [cal/(mol K)]        8.314 [J/(mol K)]       0.00316681 [mEh/K]
    Vibrational Cv          0.119 [cal/(mol K)]        0.497 [J/(mol K)]       0.00018924 [mEh/K]
  Total Cv                  5.087 [cal/(mol K)]       21.283 [J/(mol K)]       0.00810627 [mEh/K]
  Correction Cv             0.000 [cal/(mol K)]        0.000 [J/(mol K)]       0.00000000 [mEh/K]

  Constant pressure heat capacity, Cp
    Electronic Cp           0.000 [cal/(mol K)]        0.000 [J/(mol K)]       0.00000000 [mEh/K]
    Translational Cp        4.968 [cal/(mol K)]       20.786 [J/(mol K)]       0.00791703 [mEh/K]
    Rotational Cp           1.987 [cal/(mol K)]        8.314 [J/(mol K)]       0.00316681 [mEh/K]
    Vibrational Cp          0.119 [cal/(mol K)]        0.497 [J/(mol K)]       0.00018924 [mEh/K]
  Total Cp                  7.074 [cal/(mol K)]       29.597 [J/(mol K)]       0.01127308 [mEh/K]
  Correction Cp             0.000 [cal/(mol K)]        0.000 [J/(mol K)]       0.00000000 [mEh/K]

  ==> Thermochemistry Energy Analysis <==

  Raw electronic energy, E0
  Total E0, Electronic energy at well bottom at 0 [K]                 -436.17381786 [Eh]

  Zero-point energy, ZPE_vib = Sum_i nu_i / 2
    Electronic ZPE          0.000 [kcal/mol]        0.000 [kJ/mol]       0.00000000 [Eh]
    Translational ZPE       0.000 [kcal/mol]        0.000 [kJ/mol]       0.00000000 [Eh]
    Rotational ZPE          0.000 [kcal/mol]        0.000 [kJ/mol]       0.00000000 [Eh]
    Vibrational ZPE         1.953 [kcal/mol]        8.171 [kJ/mol]       0.00311198 [Eh]         683.001 [cm^-1]
  Correction ZPE            1.953 [kcal/mol]        8.171 [kJ/mol]       0.00311198 [Eh]         683.001 [cm^-1]
  Total ZPE, Electronic energy at 0 [K]                               -436.17070588 [Eh]

  Thermal Energy, E (includes ZPE)
    Electronic E            0.000 [kcal/mol]        0.000 [kJ/mol]       0.00000000 [Eh]
    Translational E         0.889 [kcal/mol]        3.718 [kJ/mol]       0.00141628 [Eh]
    Rotational E            0.592 [kcal/mol]        2.479 [kJ/mol]       0.00094418 [Eh]
    Vibrational E           1.958 [kcal/mol]        8.193 [kJ/mol]       0.00312053 [Eh]
  Correction E              3.439 [kcal/mol]       14.390 [kJ/mol]       0.00548099 [Eh]
  Total E, Electronic energy at  298.15 [K]                           -436.16833687 [Eh]

  Enthalpy, H_trans = E_trans + k_B * T
    Electronic H            0.000 [kcal/mol]        0.000 [kJ/mol]       0.00000000 [Eh]
    Translational H         1.481 [kcal/mol]        6.197 [kJ/mol]       0.00236046 [Eh]
    Rotational H            0.592 [kcal/mol]        2.479 [kJ/mol]       0.00094418 [Eh]
    Vibrational H           1.958 [kcal/mol]        8.193 [kJ/mol]       0.00312053 [Eh]
  Correction H              4.032 [kcal/mol]       16.869 [kJ/mol]       0.00642518 [Eh]
  Total H, Enthalpy at  298.15 [K]                                    -436.16739269 [Eh]

  Gibbs free energy, G = H - T * S
    Electronic G            0.000 [kcal/mol]        0.000 [kJ/mol]       0.00000000 [Eh]
    Translational G        -9.631 [kcal/mol]      -40.294 [kJ/mol]      -0.01534720 [Eh]
    Rotational G           -3.268 [kcal/mol]      -13.673 [kJ/mol]      -0.00520772 [Eh]
    Vibrational G           1.952 [kcal/mol]        8.167 [kJ/mol]       0.00311069 [Eh]
  Correction G            -10.946 [kcal/mol]      -45.800 [kJ/mol]      -0.01744423 [Eh]
  Total G, Free enthalpy at  298.15 [K]                               -436.19126209 [Eh]

    Psi4 stopped on: Tuesday, 20 April 2021 11:04AM
    Psi4 wall time for execution: 0:00:49.54

*** Psi4 exiting successfully. Buy a developer a beer!
