
    -----------------------------------------------------------------------
          Psi4: An Open-Source Ab Initio Electronic Structure Package
                               Psi4 1.3.2 release

                         Git: Rev {HEAD} ecbda83 


    R. M. Parrish, L. A. Burns, D. G. A. Smith, A. C. Simmonett,
    A. E. DePrince III, E. G. Hohenstein, U. Bozkaya, A. Yu. Sokolov,
    R. Di Remigio, R. M. Richard, J. F. Gonthier, A. M. James,
    H. R. McAlexander, A. Kumar, M. Saitow, X. Wang, B. P. Pritchard,
    P. Verma, H. F. Schaefer III, K. Patkowski, R. A. King, E. F. Valeev,
    F. A. Evangelista, J. M. Turney, T. D. Crawford, and C. D. Sherrill,
    J. Chem. Theory Comput. 13(7) pp 3185--3197 (2017).
    (doi: 10.1021/acs.jctc.7b00174)


                         Additional Contributions by
    P. Kraus, H. Kruse, M. H. Lechner, M. C. Schieber, R. A. Shaw,
    A. Alenaizan, R. Galvelis, Z. L. Glick, S. Lehtola, and J. P. Misiewicz

    -----------------------------------------------------------------------


    Psi4 started on: Tuesday, 20 April 2021 11:08AM

    Process ID: 13595
    Host:       bp1-compute00191.data.bp.acrc.priv
    PSIDATADIR: /work/zw18965/.conda/envs/p4env/share/psi4
    Memory:     500.0 MiB
    Threads:    24
    
  ==> Input File <==

--------------------------------------------------------------------------
memory 144 GB

molecule {
0 1
F     0.463464000728   0.000000000000   0.000000000000
H    -0.463464000728   0.000000000000   0.000000000000}

set basis aug-cc-pV(Q+d)Z
 
optimize("wB97X-V")
frequencies("wB97X-V")--------------------------------------------------------------------------

  Memory set to 134.110 GiB by Python driver.
gradient() will perform gradient computation by finite difference of analytic energies.

         ----------------------------------------------------------
                                   FINDIF
                     R. A. King and Jonathon Misiewicz
         ---------------------------------------------------------

  Using finite-differences of energies to determine gradients.
    Generating geometries for use with 3-point formula.
    Displacement size will be 5.00e-03.
    Number of atoms is 2.
    Number of symmetric SALCs is 1.
    Translations projected? 1. Rotations projected? 1.
    Number of geometries (including reference) is 3.

  //>>>>>>>>>>>>>>>>>>>>>>>>>>>>>>>>>>>//
  //    Loading displacement 1 of 3    //
  //<<<<<<<<<<<<<<<<<<<<<<<<<<<<<<<<<<<//

*** tstart() called on bp1-compute00191.data.bp.acrc.priv
*** at Tue Apr 20 11:08:41 2021

   => Loading Basis Set <=

    Name: AUG-CC-PV(Q+D)Z
    Role: ORBITAL
    Keyword: BASIS
    atoms 1 entry F          line   499 file /work/zw18965/.conda/envs/p4env/share/psi4/basis/aug-cc-pv_qpd_z.gbs 
    atoms 2 entry H          line    56 file /work/zw18965/.conda/envs/p4env/share/psi4/basis/aug-cc-pv_qpd_z.gbs 


         ---------------------------------------------------------
                                   SCF
               by Justin Turney, Rob Parrish, Andy Simmonett
                          and Daniel G. A. Smith
                              RKS Reference
                       24 Threads, 137329 MiB Core
         ---------------------------------------------------------

  ==> Geometry <==

    Molecular point group: c2v
    Full point group: C_inf_v

    Geometry (in Angstrom), charge = 0, multiplicity = 1:

       Center              X                  Y                   Z               Mass       
    ------------   -----------------  -----------------  -----------------  -----------------
         F            0.000000000000     0.000000000000     0.046694521018    18.998403162730
         H            0.000000000000     0.000000000000    -0.880233480438     1.007825032230

  Running in c2v symmetry.

  Rotational constants: A = ************  B =     20.50064  C =     20.50064 [cm^-1]
  Rotational constants: A = ************  B = 614593.79748  C = 614593.79748 [MHz]
  Nuclear repulsion =    5.138041885183113

  Charge       = 0
  Multiplicity = 1
  Electrons    = 10
  Nalpha       = 5
  Nbeta        = 5

  ==> Algorithm <==

  SCF Algorithm Type is DF.
  DIIS enabled.
  MOM disabled.
  Fractional occupation disabled.
  Guess Type is SAD.
  Energy threshold   = 1.00e-08
  Density threshold  = 1.00e-08
  Integral threshold = 0.00e+00

  ==> Primary Basis <==

  Basis Set: AUG-CC-PV(Q+D)Z
    Blend: AUG-CC-PV(Q+D)Z
    Number of shells: 34
    Number of basis function: 126
    Number of Cartesian functions: 160
    Spherical Harmonics?: true
    Max angular momentum: 4

  ==> DFT Potential <==

   => Composite Functional: WB97X-V <= 

    wB97X-V Hyb-GGA Exchange-Correlation Functional

    N. Mardirossian and M. Head-Gordon, Phys. Chem. Chem. Phys. 16, 9904 (2014)

    Deriv               =              1
    GGA                 =           TRUE
    Meta                =          FALSE

    Exchange Hybrid     =           TRUE
    MP2 Hybrid          =          FALSE

   => Exchange-Correlation Functionals <=

    1.0000   wB97X-V range-separated functional

   => Exact (HF) Exchange <=

    0.8330            HF,LR [omega = 0.3000]
    0.1670               HF 

   => VV10 Non-Local Parameters <=

    VV10 B              =     6.0000E+00
    VV10 C              =     1.0000E-02

   => Molecular Quadrature <=

    Radial Scheme          =       TREUTLER
    Pruning Scheme         =           FLAT
    Nuclear Scheme         =       TREUTLER

    BS radius alpha        =              1
    Pruning alpha          =              1
    Radial Points          =             75
    Spherical Points       =            302
    Total Points           =          45300
    Total Blocks           =            415
    Max Points             =            254
    Max Functions          =            126

   => Loading Basis Set <=

    Name: (AUG-CC-PV(Q+D)Z AUX)
    Role: JKFIT
    Keyword: DF_BASIS_SCF
    atoms 1 entry F          line   388 file /work/zw18965/.conda/envs/p4env/share/psi4/basis/aug-cc-pvqz-jkfit.gbs 
    atoms 2 entry H          line    70 file /work/zw18965/.conda/envs/p4env/share/psi4/basis/aug-cc-pvqz-jkfit.gbs 

  ==> Pre-Iterations <==

   -------------------------------------------------------
    Irrep   Nso     Nmo     Nalpha   Nbeta   Ndocc  Nsocc
   -------------------------------------------------------
     A1        50      50       0       0       0       0
     A2        16      16       0       0       0       0
     B1        30      30       0       0       0       0
     B2        30      30       0       0       0       0
   -------------------------------------------------------
    Total     126     126       5       5       5       0
   -------------------------------------------------------

  ==> Integral Setup <==

  ==> DiskDFJK: Density-Fitted J/K Matrices <==

    J tasked:                  Yes
    K tasked:                  Yes
    wK tasked:                 Yes
    Omega:               3.000E-01
    OpenMP threads:             24
    Integrals threads:          24
    Memory [MiB]:           102841
    Algorithm:                Core
    Integral Cache:           NONE
    Schwarz Cutoff:          1E-12
    Fitting Condition:       1E-10

   => Auxiliary Basis Set <=

  Basis Set: (AUG-CC-PV(Q+D)Z AUX)
    Blend: AUG-CC-PVQZ-JKFIT
    Number of shells: 52
    Number of basis function: 218
    Number of Cartesian functions: 299
    Spherical Harmonics?: true
    Max angular momentum: 5

  Cached 100.0% of DFT collocation blocks in 0.152 [GiB].

  Minimum eigenvalue in the overlap matrix is 1.1850591798E-04.
  Using Symmetric Orthogonalization.

  SCF Guess: Superposition of Atomic Densities via on-the-fly atomic UHF.

  ==> Iterations <==

                           Total Energy        Delta E     RMS |[F,P]|

   @DF-RKS iter SAD:  -100.10732637362977   -1.00107e+02   0.00000e+00 
   @DF-RKS iter   1:  -100.40743297741781   -3.00107e-01   5.97254e-03 DIIS
   @DF-RKS iter   2:  -100.40445958939949    2.97339e-03   6.90529e-03 DIIS
   @DF-RKS iter   3:  -100.45908225619343   -5.46227e-02   2.41473e-04 DIIS
   @DF-RKS iter   4:  -100.45915645114280   -7.41949e-05   5.46081e-05 DIIS
   @DF-RKS iter   5:  -100.45916156903171   -5.11789e-06   5.79517e-06 DIIS
   @DF-RKS iter   6:  -100.45916166386576   -9.48340e-08   7.78607e-07 DIIS
   @DF-RKS iter   7:  -100.45916166657584   -2.71008e-09   1.08426e-07 DIIS
   @DF-RKS iter   8:  -100.45916166663372   -5.78808e-11   1.23948e-08 DIIS
   @DF-RKS iter   9:  -100.45916166663436   -6.39488e-13   1.50939e-09 DIIS
  Energy and wave function converged.


  ==> Post-Iterations <==

    Orbital Energies [Eh]
    ---------------------

    Doubly Occupied:                                                      

       1A1   -24.755171     2A1    -1.329816     3A1    -0.665929  
       1B1    -0.531368     1B2    -0.531368  

    Virtual:                                                              

       4A1     0.026930     5A1     0.111730     6A1     0.163653  
       2B1     0.168076     2B2     0.168076     3B2     0.223306  
       3B1     0.223306     7A1     0.237136     8A1     0.333919  
       9A1     0.522214     1A2     0.552007    10A1     0.552007  
       4B2     0.581194     4B1     0.581194    11A1     0.651129  
      12A1     0.729802     5B2     0.744202     5B1     0.744202  
       2A2     0.747269    13A1     0.747269     6B1     0.789592  
       6B2     0.789592    14A1     0.879586     7B2     1.192355  
       7B1     1.192355    15A1     1.363753    16A1     1.454843  
       8B1     1.470869     8B2     1.470869    17A1     1.612859  
       3A2     1.662402    18A1     1.662402     9B2     1.748999  
       9B1     1.748999     4A2     1.915550    19A1     1.915550  
      10B2     1.950663    10B1     1.950663    20A1     2.003360  
      11B2     2.014039    11B1     2.014039    21A1     2.050037  
       5A2     2.050038    22A1     2.097832    12B2     2.400166  
      12B1     2.400166    13B2     2.683218    13B1     2.683218  
      23A1     2.694818    24A1     2.977755    14B2     3.057415  
      14B1     3.057415     6A2     3.082463    25A1     3.082465  
      26A1     3.687249    15B2     4.378963    15B1     4.378963  
      27A1     4.379824    28A1     4.534501     7A2     4.534502  
      16B2     4.685249    16B1     4.685249    29A1     4.973144  
      30A1     5.052823     8A2     5.052825    17B2     5.184396  
      17B1     5.184396    18B2     5.289230    18B1     5.289230  
      31A1     5.355261     9A2     5.355267    32A1     5.499056  
      19B2     5.616076    19B1     5.616076    10A2     5.765690  
      33A1     5.765691    34A1     5.912825    20B1     6.180940  
      20B2     6.180940    35A1     6.482997    21B2     6.596223  
      21B1     6.596223    22B2     7.675869    22B1     7.675869  
      11A2     7.803701    36A1     7.803711    37A1     7.831040  
      38A1     8.413080    39A1     8.466988    12A2     8.466994  
      23B1     8.597924    23B2     8.597924    40A1    10.300011  
      24B1    10.502911    24B2    10.502911    41A1    12.005700  
      13A2    13.190115    42A1    13.190124    25B2    13.286561  
      25B1    13.286561    26B1    13.310466    26B2    13.310466  
      43A1    13.544152    14A2    13.544159    27B1    14.046593  
      27B2    14.046593    44A1    14.071873    45A1    14.571235  
      28B2    15.305134    28B1    15.305134    15A2    15.463735  
      46A1    15.463740    29B2    15.899926    29B1    15.899926  
      47A1    16.251993    16A2    16.251999    48A1    16.690175  
      30B1    17.314710    30B2    17.314710    49A1    19.582919  
      50A1    54.887157  

    Final Occupation by Irrep:
             A1    A2    B1    B2 
    DOCC [     3,    0,    1,    1 ]

  @DF-RKS Final Energy:  -100.45916166663436

   => Energetics <=

    Nuclear Repulsion Energy =              5.1380418851831129
    One-Electron Energy =                -150.3637641845670032
    Two-Electron Energy =                  52.4737885598198446
    DFT Exchange-Correlation Energy =      -7.7506132221892212
    Empirical Dispersion Energy =           0.0000000000000000
    VV10 Nonlocal Energy =                  0.0433852951189282
    Total Energy =                       -100.4591616666343583

Computation Completed


Properties will be evaluated at   0.000000,   0.000000,   0.000000 [a0]

Properties computed using the SCF density matrix

  Nuclear Dipole Moment: [e a0]
     X:     0.0000      Y:     0.0000      Z:    -0.8692

  Electronic Dipole Moment: [e a0]
     X:     0.0000      Y:     0.0000      Z:     0.1541

  Dipole Moment: [e a0]
     X:     0.0000      Y:     0.0000      Z:    -0.7151     Total:     0.7151

  Dipole Moment: [D]
     X:     0.0000      Y:     0.0000      Z:    -1.8176     Total:     1.8176


*** tstop() called on bp1-compute00191.data.bp.acrc.priv at Tue Apr 20 11:08:44 2021
Module time:
	user time   =      62.19 seconds =       1.04 minutes
	system time =       2.35 seconds =       0.04 minutes
	total time  =          3 seconds =       0.05 minutes
Total time:
	user time   =      62.19 seconds =       1.04 minutes
	system time =       2.35 seconds =       0.04 minutes
	total time  =          3 seconds =       0.05 minutes

  //>>>>>>>>>>>>>>>>>>>>>>>>>>>>>>>>>>>//
  //    Loading displacement 2 of 3    //
  //<<<<<<<<<<<<<<<<<<<<<<<<<<<<<<<<<<<//

*** tstart() called on bp1-compute00191.data.bp.acrc.priv
*** at Tue Apr 20 11:08:44 2021

   => Loading Basis Set <=

    Name: AUG-CC-PV(Q+D)Z
    Role: ORBITAL
    Keyword: BASIS
    atoms 1 entry F          line   499 file /work/zw18965/.conda/envs/p4env/share/psi4/basis/aug-cc-pv_qpd_z.gbs 
    atoms 2 entry H          line    56 file /work/zw18965/.conda/envs/p4env/share/psi4/basis/aug-cc-pv_qpd_z.gbs 


         ---------------------------------------------------------
                                   SCF
               by Justin Turney, Rob Parrish, Andy Simmonett
                          and Daniel G. A. Smith
                              RKS Reference
                       24 Threads, 137329 MiB Core
         ---------------------------------------------------------

  ==> Geometry <==

    Molecular point group: c2v
    Full point group: C_inf_v

    Geometry (in Angstrom), charge = 0, multiplicity = 1:

       Center              X                  Y                   Z               Mass       
    ------------   -----------------  -----------------  -----------------  -----------------
         F            0.000000000000     0.000000000000     0.046558275398    18.998403162730
         H            0.000000000000     0.000000000000    -0.877665128660     1.007825032230

  Running in c2v symmetry.

  Rotational constants: A = ************  B =     20.62080  C =     20.62080 [cm^-1]
  Rotational constants: A = ************  B = 618196.08868  C = 618196.08868 [MHz]
  Nuclear repulsion =    5.153077573147348

  Charge       = 0
  Multiplicity = 1
  Electrons    = 10
  Nalpha       = 5
  Nbeta        = 5

  ==> Algorithm <==

  SCF Algorithm Type is DF.
  DIIS enabled.
  MOM disabled.
  Fractional occupation disabled.
  Guess Type is SAD.
  Energy threshold   = 1.00e-08
  Density threshold  = 1.00e-08
  Integral threshold = 0.00e+00

  ==> Primary Basis <==

  Basis Set: AUG-CC-PV(Q+D)Z
    Blend: AUG-CC-PV(Q+D)Z
    Number of shells: 34
    Number of basis function: 126
    Number of Cartesian functions: 160
    Spherical Harmonics?: true
    Max angular momentum: 4

  ==> DFT Potential <==

   => Composite Functional: WB97X-V <= 

    wB97X-V Hyb-GGA Exchange-Correlation Functional

    N. Mardirossian and M. Head-Gordon, Phys. Chem. Chem. Phys. 16, 9904 (2014)

    Deriv               =              1
    GGA                 =           TRUE
    Meta                =          FALSE

    Exchange Hybrid     =           TRUE
    MP2 Hybrid          =          FALSE

   => Exchange-Correlation Functionals <=

    1.0000   wB97X-V range-separated functional

   => Exact (HF) Exchange <=

    0.8330            HF,LR [omega = 0.3000]
    0.1670               HF 

   => VV10 Non-Local Parameters <=

    VV10 B              =     6.0000E+00
    VV10 C              =     1.0000E-02

   => Molecular Quadrature <=

    Radial Scheme          =       TREUTLER
    Pruning Scheme         =           FLAT
    Nuclear Scheme         =       TREUTLER

    BS radius alpha        =              1
    Pruning alpha          =              1
    Radial Points          =             75
    Spherical Points       =            302
    Total Points           =          45300
    Total Blocks           =            415
    Max Points             =            255
    Max Functions          =            126

   => Loading Basis Set <=

    Name: (AUG-CC-PV(Q+D)Z AUX)
    Role: JKFIT
    Keyword: DF_BASIS_SCF
    atoms 1 entry F          line   388 file /work/zw18965/.conda/envs/p4env/share/psi4/basis/aug-cc-pvqz-jkfit.gbs 
    atoms 2 entry H          line    70 file /work/zw18965/.conda/envs/p4env/share/psi4/basis/aug-cc-pvqz-jkfit.gbs 

  ==> Pre-Iterations <==

   -------------------------------------------------------
    Irrep   Nso     Nmo     Nalpha   Nbeta   Ndocc  Nsocc
   -------------------------------------------------------
     A1        50      50       0       0       0       0
     A2        16      16       0       0       0       0
     B1        30      30       0       0       0       0
     B2        30      30       0       0       0       0
   -------------------------------------------------------
    Total     126     126       5       5       5       0
   -------------------------------------------------------

  ==> Integral Setup <==

  ==> DiskDFJK: Density-Fitted J/K Matrices <==

    J tasked:                  Yes
    K tasked:                  Yes
    wK tasked:                 Yes
    Omega:               3.000E-01
    OpenMP threads:             24
    Integrals threads:          24
    Memory [MiB]:           102841
    Algorithm:                Core
    Integral Cache:           NONE
    Schwarz Cutoff:          1E-12
    Fitting Condition:       1E-10

   => Auxiliary Basis Set <=

  Basis Set: (AUG-CC-PV(Q+D)Z AUX)
    Blend: AUG-CC-PVQZ-JKFIT
    Number of shells: 52
    Number of basis function: 218
    Number of Cartesian functions: 299
    Spherical Harmonics?: true
    Max angular momentum: 5

  Cached 100.0% of DFT collocation blocks in 0.152 [GiB].

  Minimum eigenvalue in the overlap matrix is 1.1739432056E-04.
  Using Symmetric Orthogonalization.

  SCF Guess: Superposition of Atomic Densities via on-the-fly atomic UHF.

  ==> Iterations <==

                           Total Energy        Delta E     RMS |[F,P]|

   @DF-RKS iter SAD:  -100.10859895744892   -1.00109e+02   0.00000e+00 
   @DF-RKS iter   1:  -100.40753443320651   -2.98935e-01   5.97444e-03 DIIS
   @DF-RKS iter   2:  -100.40472865175843    2.80578e-03   6.89363e-03 DIIS
   @DF-RKS iter   3:  -100.45911275449073   -5.43841e-02   2.40189e-04 DIIS
   @DF-RKS iter   4:  -100.45918627373554   -7.35192e-05   5.41909e-05 DIIS
   @DF-RKS iter   5:  -100.45919131214291   -5.03841e-06   5.75904e-06 DIIS
   @DF-RKS iter   6:  -100.45919140541778   -9.32749e-08   7.68985e-07 DIIS
   @DF-RKS iter   7:  -100.45919140805057   -2.63279e-09   1.06678e-07 DIIS
   @DF-RKS iter   8:  -100.45919140810558   -5.50102e-11   1.20307e-08 DIIS
   @DF-RKS iter   9:  -100.45919140810642   -8.38440e-13   1.45833e-09 DIIS
  Energy and wave function converged.


  ==> Post-Iterations <==

    Orbital Energies [Eh]
    ---------------------

    Doubly Occupied:                                                      

       1A1   -24.755117     2A1    -1.330669     3A1    -0.666592  
       1B2    -0.531616     1B1    -0.531616  

    Virtual:                                                              

       4A1     0.027047     5A1     0.111874     6A1     0.163991  
       2B2     0.168049     2B1     0.168049     3B1     0.223360  
       3B2     0.223360     7A1     0.237116     8A1     0.334343  
       9A1     0.523143     1A2     0.552052    10A1     0.552052  
       4B1     0.581258     4B2     0.581258    11A1     0.651337  
      12A1     0.729869     5B2     0.744081     5B1     0.744081  
       2A2     0.747167    13A1     0.747168     6B2     0.789721  
       6B1     0.789721    14A1     0.879097     7B1     1.192900  
       7B2     1.192900    15A1     1.365583    16A1     1.455695  
       8B1     1.470907     8B2     1.470907    17A1     1.612441  
       3A2     1.662716    18A1     1.662716     9B1     1.748627  
       9B2     1.748627     4A2     1.914659    19A1     1.914659  
      10B1     1.951277    10B2     1.951277    20A1     2.004152  
      11B1     2.014774    11B2     2.014774    21A1     2.050321  
       5A2     2.050323    22A1     2.096169    12B1     2.400047  
      12B2     2.400047    13B1     2.682344    13B2     2.682344  
      23A1     2.697157    24A1     2.980212    14B1     3.060785  
      14B2     3.060785     6A2     3.086744    25A1     3.086746  
      26A1     3.686276    15B1     4.382953    15B2     4.382953  
      27A1     4.383380    28A1     4.534312     7A2     4.534312  
      16B2     4.685996    16B1     4.685996    29A1     4.972500  
      30A1     5.054890     8A2     5.054892    17B1     5.184518  
      17B2     5.184518    18B1     5.289481    18B2     5.289481  
      31A1     5.354437     9A2     5.354443    32A1     5.498290  
      19B1     5.617890    19B2     5.617890    10A2     5.767680  
      33A1     5.767681    34A1     5.909916    20B1     6.180462  
      20B2     6.180462    35A1     6.492331    21B2     6.599526  
      21B1     6.599526    22B1     7.677571    22B2     7.677571  
      11A2     7.808880    36A1     7.808889    37A1     7.838912  
      38A1     8.423923    39A1     8.474859    12A2     8.474865  
      23B2     8.601454    23B1     8.601454    40A1    10.314442  
      24B1    10.520897    24B2    10.520897    41A1    11.999628  
      13A2    13.189896    42A1    13.189906    25B1    13.286813  
      25B2    13.286813    26B1    13.311464    26B2    13.311464  
      43A1    13.546810    14A2    13.546817    27B1    14.052240  
      27B2    14.052240    44A1    14.074175    45A1    14.579412  
      28B1    15.305367    28B2    15.305367    15A2    15.463453  
      46A1    15.463458    29B1    15.898993    29B2    15.898993  
      47A1    16.253581    16A2    16.253587    48A1    16.704422  
      30B2    17.336000    30B1    17.336000    49A1    19.608340  
      50A1    54.907334  

    Final Occupation by Irrep:
             A1    A2    B1    B2 
    DOCC [     3,    0,    1,    1 ]

  @DF-RKS Final Energy:  -100.45919140810642

   => Energetics <=

    Nuclear Repulsion Energy =              5.1530775731473479
    One-Electron Energy =                -150.3892801573888960
    Two-Electron Energy =                  52.4853148027009766
    DFT Exchange-Correlation Energy =      -7.7516901553543445
    Empirical Dispersion Energy =           0.0000000000000000
    VV10 Nonlocal Energy =                  0.0433865287884963
    Total Energy =                       -100.4591914081064061

Computation Completed


Properties will be evaluated at   0.000000,   0.000000,   0.000000 [a0]

Properties computed using the SCF density matrix

  Nuclear Dipole Moment: [e a0]
     X:     0.0000      Y:     0.0000      Z:    -0.8667

  Electronic Dipole Moment: [e a0]
     X:     0.0000      Y:     0.0000      Z:     0.1533

  Dipole Moment: [e a0]
     X:     0.0000      Y:     0.0000      Z:    -0.7134     Total:     0.7134

  Dipole Moment: [D]
     X:     0.0000      Y:     0.0000      Z:    -1.8132     Total:     1.8132


*** tstop() called on bp1-compute00191.data.bp.acrc.priv at Tue Apr 20 11:08:47 2021
Module time:
	user time   =      62.10 seconds =       1.03 minutes
	system time =       2.31 seconds =       0.04 minutes
	total time  =          3 seconds =       0.05 minutes
Total time:
	user time   =     124.47 seconds =       2.07 minutes
	system time =       4.67 seconds =       0.08 minutes
	total time  =          6 seconds =       0.10 minutes

  //>>>>>>>>>>>>>>>>>>>>>>>>>>>>>>>>>>>//
  //    Loading displacement 3 of 3    //
  //<<<<<<<<<<<<<<<<<<<<<<<<<<<<<<<<<<<//

*** tstart() called on bp1-compute00191.data.bp.acrc.priv
*** at Tue Apr 20 11:08:47 2021

   => Loading Basis Set <=

    Name: AUG-CC-PV(Q+D)Z
    Role: ORBITAL
    Keyword: BASIS
    atoms 1 entry F          line   499 file /work/zw18965/.conda/envs/p4env/share/psi4/basis/aug-cc-pv_qpd_z.gbs 
    atoms 2 entry H          line    56 file /work/zw18965/.conda/envs/p4env/share/psi4/basis/aug-cc-pv_qpd_z.gbs 


         ---------------------------------------------------------
                                   SCF
               by Justin Turney, Rob Parrish, Andy Simmonett
                          and Daniel G. A. Smith
                              RKS Reference
                       24 Threads, 137329 MiB Core
         ---------------------------------------------------------

  ==> Geometry <==

    Molecular point group: c2v
    Full point group: C_inf_v

    Geometry (in Angstrom), charge = 0, multiplicity = 1:

       Center              X                  Y                   Z               Mass       
    ------------   -----------------  -----------------  -----------------  -----------------
         F            0.000000000000     0.000000000000     0.046830766638    18.998403162730
         H            0.000000000000     0.000000000000    -0.882801832216     1.007825032230

  Running in c2v symmetry.

  Rotational constants: A = ************  B =     20.38153  C =     20.38153 [cm^-1]
  Rotational constants: A = ************  B = 611022.90117  C = 611022.90117 [MHz]
  Nuclear repulsion =    5.123093684431766

  Charge       = 0
  Multiplicity = 1
  Electrons    = 10
  Nalpha       = 5
  Nbeta        = 5

  ==> Algorithm <==

  SCF Algorithm Type is DF.
  DIIS enabled.
  MOM disabled.
  Fractional occupation disabled.
  Guess Type is SAD.
  Energy threshold   = 1.00e-08
  Density threshold  = 1.00e-08
  Integral threshold = 0.00e+00

  ==> Primary Basis <==

  Basis Set: AUG-CC-PV(Q+D)Z
    Blend: AUG-CC-PV(Q+D)Z
    Number of shells: 34
    Number of basis function: 126
    Number of Cartesian functions: 160
    Spherical Harmonics?: true
    Max angular momentum: 4

  ==> DFT Potential <==

   => Composite Functional: WB97X-V <= 

    wB97X-V Hyb-GGA Exchange-Correlation Functional

    N. Mardirossian and M. Head-Gordon, Phys. Chem. Chem. Phys. 16, 9904 (2014)

    Deriv               =              1
    GGA                 =           TRUE
    Meta                =          FALSE

    Exchange Hybrid     =           TRUE
    MP2 Hybrid          =          FALSE

   => Exchange-Correlation Functionals <=

    1.0000   wB97X-V range-separated functional

   => Exact (HF) Exchange <=

    0.8330            HF,LR [omega = 0.3000]
    0.1670               HF 

   => VV10 Non-Local Parameters <=

    VV10 B              =     6.0000E+00
    VV10 C              =     1.0000E-02

   => Molecular Quadrature <=

    Radial Scheme          =       TREUTLER
    Pruning Scheme         =           FLAT
    Nuclear Scheme         =       TREUTLER

    BS radius alpha        =              1
    Pruning alpha          =              1
    Radial Points          =             75
    Spherical Points       =            302
    Total Points           =          45300
    Total Blocks           =            415
    Max Points             =            255
    Max Functions          =            126

   => Loading Basis Set <=

    Name: (AUG-CC-PV(Q+D)Z AUX)
    Role: JKFIT
    Keyword: DF_BASIS_SCF
    atoms 1 entry F          line   388 file /work/zw18965/.conda/envs/p4env/share/psi4/basis/aug-cc-pvqz-jkfit.gbs 
    atoms 2 entry H          line    70 file /work/zw18965/.conda/envs/p4env/share/psi4/basis/aug-cc-pvqz-jkfit.gbs 

  ==> Pre-Iterations <==

   -------------------------------------------------------
    Irrep   Nso     Nmo     Nalpha   Nbeta   Ndocc  Nsocc
   -------------------------------------------------------
     A1        50      50       0       0       0       0
     A2        16      16       0       0       0       0
     B1        30      30       0       0       0       0
     B2        30      30       0       0       0       0
   -------------------------------------------------------
    Total     126     126       5       5       5       0
   -------------------------------------------------------

  ==> Integral Setup <==

  ==> DiskDFJK: Density-Fitted J/K Matrices <==

    J tasked:                  Yes
    K tasked:                  Yes
    wK tasked:                 Yes
    Omega:               3.000E-01
    OpenMP threads:             24
    Integrals threads:          24
    Memory [MiB]:           102841
    Algorithm:                Core
    Integral Cache:           NONE
    Schwarz Cutoff:          1E-12
    Fitting Condition:       1E-10

   => Auxiliary Basis Set <=

  Basis Set: (AUG-CC-PV(Q+D)Z AUX)
    Blend: AUG-CC-PVQZ-JKFIT
    Number of shells: 52
    Number of basis function: 218
    Number of Cartesian functions: 299
    Spherical Harmonics?: true
    Max angular momentum: 5

  Cached 100.0% of DFT collocation blocks in 0.152 [GiB].

  Minimum eigenvalue in the overlap matrix is 1.1962466136E-04.
  Using Symmetric Orthogonalization.

  SCF Guess: Superposition of Atomic Densities via on-the-fly atomic UHF.

  ==> Iterations <==

                           Total Energy        Delta E     RMS |[F,P]|

   @DF-RKS iter SAD:  -100.10604627022431   -1.00106e+02   0.00000e+00 
   @DF-RKS iter   1:  -100.40731341643215   -3.01267e-01   5.97080e-03 DIIS
   @DF-RKS iter   2:  -100.40417073860098    3.14268e-03   6.91718e-03 DIIS
   @DF-RKS iter   3:  -100.45903635003191   -5.48656e-02   2.42761e-04 DIIS
   @DF-RKS iter   4:  -100.45911123068274   -7.48807e-05   5.50279e-05 DIIS
   @DF-RKS iter   5:  -100.45911642922030   -5.19854e-06   5.83228e-06 DIIS
   @DF-RKS iter   6:  -100.45911652566983   -9.64495e-08   7.88489e-07 DIIS
   @DF-RKS iter   7:  -100.45911652846215   -2.79232e-09   1.10237e-07 DIIS
   @DF-RKS iter   8:  -100.45911652852242   -6.02682e-11   1.27617e-08 DIIS
   @DF-RKS iter   9:  -100.45911652852320   -7.81597e-13   1.55906e-09 DIIS
  Energy and wave function converged.


  ==> Post-Iterations <==

    Orbital Energies [Eh]
    ---------------------

    Doubly Occupied:                                                      

       1A1   -24.755223     2A1    -1.328970     3A1    -0.665267  
       1B2    -0.531122     1B1    -0.531122  

    Virtual:                                                              

       4A1     0.026811     5A1     0.111584     6A1     0.163313  
       2B2     0.168102     2B1     0.168102     3B1     0.223252  
       3B2     0.223252     7A1     0.237156     8A1     0.333494  
       9A1     0.521287     1A2     0.551961    10A1     0.551961  
       4B1     0.581134     4B2     0.581134    11A1     0.650930  
      12A1     0.729734     5B2     0.744316     5B1     0.744316  
       2A2     0.747369    13A1     0.747370     6B1     0.789461  
       6B2     0.789461    14A1     0.880078     7B1     1.191813  
       7B2     1.191813    15A1     1.361922    16A1     1.453984  
       8B1     1.470831     8B2     1.470831    17A1     1.613304  
       3A2     1.662089    18A1     1.662089     9B1     1.749361  
       9B2     1.749361     4A2     1.916440    19A1     1.916440  
      10B1     1.950059    10B2     1.950059    20A1     2.002555  
      11B1     2.013306    11B2     2.013306    21A1     2.049759  
       5A2     2.049760    22A1     2.099497    12B1     2.400211  
      12B2     2.400211    13B2     2.684191    13B1     2.684191  
      23A1     2.692479    24A1     2.975315    14B1     3.054047  
      14B2     3.054047     6A2     3.078185    25A1     3.078187  
      26A1     3.688139    15B2     4.374932    15B1     4.374932  
      27A1     4.376442    28A1     4.534691     7A2     4.534691  
      16B2     4.684505    16B1     4.684505    29A1     4.973733  
      30A1     5.050747     8A2     5.050749    17B1     5.184235  
      17B2     5.184235    18B2     5.288984    18B1     5.288984  
      31A1     5.356081     9A2     5.356087    32A1     5.499690  
      19B2     5.614243    19B1     5.614243    10A2     5.763706  
      33A1     5.763707    34A1     5.915839    20B2     6.181517  
      20B1     6.181517    35A1     6.473780    21B1     6.592947  
      21B2     6.592947    22B2     7.674165    22B1     7.674165  
      11A2     7.798394    36A1     7.798404    37A1     7.822995  
      38A1     8.402510    39A1     8.459314    12A2     8.459320  
      23B2     8.594495    23B1     8.594495    40A1    10.285756  
      24B2    10.484943    24B1    10.484943    41A1    12.011020  
      13A2    13.190334    42A1    13.190343    25B2    13.286308  
      25B1    13.286308    26B2    13.309347    26B1    13.309347  
      43A1    13.541562    14A2    13.541569    27B2    14.040865  
      27B1    14.040865    44A1    14.069739    45A1    14.563167  
      28B2    15.304903    28B1    15.304903    15A2    15.463993  
      46A1    15.463998    29B2    15.901007    29B1    15.901007  
      47A1    16.250423    16A2    16.250428    48A1    16.676320  
      30B1    17.293637    30B2    17.293637    49A1    19.557334  
      50A1    54.867109  

    Final Occupation by Irrep:
             A1    A2    B1    B2 
    DOCC [     3,    0,    1,    1 ]

  @DF-RKS Final Energy:  -100.45911652852320

   => Energetics <=

    Nuclear Repulsion Energy =              5.1230936844317663
    One-Electron Energy =                -150.3383745233954585
    Two-Electron Energy =                  52.4623234621022547
    DFT Exchange-Correlation Energy =      -7.7495432221120266
    Empirical Dispersion Energy =           0.0000000000000000
    VV10 Nonlocal Energy =                  0.0433840704502500
    Total Energy =                       -100.4591165285231966

Computation Completed


Properties will be evaluated at   0.000000,   0.000000,   0.000000 [a0]

Properties computed using the SCF density matrix

  Nuclear Dipole Moment: [e a0]
     X:     0.0000      Y:     0.0000      Z:    -0.8718

  Electronic Dipole Moment: [e a0]
     X:     0.0000      Y:     0.0000      Z:     0.1550

  Dipole Moment: [e a0]
     X:     0.0000      Y:     0.0000      Z:    -0.7168     Total:     0.7168

  Dipole Moment: [D]
     X:     0.0000      Y:     0.0000      Z:    -1.8220     Total:     1.8220


*** tstop() called on bp1-compute00191.data.bp.acrc.priv at Tue Apr 20 11:08:49 2021
Module time:
	user time   =      62.24 seconds =       1.04 minutes
	system time =       1.68 seconds =       0.03 minutes
	total time  =          2 seconds =       0.03 minutes
Total time:
	user time   =     186.88 seconds =       3.11 minutes
	system time =       6.36 seconds =       0.11 minutes
	total time  =          8 seconds =       0.13 minutes

         ----------------------------------------------------------
                                   FINDIF
                     R. A. King and Jonathon Misiewicz
         ---------------------------------------------------------

  Computing gradient from energies.
    Using 3-point formula.
    Energy without displacement: -100.4591616666
    Check energies below for precision!
    Forces are for mass-weighted, symmetry-adapted cartesians (in au).

     Coord      Energy(-1)        Energy(+1)            Force
        0   -100.4591914081   -100.4591165285      0.0074879583


-------------------------------------------------------------
  ## New Matrix (Symmetry 0) ##
  Irrep: 1 Size: 2 x 3

                 1                   2                   3

    1     0.00000000000000     0.00000000000000     0.00732540987766
    2     0.00000000000000     0.00000000000000    -0.00732540987766




			-----------------------------------------
			 OPTKING 2.0: for geometry optimizations 
			  - R.A. King,  Bethel University        
			-----------------------------------------

	Internal coordinates to be generated automatically.
	Detected frag 1 with atoms:  1 2
	---Fragment 1 Bond Connectivity---
	 1 : 2
	 2 : 1

	---Fragment 1 Geometry and Gradient---
	 F           0.0000000000        0.0000000000        0.0882398563
	 H           0.0000000000        0.0000000000       -1.6634002045
	             0.0000000000        0.0000000000        0.0073254099
	             0.0000000000        0.0000000000       -0.0073254099

	Previous optimization step data not found.  Starting new optimization.

	---Fragment 1 Intrafragment Coordinates---
	 - Coordinate -           - BOHR/RAD -       - ANG/DEG -
	 R(1,2)           =         1.751640	       0.926928

	Current energy   :      -100.4591616666

	Generating empirical Hessian (Schlegel '84) for each fragment.
	Taking RFO optimization step.
	Going to follow RFO solution 1.
	Using RFO vector 1.
	Norm of target step-size    0.01158
	Projected energy change by RFO approximation:        -0.0000177703

	Back-transformation to cartesian coordinates...
	Successfully converged to displaced geometry.

	--- Internal Coordinate Step in ANG or DEG, aJ/ANG or AJ/DEG ---
	 ---------------------------------------------------------------------------
	   Coordinate                Previous        Force       Change         New 
	   ----------                --------       ------       ------       ------
	    1 R(1,2)          =      0.926928    -0.060352    -0.006129     0.920799
	 ---------------------------------------------------------------------------
	Successfully symmetrized geometry.

  ==> Convergence Check <==

  Measures of convergence in internal coordinates in au.
  Criteria marked as inactive (o), active & met (*), and active & unmet ( ).
  --------------------------------------------------------------------------------------------- ~
   Step     Total Energy     Delta E     MAX Force     RMS Force      MAX Disp      RMS Disp    ~
  --------------------------------------------------------------------------------------------- ~
    Convergence Criteria    1.00e-06 *    3.00e-04 *             o    1.20e-03 *             o  ~
  --------------------------------------------------------------------------------------------- ~
      1    -100.45916167   -1.00e+02      7.33e-03      7.33e-03 o    1.16e-02      1.16e-02 o  ~
  ---------------------------------------------------------------------------------------------

	Writing optimization data to binary file.
	Structure for next step:
	Cartesian Geometry (in Angstrom)
	    F     0.0000000000   0.0000000000   0.0436301254
	    H     0.0000000000   0.0000000000  -0.8771690815
			--------------------------
			 OPTKING Finished Execution 
			--------------------------

    Structure for next step:
    Molecular point group: c2v
    Full point group: C_inf_v

    Geometry (in Angstrom), charge = 0, multiplicity = 1:

    F            0.000000000000     0.000000000000     0.046385779719
    H            0.000000000000     0.000000000000    -0.874413430844

gradient() will perform gradient computation by finite difference of analytic energies.

         ----------------------------------------------------------
                                   FINDIF
                     R. A. King and Jonathon Misiewicz
         ---------------------------------------------------------

  Using finite-differences of energies to determine gradients.
    Generating geometries for use with 3-point formula.
    Displacement size will be 5.00e-03.
    Number of atoms is 2.
    Number of symmetric SALCs is 1.
    Translations projected? 1. Rotations projected? 1.
    Number of geometries (including reference) is 3.

  //>>>>>>>>>>>>>>>>>>>>>>>>>>>>>>>>>>>//
  //    Loading displacement 1 of 3    //
  //<<<<<<<<<<<<<<<<<<<<<<<<<<<<<<<<<<<//

*** tstart() called on bp1-compute00191.data.bp.acrc.priv
*** at Tue Apr 20 11:08:50 2021

   => Loading Basis Set <=

    Name: AUG-CC-PV(Q+D)Z
    Role: ORBITAL
    Keyword: BASIS
    atoms 1 entry F          line   499 file /work/zw18965/.conda/envs/p4env/share/psi4/basis/aug-cc-pv_qpd_z.gbs 
    atoms 2 entry H          line    56 file /work/zw18965/.conda/envs/p4env/share/psi4/basis/aug-cc-pv_qpd_z.gbs 


         ---------------------------------------------------------
                                   SCF
               by Justin Turney, Rob Parrish, Andy Simmonett
                          and Daniel G. A. Smith
                              RKS Reference
                       24 Threads, 137329 MiB Core
         ---------------------------------------------------------

  ==> Geometry <==

    Molecular point group: c2v
    Full point group: C_inf_v

    Geometry (in Angstrom), charge = 0, multiplicity = 1:

       Center              X                  Y                   Z               Mass       
    ------------   -----------------  -----------------  -----------------  -----------------
         F            0.000000000000     0.000000000000     0.046385779719    18.998403162730
         H            0.000000000000     0.000000000000    -0.874413430844     1.007825032230

  Running in c2v symmetry.

  Rotational constants: A = ************  B =     20.77445  C =     20.77445 [cm^-1]
  Rotational constants: A = ************  B = 622802.43268  C = 622802.43268 [MHz]
  Nuclear repulsion =    5.172240420491424

  Charge       = 0
  Multiplicity = 1
  Electrons    = 10
  Nalpha       = 5
  Nbeta        = 5

  ==> Algorithm <==

  SCF Algorithm Type is DF.
  DIIS enabled.
  MOM disabled.
  Fractional occupation disabled.
  Guess Type is READ.
  Energy threshold   = 1.00e-08
  Density threshold  = 1.00e-08
  Integral threshold = 0.00e+00

  ==> Primary Basis <==

  Basis Set: AUG-CC-PV(Q+D)Z
    Blend: AUG-CC-PV(Q+D)Z
    Number of shells: 34
    Number of basis function: 126
    Number of Cartesian functions: 160
    Spherical Harmonics?: true
    Max angular momentum: 4

  ==> DFT Potential <==

   => Composite Functional: WB97X-V <= 

    wB97X-V Hyb-GGA Exchange-Correlation Functional

    N. Mardirossian and M. Head-Gordon, Phys. Chem. Chem. Phys. 16, 9904 (2014)

    Deriv               =              1
    GGA                 =           TRUE
    Meta                =          FALSE

    Exchange Hybrid     =           TRUE
    MP2 Hybrid          =          FALSE

   => Exchange-Correlation Functionals <=

    1.0000   wB97X-V range-separated functional

   => Exact (HF) Exchange <=

    0.8330            HF,LR [omega = 0.3000]
    0.1670               HF 

   => VV10 Non-Local Parameters <=

    VV10 B              =     6.0000E+00
    VV10 C              =     1.0000E-02

   => Molecular Quadrature <=

    Radial Scheme          =       TREUTLER
    Pruning Scheme         =           FLAT
    Nuclear Scheme         =       TREUTLER

    BS radius alpha        =              1
    Pruning alpha          =              1
    Radial Points          =             75
    Spherical Points       =            302
    Total Points           =          45300
    Total Blocks           =            417
    Max Points             =            255
    Max Functions          =            126

   => Loading Basis Set <=

    Name: (AUG-CC-PV(Q+D)Z AUX)
    Role: JKFIT
    Keyword: DF_BASIS_SCF
    atoms 1 entry F          line   388 file /work/zw18965/.conda/envs/p4env/share/psi4/basis/aug-cc-pvqz-jkfit.gbs 
    atoms 2 entry H          line    70 file /work/zw18965/.conda/envs/p4env/share/psi4/basis/aug-cc-pvqz-jkfit.gbs 

   => Loading Basis Set <=

    Name: AUG-CC-PV(Q+D)Z
    Role: ORBITAL
    Keyword: BASIS
    atoms 1 entry F          line   499 file /work/zw18965/.conda/envs/p4env/share/psi4/basis/aug-cc-pv_qpd_z.gbs 
    atoms 2 entry H          line    56 file /work/zw18965/.conda/envs/p4env/share/psi4/basis/aug-cc-pv_qpd_z.gbs 

  Reading orbitals from file 180, no projection.

  ==> Pre-Iterations <==

   -------------------------------------------------------
    Irrep   Nso     Nmo     Nalpha   Nbeta   Ndocc  Nsocc
   -------------------------------------------------------
     A1        50      50       0       0       0       0
     A2        16      16       0       0       0       0
     B1        30      30       0       0       0       0
     B2        30      30       0       0       0       0
   -------------------------------------------------------
    Total     126     126       5       5       5       0
   -------------------------------------------------------

  ==> Integral Setup <==

  ==> DiskDFJK: Density-Fitted J/K Matrices <==

    J tasked:                  Yes
    K tasked:                  Yes
    wK tasked:                 Yes
    Omega:               3.000E-01
    OpenMP threads:             24
    Integrals threads:          24
    Memory [MiB]:           102841
    Algorithm:                Core
    Integral Cache:           NONE
    Schwarz Cutoff:          1E-12
    Fitting Condition:       1E-10

   => Auxiliary Basis Set <=

  Basis Set: (AUG-CC-PV(Q+D)Z AUX)
    Blend: AUG-CC-PVQZ-JKFIT
    Number of shells: 52
    Number of basis function: 218
    Number of Cartesian functions: 299
    Spherical Harmonics?: true
    Max angular momentum: 5

  Cached 100.0% of DFT collocation blocks in 0.152 [GiB].

  Minimum eigenvalue in the overlap matrix is 1.1599724698E-04.
  Using Symmetric Orthogonalization.

  SCF Guess: Orbitals guess was supplied from a previous computation.

  ==> Iterations <==

                           Total Energy        Delta E     RMS |[F,P]|

   @DF-RKS iter   0:  -100.46327741250887   -1.00463e+02   2.25119e-04 
   @DF-RKS iter   1:  -100.45920509652646    4.07232e-03   3.29507e-05 DIIS
   @DF-RKS iter   2:  -100.45920638482878   -1.28830e-06   1.12168e-05 DIIS
   @DF-RKS iter   3:  -100.45920649489129   -1.10063e-07   2.17025e-06 DIIS
   @DF-RKS iter   4:  -100.45920650144936   -6.55807e-09   1.32297e-06 DIIS
   @DF-RKS iter   5:  -100.45920650404004   -2.59068e-09   1.42889e-07 DIIS
   @DF-RKS iter   6:  -100.45920650409502   -5.49818e-11   9.75535e-09 DIIS
  Energy and wave function converged.


  ==> Post-Iterations <==

    Orbital Energies [Eh]
    ---------------------

    Doubly Occupied:                                                      

       1A1   -24.755046     2A1    -1.331758     3A1    -0.667432  
       1B1    -0.531930     1B2    -0.531930  

    Virtual:                                                              

       4A1     0.027193     5A1     0.112051     6A1     0.164417  
       2B2     0.168013     2B1     0.168013     3B2     0.223430  
       3B1     0.223430     7A1     0.237091     8A1     0.334880  
       9A1     0.524325     1A2     0.552109    10A1     0.552109  
       4B2     0.581344     4B1     0.581344    11A1     0.651611  
      12A1     0.729952     5B2     0.743918     5B1     0.743918  
       2A2     0.747036    13A1     0.747037     6B1     0.789882  
       6B2     0.789882    14A1     0.878483     7B2     1.193595  
       7B1     1.193595    15A1     1.367899    16A1     1.456765  
       8B2     1.470954     8B1     1.470954    17A1     1.611948  
       3A2     1.663113    18A1     1.663113     9B2     1.748140  
       9B1     1.748140     4A2     1.913528    19A1     1.913528  
      10B1     1.952069    10B2     1.952069    20A1     2.005136  
      11B1     2.015708    11B2     2.015708    21A1     2.050690  
       5A2     2.050691    22A1     2.094066    12B2     2.399787  
      12B1     2.399787    13B2     2.681383    13B1     2.681383  
      23A1     2.700118    24A1     2.983347    14B2     3.065057  
      14B1     3.065057     6A2     3.092169    25A1     3.092170  
      26A1     3.684928    15B2     4.387945    15B1     4.387945  
      27A1     4.388128    28A1     4.534073     7A2     4.534073  
      16B2     4.686947    16B1     4.686947    29A1     4.971604  
      30A1     5.057494     8A2     5.057496    17B2     5.184616  
      17B1     5.184616    18B1     5.289803    18B2     5.289803  
      31A1     5.353386     9A2     5.353393    32A1     5.497124  
      19B2     5.620157    19B1     5.620157    10A2     5.770208  
      33A1     5.770209    34A1     5.906401    20B2     6.180006  
      20B1     6.180006    35A1     6.504308    21B1     6.603746  
      21B2     6.603746    22B2     7.679720    22B1     7.679720  
      11A2     7.815249    36A1     7.815258    37A1     7.848621  
      38A1     8.438043    39A1     8.485109    12A2     8.485115  
      23B2     8.606073    23B1     8.606073    40A1    10.332964  
      24B2    10.543691    24B1    10.543691    41A1    11.990862  
      13A2    13.189617    42A1    13.189629    25B2    13.287130  
      25B1    13.287130    26B2    13.312552    26B1    13.312552  
      43A1    13.550275    14A2    13.550282    27B2    14.059270  
      27B1    14.059270    44A1    14.077351    45A1    14.589914  
      28B2    15.305666    28B1    15.305666    15A2    15.463061  
      46A1    15.463066    29B2    15.898035    29B1    15.898035  
      47A1    16.255617    16A2    16.255624    48A1    16.723026  
      30B2    17.363262    30B1    17.363262    49A1    19.640271  
      50A1    54.933060  

    Final Occupation by Irrep:
             A1    A2    B1    B2 
    DOCC [     3,    0,    1,    1 ]

  @DF-RKS Final Energy:  -100.45920650409502

   => Energetics <=

    Nuclear Repulsion Energy =              5.1722404204914243
    One-Electron Energy =                -150.4217686074741493
    Two-Electron Energy =                  52.4999973785744913
    DFT Exchange-Correlation Energy =      -7.7530637997095280
    Empirical Dispersion Energy =           0.0000000000000000
    VV10 Nonlocal Energy =                  0.0433881040227513
    Total Energy =                       -100.4592065040950075

Computation Completed


Properties will be evaluated at   0.000000,   0.000000,   0.000000 [a0]

Properties computed using the SCF density matrix

  Nuclear Dipole Moment: [e a0]
     X:     0.0000      Y:     0.0000      Z:    -0.8635

  Electronic Dipole Moment: [e a0]
     X:     0.0000      Y:     0.0000      Z:     0.1523

  Dipole Moment: [e a0]
     X:     0.0000      Y:     0.0000      Z:    -0.7112     Total:     0.7112

  Dipole Moment: [D]
     X:     0.0000      Y:     0.0000      Z:    -1.8077     Total:     1.8077


*** tstop() called on bp1-compute00191.data.bp.acrc.priv at Tue Apr 20 11:08:51 2021
Module time:
	user time   =      43.65 seconds =       0.73 minutes
	system time =       1.15 seconds =       0.02 minutes
	total time  =          1 seconds =       0.02 minutes
Total time:
	user time   =     230.88 seconds =       3.85 minutes
	system time =       7.52 seconds =       0.13 minutes
	total time  =         10 seconds =       0.17 minutes

  //>>>>>>>>>>>>>>>>>>>>>>>>>>>>>>>>>>>//
  //    Loading displacement 2 of 3    //
  //<<<<<<<<<<<<<<<<<<<<<<<<<<<<<<<<<<<//

*** tstart() called on bp1-compute00191.data.bp.acrc.priv
*** at Tue Apr 20 11:08:51 2021

   => Loading Basis Set <=

    Name: AUG-CC-PV(Q+D)Z
    Role: ORBITAL
    Keyword: BASIS
    atoms 1 entry F          line   499 file /work/zw18965/.conda/envs/p4env/share/psi4/basis/aug-cc-pv_qpd_z.gbs 
    atoms 2 entry H          line    56 file /work/zw18965/.conda/envs/p4env/share/psi4/basis/aug-cc-pv_qpd_z.gbs 


         ---------------------------------------------------------
                                   SCF
               by Justin Turney, Rob Parrish, Andy Simmonett
                          and Daniel G. A. Smith
                              RKS Reference
                       24 Threads, 137329 MiB Core
         ---------------------------------------------------------

  ==> Geometry <==

    Molecular point group: c2v
    Full point group: C_inf_v

    Geometry (in Angstrom), charge = 0, multiplicity = 1:

       Center              X                  Y                   Z               Mass       
    ------------   -----------------  -----------------  -----------------  -----------------
         F            0.000000000000     0.000000000000     0.046249534099    18.998403162730
         H            0.000000000000     0.000000000000    -0.871845079066     1.007825032230

  Running in c2v symmetry.

  Rotational constants: A = ************  B =     20.89703  C =     20.89703 [cm^-1]
  Rotational constants: A = ************  B = 626477.24109  C = 626477.24109 [MHz]
  Nuclear repulsion =    5.187477224826918

  Charge       = 0
  Multiplicity = 1
  Electrons    = 10
  Nalpha       = 5
  Nbeta        = 5

  ==> Algorithm <==

  SCF Algorithm Type is DF.
  DIIS enabled.
  MOM disabled.
  Fractional occupation disabled.
  Guess Type is READ.
  Energy threshold   = 1.00e-08
  Density threshold  = 1.00e-08
  Integral threshold = 0.00e+00

  ==> Primary Basis <==

  Basis Set: AUG-CC-PV(Q+D)Z
    Blend: AUG-CC-PV(Q+D)Z
    Number of shells: 34
    Number of basis function: 126
    Number of Cartesian functions: 160
    Spherical Harmonics?: true
    Max angular momentum: 4

  ==> DFT Potential <==

   => Composite Functional: WB97X-V <= 

    wB97X-V Hyb-GGA Exchange-Correlation Functional

    N. Mardirossian and M. Head-Gordon, Phys. Chem. Chem. Phys. 16, 9904 (2014)

    Deriv               =              1
    GGA                 =           TRUE
    Meta                =          FALSE

    Exchange Hybrid     =           TRUE
    MP2 Hybrid          =          FALSE

   => Exchange-Correlation Functionals <=

    1.0000   wB97X-V range-separated functional

   => Exact (HF) Exchange <=

    0.8330            HF,LR [omega = 0.3000]
    0.1670               HF 

   => VV10 Non-Local Parameters <=

    VV10 B              =     6.0000E+00
    VV10 C              =     1.0000E-02

   => Molecular Quadrature <=

    Radial Scheme          =       TREUTLER
    Pruning Scheme         =           FLAT
    Nuclear Scheme         =       TREUTLER

    BS radius alpha        =              1
    Pruning alpha          =              1
    Radial Points          =             75
    Spherical Points       =            302
    Total Points           =          45300
    Total Blocks           =            416
    Max Points             =            255
    Max Functions          =            126

   => Loading Basis Set <=

    Name: (AUG-CC-PV(Q+D)Z AUX)
    Role: JKFIT
    Keyword: DF_BASIS_SCF
    atoms 1 entry F          line   388 file /work/zw18965/.conda/envs/p4env/share/psi4/basis/aug-cc-pvqz-jkfit.gbs 
    atoms 2 entry H          line    70 file /work/zw18965/.conda/envs/p4env/share/psi4/basis/aug-cc-pvqz-jkfit.gbs 

   => Loading Basis Set <=

    Name: AUG-CC-PV(Q+D)Z
    Role: ORBITAL
    Keyword: BASIS
    atoms 1 entry F          line   499 file /work/zw18965/.conda/envs/p4env/share/psi4/basis/aug-cc-pv_qpd_z.gbs 
    atoms 2 entry H          line    56 file /work/zw18965/.conda/envs/p4env/share/psi4/basis/aug-cc-pv_qpd_z.gbs 

  Reading orbitals from file 180, no projection.

  ==> Pre-Iterations <==

   -------------------------------------------------------
    Irrep   Nso     Nmo     Nalpha   Nbeta   Ndocc  Nsocc
   -------------------------------------------------------
     A1        50      50       0       0       0       0
     A2        16      16       0       0       0       0
     B1        30      30       0       0       0       0
     B2        30      30       0       0       0       0
   -------------------------------------------------------
    Total     126     126       5       5       5       0
   -------------------------------------------------------

  ==> Integral Setup <==

  ==> DiskDFJK: Density-Fitted J/K Matrices <==

    J tasked:                  Yes
    K tasked:                  Yes
    wK tasked:                 Yes
    Omega:               3.000E-01
    OpenMP threads:             24
    Integrals threads:          24
    Memory [MiB]:           102841
    Algorithm:                Core
    Integral Cache:           NONE
    Schwarz Cutoff:          1E-12
    Fitting Condition:       1E-10

   => Auxiliary Basis Set <=

  Basis Set: (AUG-CC-PV(Q+D)Z AUX)
    Blend: AUG-CC-PVQZ-JKFIT
    Number of shells: 52
    Number of basis function: 218
    Number of Cartesian functions: 299
    Spherical Harmonics?: true
    Max angular momentum: 5

  Cached 100.0% of DFT collocation blocks in 0.152 [GiB].

  Minimum eigenvalue in the overlap matrix is 1.1490191358E-04.
  Using Symmetric Orthogonalization.

  SCF Guess: Orbitals guess was supplied from a previous computation.

  ==> Iterations <==

                           Total Energy        Delta E     RMS |[F,P]|

   @DF-RKS iter   0:  -100.46101154910886   -1.00461e+02   1.01217e-04 
   @DF-RKS iter   1:  -100.45919995535097    1.81159e-03   1.45659e-05 DIIS
   @DF-RKS iter   2:  -100.45920020652862   -2.51178e-07   4.93433e-06 DIIS
   @DF-RKS iter   3:  -100.45920022785693   -2.13283e-08   9.32949e-07 DIIS
   @DF-RKS iter   4:  -100.45920022908720   -1.23028e-09   5.81097e-07 DIIS
   @DF-RKS iter   5:  -100.45920022958437   -4.97167e-10   6.32648e-08 DIIS
   @DF-RKS iter   6:  -100.45920022959481   -1.04450e-11   4.28486e-09 DIIS
  Energy and wave function converged.


  ==> Post-Iterations <==

    Orbital Energies [Eh]
    ---------------------

    Doubly Occupied:                                                      

       1A1   -24.754988     2A1    -1.332625     3A1    -0.668096  
       1B1    -0.532178     1B2    -0.532178  

    Virtual:                                                              

       4A1     0.027306     5A1     0.112188     6A1     0.164752  
       2B1     0.167984     2B2     0.167984     3B2     0.223486  
       3B1     0.223486     7A1     0.237072     8A1     0.335303  
       9A1     0.525262     1A2     0.552154    10A1     0.552154  
       4B2     0.581417     4B1     0.581417    11A1     0.651837  
      12A1     0.730017     5B2     0.743780     5B1     0.743780  
       2A2     0.746932    13A1     0.746932     6B1     0.790008  
       6B2     0.790008    14A1     0.878002     7B2     1.194148  
       7B1     1.194148    15A1     1.369726    16A1     1.457602  
       8B1     1.470991     8B2     1.470991    17A1     1.611590  
      18A1     1.663428     3A2     1.663428     9B2     1.747744  
       9B1     1.747744     4A2     1.912634    19A1     1.912634  
      10B1     1.952705    10B2     1.952705    20A1     2.005896  
      11B2     2.016447    11B1     2.016447    21A1     2.050987  
       5A2     2.050989    22A1     2.092409    12B2     2.399494  
      12B1     2.399494    13B2     2.680741    13B1     2.680741  
      23A1     2.702457    24A1     2.985842    14B1     3.068433  
      14B2     3.068433     6A2     3.096456    25A1     3.096458  
      26A1     3.683775    15B1     4.391838    15B2     4.391838  
      27A1     4.392068     7A2     4.533884    28A1     4.533884  
      16B1     4.687702    16B2     4.687702    29A1     4.970830  
      30A1     5.059540     8A2     5.059542    17B1     5.184647  
      17B2     5.184647    18B1     5.290062    18B2     5.290062  
      31A1     5.352552     9A2     5.352558    32A1     5.496047  
      19B1     5.621925    19B2     5.621925    10A2     5.772212  
      33A1     5.772212    34A1     5.903771    20B1     6.179768  
      20B2     6.179768    35A1     6.513889    21B1     6.607110  
      21B2     6.607110    22B2     7.681413    22B1     7.681413  
      11A2     7.820131    36A1     7.820139    37A1     7.856078  
      38A1     8.449511    39A1     8.493432    12A2     8.493439  
      23B1     8.609838    23B2     8.609838    40A1    10.347789  
      24B1    10.561710    24B2    10.561710    41A1    11.983088  
      13A2    13.189397    42A1    13.189409    25B2    13.287379  
      25B1    13.287379    26B1    13.313273    26B2    13.313273  
      43A1    13.553090    14A2    13.553098    27B2    14.064724  
      27B1    14.064724    44A1    14.080077    45A1    14.598323  
      28B2    15.305903    28B1    15.305903    15A2    15.462723  
      46A1    15.462728    29B2    15.897460    29B1    15.897460  
      47A1    16.257246    16A2    16.257254    48A1    16.738167  
      30B2    17.385033    30B1    17.385033    49A1    19.665276  
      50A1    54.953521  

    Final Occupation by Irrep:
             A1    A2    B1    B2 
    DOCC [     3,    0,    1,    1 ]

  @DF-RKS Final Energy:  -100.45920022959481

   => Energetics <=

    Nuclear Repulsion Energy =              5.1874772248269183
    One-Electron Energy =                -150.4475735529188114
    Two-Electron Energy =                  52.5116633106343116
    DFT Exchange-Correlation Energy =      -7.7541565700896919
    Empirical Dispersion Energy =           0.0000000000000000
    VV10 Nonlocal Energy =                  0.0433893579524493
    Total Energy =                       -100.4592002295948276

Computation Completed


Properties will be evaluated at   0.000000,   0.000000,   0.000000 [a0]

Properties computed using the SCF density matrix

  Nuclear Dipole Moment: [e a0]
     X:     0.0000      Y:     0.0000      Z:    -0.8610

  Electronic Dipole Moment: [e a0]
     X:     0.0000      Y:     0.0000      Z:     0.1515

  Dipole Moment: [e a0]
     X:     0.0000      Y:     0.0000      Z:    -0.7095     Total:     0.7095

  Dipole Moment: [D]
     X:     0.0000      Y:     0.0000      Z:    -1.8034     Total:     1.8034


*** tstop() called on bp1-compute00191.data.bp.acrc.priv at Tue Apr 20 11:08:54 2021
Module time:
	user time   =      46.88 seconds =       0.78 minutes
	system time =       1.45 seconds =       0.02 minutes
	total time  =          3 seconds =       0.05 minutes
Total time:
	user time   =     277.89 seconds =       4.63 minutes
	system time =       8.98 seconds =       0.15 minutes
	total time  =         13 seconds =       0.22 minutes

  //>>>>>>>>>>>>>>>>>>>>>>>>>>>>>>>>>>>//
  //    Loading displacement 3 of 3    //
  //<<<<<<<<<<<<<<<<<<<<<<<<<<<<<<<<<<<//

*** tstart() called on bp1-compute00191.data.bp.acrc.priv
*** at Tue Apr 20 11:08:54 2021

   => Loading Basis Set <=

    Name: AUG-CC-PV(Q+D)Z
    Role: ORBITAL
    Keyword: BASIS
    atoms 1 entry F          line   499 file /work/zw18965/.conda/envs/p4env/share/psi4/basis/aug-cc-pv_qpd_z.gbs 
    atoms 2 entry H          line    56 file /work/zw18965/.conda/envs/p4env/share/psi4/basis/aug-cc-pv_qpd_z.gbs 


         ---------------------------------------------------------
                                   SCF
               by Justin Turney, Rob Parrish, Andy Simmonett
                          and Daniel G. A. Smith
                              RKS Reference
                       24 Threads, 137329 MiB Core
         ---------------------------------------------------------

  ==> Geometry <==

    Molecular point group: c2v
    Full point group: C_inf_v

    Geometry (in Angstrom), charge = 0, multiplicity = 1:

       Center              X                  Y                   Z               Mass       
    ------------   -----------------  -----------------  -----------------  -----------------
         F            0.000000000000     0.000000000000     0.046522025339    18.998403162730
         H            0.000000000000     0.000000000000    -0.876981782622     1.007825032230

  Running in c2v symmetry.

  Rotational constants: A = ************  B =     20.65295  C =     20.65295 [cm^-1]
  Rotational constants: A = ************  B = 619159.86339  C = 619159.86339 [MHz]
  Nuclear repulsion =    5.157092861963044

  Charge       = 0
  Multiplicity = 1
  Electrons    = 10
  Nalpha       = 5
  Nbeta        = 5

  ==> Algorithm <==

  SCF Algorithm Type is DF.
  DIIS enabled.
  MOM disabled.
  Fractional occupation disabled.
  Guess Type is READ.
  Energy threshold   = 1.00e-08
  Density threshold  = 1.00e-08
  Integral threshold = 0.00e+00

  ==> Primary Basis <==

  Basis Set: AUG-CC-PV(Q+D)Z
    Blend: AUG-CC-PV(Q+D)Z
    Number of shells: 34
    Number of basis function: 126
    Number of Cartesian functions: 160
    Spherical Harmonics?: true
    Max angular momentum: 4

  ==> DFT Potential <==

   => Composite Functional: WB97X-V <= 

    wB97X-V Hyb-GGA Exchange-Correlation Functional

    N. Mardirossian and M. Head-Gordon, Phys. Chem. Chem. Phys. 16, 9904 (2014)

    Deriv               =              1
    GGA                 =           TRUE
    Meta                =          FALSE

    Exchange Hybrid     =           TRUE
    MP2 Hybrid          =          FALSE

   => Exchange-Correlation Functionals <=

    1.0000   wB97X-V range-separated functional

   => Exact (HF) Exchange <=

    0.8330            HF,LR [omega = 0.3000]
    0.1670               HF 

   => VV10 Non-Local Parameters <=

    VV10 B              =     6.0000E+00
    VV10 C              =     1.0000E-02

   => Molecular Quadrature <=

    Radial Scheme          =       TREUTLER
    Pruning Scheme         =           FLAT
    Nuclear Scheme         =       TREUTLER

    BS radius alpha        =              1
    Pruning alpha          =              1
    Radial Points          =             75
    Spherical Points       =            302
    Total Points           =          45300
    Total Blocks           =            416
    Max Points             =            255
    Max Functions          =            126

   => Loading Basis Set <=

    Name: (AUG-CC-PV(Q+D)Z AUX)
    Role: JKFIT
    Keyword: DF_BASIS_SCF
    atoms 1 entry F          line   388 file /work/zw18965/.conda/envs/p4env/share/psi4/basis/aug-cc-pvqz-jkfit.gbs 
    atoms 2 entry H          line    70 file /work/zw18965/.conda/envs/p4env/share/psi4/basis/aug-cc-pvqz-jkfit.gbs 

   => Loading Basis Set <=

    Name: AUG-CC-PV(Q+D)Z
    Role: ORBITAL
    Keyword: BASIS
    atoms 1 entry F          line   499 file /work/zw18965/.conda/envs/p4env/share/psi4/basis/aug-cc-pv_qpd_z.gbs 
    atoms 2 entry H          line    56 file /work/zw18965/.conda/envs/p4env/share/psi4/basis/aug-cc-pv_qpd_z.gbs 

  Reading orbitals from file 180, no projection.

  ==> Pre-Iterations <==

   -------------------------------------------------------
    Irrep   Nso     Nmo     Nalpha   Nbeta   Ndocc  Nsocc
   -------------------------------------------------------
     A1        50      50       0       0       0       0
     A2        16      16       0       0       0       0
     B1        30      30       0       0       0       0
     B2        30      30       0       0       0       0
   -------------------------------------------------------
    Total     126     126       5       5       5       0
   -------------------------------------------------------

  ==> Integral Setup <==

  ==> DiskDFJK: Density-Fitted J/K Matrices <==

    J tasked:                  Yes
    K tasked:                  Yes
    wK tasked:                 Yes
    Omega:               3.000E-01
    OpenMP threads:             24
    Integrals threads:          24
    Memory [MiB]:           102841
    Algorithm:                Core
    Integral Cache:           NONE
    Schwarz Cutoff:          1E-12
    Fitting Condition:       1E-10

   => Auxiliary Basis Set <=

  Basis Set: (AUG-CC-PV(Q+D)Z AUX)
    Blend: AUG-CC-PVQZ-JKFIT
    Number of shells: 52
    Number of basis function: 218
    Number of Cartesian functions: 299
    Spherical Harmonics?: true
    Max angular momentum: 5

  Cached 100.0% of DFT collocation blocks in 0.152 [GiB].

  Minimum eigenvalue in the overlap matrix is 1.1709977036E-04.
  Using Symmetric Orthogonalization.

  SCF Guess: Orbitals guess was supplied from a previous computation.

  ==> Iterations <==

                           Total Energy        Delta E     RMS |[F,P]|

   @DF-RKS iter   0:  -100.45739646757475   -1.00457e+02   1.00669e-04 
   @DF-RKS iter   1:  -100.45919641438572   -1.79995e-03   1.45970e-05 DIIS
   @DF-RKS iter   2:  -100.45919666642590   -2.52040e-07   4.98712e-06 DIIS
   @DF-RKS iter   3:  -100.45919668812721   -2.17013e-08   9.92320e-07 DIIS
   @DF-RKS iter   4:  -100.45919668947502   -1.34781e-09   5.87872e-07 DIIS
   @DF-RKS iter   5:  -100.45919668999043   -5.15413e-10   6.29795e-08 DIIS
   @DF-RKS iter   6:  -100.45919669000112   -1.06866e-11   4.33777e-09 DIIS
  Energy and wave function converged.


  ==> Post-Iterations <==

    Orbital Energies [Eh]
    ---------------------

    Doubly Occupied:                                                      

       1A1   -24.755102     2A1    -1.330897     3A1    -0.666769  
       1B1    -0.531682     1B2    -0.531682  

    Virtual:                                                              

       4A1     0.027078     5A1     0.111911     6A1     0.164080  
       2B2     0.168041     2B1     0.168041     3B2     0.223375  
       3B1     0.223375     7A1     0.237111     8A1     0.334456  
       9A1     0.523391     1A2     0.552064    10A1     0.552064  
       4B2     0.581275     4B1     0.581275    11A1     0.651393  
      12A1     0.729887     5B1     0.744048     5B2     0.744048  
       2A2     0.747140    13A1     0.747140     6B2     0.789755  
       6B1     0.789755    14A1     0.878968     7B2     1.193046  
       7B1     1.193046    15A1     1.366070    16A1     1.455921  
       8B1     1.470917     8B2     1.470917    17A1     1.612334  
       3A2     1.662799    18A1     1.662799     9B2     1.748526  
       9B1     1.748526     4A2     1.914421    19A1     1.914421  
      10B2     1.951442    10B1     1.951442    20A1     2.004361  
      11B1     2.014970    11B2     2.014970    21A1     2.050398  
       5A2     2.050399    22A1     2.095727    12B2     2.400003  
      12B1     2.400003    13B2     2.682129    13B1     2.682129  
      23A1     2.697779    24A1     2.980869    14B1     3.061682  
      14B2     3.061682     6A2     3.087884    25A1     3.087886  
      26A1     3.686003    15B2     4.384008    15B1     4.384008  
      27A1     4.384355    28A1     4.534262     7A2     4.534262  
      16B1     4.686195    16B2     4.686195    29A1     4.972319  
      30A1     5.055439     8A2     5.055441    17B1     5.184544  
      17B2     5.184544    18B1     5.289548    18B2     5.289548  
      31A1     5.354216     9A2     5.354223    32A1     5.498063  
      19B2     5.618369    19B1     5.618369    10A2     5.768211  
      33A1     5.768212    34A1     5.909161    20B2     6.180352  
      20B1     6.180352    35A1     6.494833    21B1     6.600409  
      21B2     6.600409    22B2     7.678023    22B1     7.678023  
      11A2     7.810235    36A1     7.810245    37A1     7.840977  
      38A1     8.426853    39A1     8.476986    12A2     8.476993  
      23B2     8.602411    23B1     8.602411    40A1    10.318311  
      24B2    10.525686    24B1    10.525686    41A1    11.997886  
      13A2    13.189837    42A1    13.189848    25B2    13.286880  
      25B1    13.286880    26B2    13.311709    26B1    13.311709  
      43A1    13.547529    14A2    13.547536    27B1    14.053729  
      27B2    14.053729    44A1    14.074818    45A1    14.581605  
      28B1    15.305430    28B2    15.305430    15A2    15.463374  
      46A1    15.463379    29B2    15.898771    29B1    15.898771  
      47A1    16.254007    16A2    16.254013    48A1    16.708279  
      30B2    17.341701    30B1    17.341701    49A1    19.615075  
      50A1    54.912724  

    Final Occupation by Irrep:
             A1    A2    B1    B2 
    DOCC [     3,    0,    1,    1 ]

  @DF-RKS Final Energy:  -100.45919669000112

   => Energetics <=

    Nuclear Repulsion Energy =              5.1570928619630436
    One-Electron Energy =                -150.3960902551398533
    Two-Electron Energy =                  52.4883916774588357
    DFT Exchange-Correlation Energy =      -7.7519778327158200
    Empirical Dispersion Energy =           0.0000000000000000
    VV10 Nonlocal Energy =                  0.0433868584326772
    Total Energy =                       -100.4591966900011215

Computation Completed


Properties will be evaluated at   0.000000,   0.000000,   0.000000 [a0]

Properties computed using the SCF density matrix

  Nuclear Dipole Moment: [e a0]
     X:     0.0000      Y:     0.0000      Z:    -0.8660

  Electronic Dipole Moment: [e a0]
     X:     0.0000      Y:     0.0000      Z:     0.1531

  Dipole Moment: [e a0]
     X:     0.0000      Y:     0.0000      Z:    -0.7129     Total:     0.7129

  Dipole Moment: [D]
     X:     0.0000      Y:     0.0000      Z:    -1.8121     Total:     1.8121


*** tstop() called on bp1-compute00191.data.bp.acrc.priv at Tue Apr 20 11:08:56 2021
Module time:
	user time   =      46.22 seconds =       0.77 minutes
	system time =       1.46 seconds =       0.02 minutes
	total time  =          2 seconds =       0.03 minutes
Total time:
	user time   =     324.23 seconds =       5.40 minutes
	system time =      10.44 seconds =       0.17 minutes
	total time  =         15 seconds =       0.25 minutes

         ----------------------------------------------------------
                                   FINDIF
                     R. A. King and Jonathon Misiewicz
         ---------------------------------------------------------

  Computing gradient from energies.
    Using 3-point formula.
    Energy without displacement: -100.4592065041
    Check energies below for precision!
    Forces are for mass-weighted, symmetry-adapted cartesians (in au).

     Coord      Energy(-1)        Energy(+1)            Force
        0   -100.4592002296   -100.4591966900      0.0003539594


-------------------------------------------------------------
  ## New Matrix (Symmetry 0) ##
  Irrep: 1 Size: 2 x 3

                 1                   2                   3

    1     0.00000000000000     0.00000000000000     0.00034627562651
    2     0.00000000000000     0.00000000000000    -0.00034627562651




			-----------------------------------------
			 OPTKING 2.0: for geometry optimizations 
			  - R.A. King,  Bethel University        
			-----------------------------------------

	Previous internal coordinate definitions found.
	---Fragment 1 Geometry and Gradient---
	 F           0.0000000000        0.0000000000        0.0876564198
	 H           0.0000000000        0.0000000000       -1.6524019047
	             0.0000000000        0.0000000000        0.0003462756
	             0.0000000000        0.0000000000       -0.0003462756

	---Fragment 1 Intrafragment Coordinates---
	 - Coordinate -           - BOHR/RAD -       - ANG/DEG -
	 R(1,2)           =         1.740058	       0.920799

	Current energy   :      -100.4592065041

	Energy change for the previous step:
		Projected    :        -0.0000177703
		Actual       :        -0.0000448375
	Energy ratio indicates good step: Trust radius increased to 1.000e+00.


	Performing BFGS update.
	Previous computed or guess Hessian on step 1.
	Steps to be used in Hessian update: 1
	Taking RFO optimization step.
	Going to follow RFO solution 1.
	Using RFO vector 1.
	Norm of target step-size    0.00057
	Projected energy change by RFO approximation:        -0.0000000339

	Back-transformation to cartesian coordinates...
	Successfully converged to displaced geometry.

	--- Internal Coordinate Step in ANG or DEG, aJ/ANG or AJ/DEG ---
	 ---------------------------------------------------------------------------
	   Coordinate                Previous        Force       Change         New 
	   ----------                --------       ------       ------       ------
	    1 R(1,2)          =      0.920799    -0.002853    -0.000304     0.920495
	 ---------------------------------------------------------------------------
	Successfully symmetrized geometry.

  ==> Convergence Check <==

  Measures of convergence in internal coordinates in au.
  Criteria marked as inactive (o), active & met (*), and active & unmet ( ).
  ---------------------------------------------------------------------------------------------
   Step     Total Energy     Delta E     MAX Force     RMS Force      MAX Disp      RMS Disp   
  ---------------------------------------------------------------------------------------------
    Convergence Criteria    1.00e-06 *    3.00e-04 *             o    1.20e-03 *             o
  ---------------------------------------------------------------------------------------------
      2    -100.45920650   -4.48e-05      3.46e-04      3.46e-04 o    5.75e-04 *    5.75e-04 o  ~
  ---------------------------------------------------------------------------------------------

	Writing optimization data to binary file.
	Structure for next step:
	Cartesian Geometry (in Angstrom)
	    F     0.0000000000   0.0000000000   0.0462337370
	    H     0.0000000000   0.0000000000  -0.8742613849
			--------------------------
			 OPTKING Finished Execution 
			--------------------------

    Structure for next step:
    Molecular point group: c2v
    Full point group: C_inf_v

    Geometry (in Angstrom), charge = 0, multiplicity = 1:

    F            0.000000000000     0.000000000000     0.046370461265
    H            0.000000000000     0.000000000000    -0.874124664274

gradient() will perform gradient computation by finite difference of analytic energies.

         ----------------------------------------------------------
                                   FINDIF
                     R. A. King and Jonathon Misiewicz
         ---------------------------------------------------------

  Using finite-differences of energies to determine gradients.
    Generating geometries for use with 3-point formula.
    Displacement size will be 5.00e-03.
    Number of atoms is 2.
    Number of symmetric SALCs is 1.
    Translations projected? 1. Rotations projected? 1.
    Number of geometries (including reference) is 3.

  //>>>>>>>>>>>>>>>>>>>>>>>>>>>>>>>>>>>//
  //    Loading displacement 1 of 3    //
  //<<<<<<<<<<<<<<<<<<<<<<<<<<<<<<<<<<<//

*** tstart() called on bp1-compute00191.data.bp.acrc.priv
*** at Tue Apr 20 11:08:56 2021

   => Loading Basis Set <=

    Name: AUG-CC-PV(Q+D)Z
    Role: ORBITAL
    Keyword: BASIS
    atoms 1 entry F          line   499 file /work/zw18965/.conda/envs/p4env/share/psi4/basis/aug-cc-pv_qpd_z.gbs 
    atoms 2 entry H          line    56 file /work/zw18965/.conda/envs/p4env/share/psi4/basis/aug-cc-pv_qpd_z.gbs 


         ---------------------------------------------------------
                                   SCF
               by Justin Turney, Rob Parrish, Andy Simmonett
                          and Daniel G. A. Smith
                              RKS Reference
                       24 Threads, 137329 MiB Core
         ---------------------------------------------------------

  ==> Geometry <==

    Molecular point group: c2v
    Full point group: C_inf_v

    Geometry (in Angstrom), charge = 0, multiplicity = 1:

       Center              X                  Y                   Z               Mass       
    ------------   -----------------  -----------------  -----------------  -----------------
         F            0.000000000000     0.000000000000     0.046370461265    18.998403162730
         H            0.000000000000     0.000000000000    -0.874124664274     1.007825032230

  Running in c2v symmetry.

  Rotational constants: A = ************  B =     20.78818  C =     20.78818 [cm^-1]
  Rotational constants: A = ************  B = 623213.98548  C = 623213.98548 [MHz]
  Nuclear repulsion =    5.173949067075406

  Charge       = 0
  Multiplicity = 1
  Electrons    = 10
  Nalpha       = 5
  Nbeta        = 5

  ==> Algorithm <==

  SCF Algorithm Type is DF.
  DIIS enabled.
  MOM disabled.
  Fractional occupation disabled.
  Guess Type is READ.
[...]
      46A1    15.462688    29B2    15.897406    29B1    15.897406  
      47A1    16.257430    16A2    16.257438    48A1    16.739894  
      30B2    17.387493    30B1    17.387493    49A1    19.668075  
      50A1    54.955829  

    Final Occupation by Irrep:
             A1    A2    B1    B2 
    DOCC [     3,    0,    1,    1 ]

  @DF-RKS Final Energy:  -100.45919850345228

   => Energetics <=

    Nuclear Repulsion Energy =              5.1891959548502387
    One-Electron Energy =                -150.4504825909148167
    Two-Electron Energy =                  52.5129784605005483
    DFT Exchange-Correlation Energy =      -7.7542798272567657
    Empirical Dispersion Energy =           0.0000000000000000
    VV10 Nonlocal Energy =                  0.0433894993684953
    Total Energy =                       -100.4591985034522850

Computation Completed


Properties will be evaluated at   0.000000,   0.000000,   0.000000 [a0]

Properties computed using the SCF density matrix

  Nuclear Dipole Moment: [e a0]
     X:     0.0000      Y:     0.0000      Z:    -0.8607

  Electronic Dipole Moment: [e a0]
     X:     0.0000      Y:     0.0000      Z:     0.1514

  Dipole Moment: [e a0]
     X:     0.0000      Y:     0.0000      Z:    -0.7093     Total:     0.7093

  Dipole Moment: [D]
     X:     0.0000      Y:     0.0000      Z:    -1.8029     Total:     1.8029


*** tstop() called on bp1-compute00191.data.bp.acrc.priv at Tue Apr 20 11:09:16 2021
Module time:
	user time   =      71.53 seconds =       1.19 minutes
	system time =       2.34 seconds =       0.04 minutes
	total time  =          3 seconds =       0.05 minutes
Total time:
	user time   =     794.75 seconds =      13.25 minutes
	system time =      24.84 seconds =       0.41 minutes
	total time  =         35 seconds =       0.58 minutes

  //>>>>>>>>>>>>>>>>>>>>>>>>>>>>>>>>>>>//
  //    Loading displacement 3 of 3    //
  //<<<<<<<<<<<<<<<<<<<<<<<<<<<<<<<<<<<//

*** tstart() called on bp1-compute00191.data.bp.acrc.priv
*** at Tue Apr 20 11:09:16 2021

   => Loading Basis Set <=

    Name: AUG-CC-PV(Q+D)Z
    Role: ORBITAL
    Keyword: BASIS
    atoms 1 entry F          line   499 file /work/zw18965/.conda/envs/p4env/share/psi4/basis/aug-cc-pv_qpd_z.gbs 
    atoms 2 entry H          line    56 file /work/zw18965/.conda/envs/p4env/share/psi4/basis/aug-cc-pv_qpd_z.gbs 


         ---------------------------------------------------------
                                   SCF
               by Justin Turney, Rob Parrish, Andy Simmonett
                          and Daniel G. A. Smith
                              RKS Reference
                       24 Threads, 137329 MiB Core
         ---------------------------------------------------------

  ==> Geometry <==

    Molecular point group: c2v
    Full point group: C_inf_v

    Geometry (in Angstrom), charge = 0, multiplicity = 1:

       Center              X                  Y                   Z               Mass       
    ------------   -----------------  -----------------  -----------------  -----------------
         F            0.000000000000     0.000000000000     0.046506706884    18.998403162730
         H            0.000000000000     0.000000000000    -0.876693016053     1.007825032230

  Running in c2v symmetry.

  Rotational constants: A = ************  B =     20.66656  C =     20.66656 [cm^-1]
  Rotational constants: A = ************  B = 619567.81032  C = 619567.81032 [MHz]
  Nuclear repulsion =    5.158791513584319

  Charge       = 0
  Multiplicity = 1
  Electrons    = 10
  Nalpha       = 5
  Nbeta        = 5

  ==> Algorithm <==

  SCF Algorithm Type is DF.
  DIIS enabled.
  MOM disabled.
  Fractional occupation disabled.
  Guess Type is SAD.
  Energy threshold   = 1.00e-10
  Density threshold  = 1.00e-10
  Integral threshold = 0.00e+00

  ==> Primary Basis <==

  Basis Set: AUG-CC-PV(Q+D)Z
    Blend: AUG-CC-PV(Q+D)Z
    Number of shells: 34
    Number of basis function: 126
    Number of Cartesian functions: 160
    Spherical Harmonics?: true
    Max angular momentum: 4

  ==> DFT Potential <==

   => Composite Functional: WB97X-V <= 

    wB97X-V Hyb-GGA Exchange-Correlation Functional

    N. Mardirossian and M. Head-Gordon, Phys. Chem. Chem. Phys. 16, 9904 (2014)

    Deriv               =              1
    GGA                 =           TRUE
    Meta                =          FALSE

    Exchange Hybrid     =           TRUE
    MP2 Hybrid          =          FALSE

   => Exchange-Correlation Functionals <=

    1.0000   wB97X-V range-separated functional

   => Exact (HF) Exchange <=

    0.8330            HF,LR [omega = 0.3000]
    0.1670               HF 

   => VV10 Non-Local Parameters <=

    VV10 B              =     6.0000E+00
    VV10 C              =     1.0000E-02

   => Molecular Quadrature <=

    Radial Scheme          =       TREUTLER
    Pruning Scheme         =           FLAT
    Nuclear Scheme         =       TREUTLER

    BS radius alpha        =              1
    Pruning alpha          =              1
    Radial Points          =             75
    Spherical Points       =            302
    Total Points           =          45300
    Total Blocks           =            416
    Max Points             =            255
    Max Functions          =            126

   => Loading Basis Set <=

    Name: (AUG-CC-PV(Q+D)Z AUX)
    Role: JKFIT
    Keyword: DF_BASIS_SCF
    atoms 1 entry F          line   388 file /work/zw18965/.conda/envs/p4env/share/psi4/basis/aug-cc-pvqz-jkfit.gbs 
    atoms 2 entry H          line    70 file /work/zw18965/.conda/envs/p4env/share/psi4/basis/aug-cc-pvqz-jkfit.gbs 

  ==> Pre-Iterations <==

   -------------------------------------------------------
    Irrep   Nso     Nmo     Nalpha   Nbeta   Ndocc  Nsocc
   -------------------------------------------------------
     A1        50      50       0       0       0       0
     A2        16      16       0       0       0       0
     B1        30      30       0       0       0       0
     B2        30      30       0       0       0       0
   -------------------------------------------------------
    Total     126     126       5       5       5       0
   -------------------------------------------------------

  ==> Integral Setup <==

  ==> DiskDFJK: Density-Fitted J/K Matrices <==

    J tasked:                  Yes
    K tasked:                  Yes
    wK tasked:                 Yes
    Omega:               3.000E-01
    OpenMP threads:             24
    Integrals threads:          24
    Memory [MiB]:           102841
    Algorithm:                Core
    Integral Cache:           NONE
    Schwarz Cutoff:          1E-12
    Fitting Condition:       1E-10

   => Auxiliary Basis Set <=

  Basis Set: (AUG-CC-PV(Q+D)Z AUX)
    Blend: AUG-CC-PVQZ-JKFIT
    Number of shells: 52
    Number of basis function: 218
    Number of Cartesian functions: 299
    Spherical Harmonics?: true
    Max angular momentum: 5

  Cached 100.0% of DFT collocation blocks in 0.152 [GiB].

  Minimum eigenvalue in the overlap matrix is 1.1697545265E-04.
  Using Symmetric Orthogonalization.

  SCF Guess: Superposition of Atomic Densities via on-the-fly atomic UHF.

  ==> Iterations <==

                           Total Energy        Delta E     RMS |[F,P]|

   @DF-RKS iter SAD:  -100.10907860179749   -1.00109e+02   0.00000e+00 
   @DF-RKS iter   1:  -100.40756804452275   -2.98489e-01   5.97520e-03 DIIS
   @DF-RKS iter   2:  -100.40482527048214    2.74277e-03   6.88928e-03 DIIS
   @DF-RKS iter   3:  -100.45912021621537   -5.42949e-02   2.39704e-04 DIIS
   @DF-RKS iter   4:  -100.45919348228269   -7.32661e-05   5.40337e-05 DIIS
   @DF-RKS iter   5:  -100.45919849090599   -5.00862e-06   5.74563e-06 DIIS
   @DF-RKS iter   6:  -100.45919858360665   -9.27007e-08   7.65412e-07 DIIS
   @DF-RKS iter   7:  -100.45919858621093   -2.60428e-09   1.06034e-07 DIIS
   @DF-RKS iter   8:  -100.45919858626530   -5.43707e-11   1.18937e-08 DIIS
   @DF-RKS iter   9:  -100.45919858626591   -6.11067e-13   1.43863e-09 DIIS
   @DF-RKS iter  10:  -100.45919858626591    0.00000e+00   2.30414e-10 DIIS
   @DF-RKS iter  11:  -100.45919858626583    8.52651e-14   1.94700e-11 DIIS
  Energy and wave function converged.


  ==> Post-Iterations <==

    Orbital Energies [Eh]
    ---------------------

    Doubly Occupied:                                                      

       1A1   -24.755096     2A1    -1.330993     3A1    -0.666843  
       1B2    -0.531709     1B1    -0.531709  

    Virtual:                                                              

       4A1     0.027091     5A1     0.111927     6A1     0.164118  
       2B2     0.168038     2B1     0.168038     3B2     0.223381  
       3B1     0.223381     7A1     0.237109     8A1     0.334504  
       9A1     0.523496     1A2     0.552069    10A1     0.552069  
       4B1     0.581283     4B2     0.581283    11A1     0.651417  
      12A1     0.729894     5B1     0.744034     5B2     0.744034  
       2A2     0.747128    13A1     0.747129     6B2     0.789770  
       6B1     0.789770    14A1     0.878913     7B2     1.193107  
       7B1     1.193107    15A1     1.366276    16A1     1.456016  
       8B2     1.470921     8B1     1.470921    17A1     1.612289  
       3A2     1.662834    18A1     1.662834     9B1     1.748483  
       9B2     1.748483     4A2     1.914321    19A1     1.914321  
      10B2     1.951512    10B1     1.951512    20A1     2.004449  
      11B1     2.015053    11B2     2.015053    21A1     2.050431  
       5A2     2.050432    22A1     2.095540    12B2     2.399982  
      12B1     2.399982    13B1     2.682040    13B2     2.682040  
      23A1     2.698042    24A1     2.981147    14B1     3.062062  
      14B2     3.062062     6A2     3.088365    25A1     3.088367  
      26A1     3.685886    15B2     4.384453    15B1     4.384453  
      27A1     4.384771    28A1     4.534241     7A2     4.534241  
      16B1     4.686280    16B2     4.686280    29A1     4.972242  
      30A1     5.055670     8A2     5.055672    17B1     5.184554  
      17B2     5.184554    18B1     5.289576    18B2     5.289576  
      31A1     5.354123     9A2     5.354130    32A1     5.497964  
      19B2     5.618571    19B1     5.618571    10A2     5.768435  
      33A1     5.768436    34A1     5.908844    20B1     6.180308  
      20B2     6.180308    35A1     6.495893    21B2     6.600783  
      21B1     6.600783    22B2     7.678214    22B1     7.678214  
      11A2     7.810806    36A1     7.810815    37A1     7.841846  
      38A1     8.428098    39A1     8.477890    12A2     8.477896  
      23B1     8.602818    23B2     8.602818    40A1    10.319950  
      24B1    10.527709    24B2    10.527709    41A1    11.997134  
      13A2    13.189813    42A1    13.189823    25B1    13.286908  
      25B2    13.286908    26B1    13.311810    26B2    13.311810  
      43A1    13.547834    14A2    13.547842    27B1    14.054356  
      27B2    14.054356    44A1    14.075093    45A1    14.582534  
      28B1    15.305456    28B2    15.305456    15A2    15.463340  
      46A1    15.463345    29B1    15.898680    29B2    15.898680  
      47A1    16.254187    16A2    16.254193    48A1    16.709918  
      30B1    17.344114    30B2    17.344114    49A1    19.617917  
      50A1    54.915004  

    Final Occupation by Irrep:
             A1    A2    B1    B2 
    DOCC [     3,    0,    1,    1 ]

  @DF-RKS Final Energy:  -100.45919858626583

   => Energetics <=

    Nuclear Repulsion Energy =              5.1587915135843190
    One-Electron Energy =                -150.3989712076621288
    Two-Electron Energy =                  52.4896937258736855
    DFT Exchange-Correlation Energy =      -7.7520996161880218
    Empirical Dispersion Energy =           0.0000000000000000
    VV10 Nonlocal Energy =                  0.0433869981263299
    Total Energy =                       -100.4591985862658419

Computation Completed


Properties will be evaluated at   0.000000,   0.000000,   0.000000 [a0]

Properties computed using the SCF density matrix

  Nuclear Dipole Moment: [e a0]
     X:     0.0000      Y:     0.0000      Z:    -0.8657

  Electronic Dipole Moment: [e a0]
     X:     0.0000      Y:     0.0000      Z:     0.1530

  Dipole Moment: [e a0]
     X:     0.0000      Y:     0.0000      Z:    -0.7127     Total:     0.7127

  Dipole Moment: [D]
     X:     0.0000      Y:     0.0000      Z:    -1.8116     Total:     1.8116


*** tstop() called on bp1-compute00191.data.bp.acrc.priv at Tue Apr 20 11:09:19 2021
Module time:
	user time   =      67.33 seconds =       1.12 minutes
	system time =       1.77 seconds =       0.03 minutes
	total time  =          3 seconds =       0.05 minutes
Total time:
	user time   =     863.46 seconds =      14.39 minutes
	system time =      26.66 seconds =       0.44 minutes
	total time  =         38 seconds =       0.63 minutes

         ----------------------------------------------------------
                                   FINDIF
                     R. A. King and Jonathon Misiewicz
         ---------------------------------------------------------

  Computing second-derivative from energies using projected, 
  symmetry-adapted, cartesian coordinates.

  3 energies passed in, including the reference geometry.
    Using 3-point formula.
    Energy without displacement: -100.4592066080
    Check energies below for precision!
    0: -1 :      -100.4591985035
    0: 1  :      -100.4591985863

-------------------------------------------------------------


  ==> Harmonic Vibrational Analysis <==

  non-mass-weighted Hessian:       Symmetric? True   Hermitian? True   Lin Dep Dim?  5 (0)
  projection of translations (True) and rotations (True) removed 5 degrees of freedom (5)
  total projector:                 Symmetric? True   Hermitian? True   Lin Dep Dim?  5 (5)
  mass-weighted Hessian:           Symmetric? True   Hermitian? True   Lin Dep Dim?  5 (0)
  pre-proj  low-frequency mode:    0.0000i [cm^-1]
  pre-proj  low-frequency mode:    0.0000  [cm^-1]
  pre-proj  low-frequency mode:    0.0000  [cm^-1]
  pre-proj  low-frequency mode:    0.0000  [cm^-1]
  pre-proj  low-frequency mode:    0.0000  [cm^-1]
  pre-proj  all modes:['0.0000i' '0.0000' '0.0000' '0.0000' '0.0000' '4128.5871']
  projected mass-weighted Hessian: Symmetric? True   Hermitian? True   Lin Dep Dim?  5 (5)
  post-proj low-frequency mode:    0.0001i [cm^-1] (TR)
  post-proj low-frequency mode:    0.0000i [cm^-1] (TR)
  post-proj low-frequency mode:    0.0000  [cm^-1] (TR)
  post-proj low-frequency mode:    0.0000  [cm^-1] (TR)
  post-proj low-frequency mode:    0.0000  [cm^-1] (TR)
  post-proj  all modes:['0.0001i' '0.0000i' '0.0000' '0.0000' '0.0000' '4128.5871']

  Vibration                       6           
  Freq [cm^-1]                4128.5871       
  Irrep                           A1          
  Reduced mass [u]              1.0583        
  Force const [mDyne/A]        10.6284        
  Turning point v=0 [a0]        0.1660        
  RMS dev v=0 [a0 u^1/2]        0.1208        
  Char temp [K]               5940.1176       
  ----------------------------------------------------------------------------------
      1   F                0.00  0.00 -0.05   
      2   H                0.00  0.00  1.00   

  ==> Thermochemistry Components <==

  Entropy, S
    Electronic S            0.000 [cal/(mol K)]        0.000 [J/(mol K)]       0.00000000 [mEh/K] (multiplicity = 1)
    Translational S        34.921 [cal/(mol K)]      146.112 [J/(mol K)]       0.05565095 [mEh/K] (mol. weight = 20.0062 [u], P = 101325.00 [Pa])
    Rotational S            6.557 [cal/(mol K)]       27.433 [J/(mol K)]       0.01044863 [mEh/K] (symmetry no. = 1)
    Vibrational S           0.000 [cal/(mol K)]        0.000 [J/(mol K)]       0.00000000 [mEh/K]
  Total S                  41.478 [cal/(mol K)]      173.544 [J/(mol K)]       0.06609958 [mEh/K]
  Correction S              0.000 [cal/(mol K)]        0.000 [J/(mol K)]       0.00000000 [mEh/K]

  Constant volume heat capacity, Cv
    Electronic Cv           0.000 [cal/(mol K)]        0.000 [J/(mol K)]       0.00000000 [mEh/K]
    Translational Cv        2.981 [cal/(mol K)]       12.472 [J/(mol K)]       0.00475022 [mEh/K]
    Rotational Cv           1.987 [cal/(mol K)]        8.314 [J/(mol K)]       0.00316681 [mEh/K]
    Vibrational Cv          0.000 [cal/(mol K)]        0.000 [J/(mol K)]       0.00000000 [mEh/K]
  Total Cv                  4.968 [cal/(mol K)]       20.786 [J/(mol K)]       0.00791703 [mEh/K]
  Correction Cv             0.000 [cal/(mol K)]        0.000 [J/(mol K)]       0.00000000 [mEh/K]

  Constant pressure heat capacity, Cp
    Electronic Cp           0.000 [cal/(mol K)]        0.000 [J/(mol K)]       0.00000000 [mEh/K]
    Translational Cp        4.968 [cal/(mol K)]       20.786 [J/(mol K)]       0.00791703 [mEh/K]
    Rotational Cp           1.987 [cal/(mol K)]        8.314 [J/(mol K)]       0.00316681 [mEh/K]
    Vibrational Cp          0.000 [cal/(mol K)]        0.000 [J/(mol K)]       0.00000000 [mEh/K]
  Total Cp                  6.955 [cal/(mol K)]       29.101 [J/(mol K)]       0.01108384 [mEh/K]
  Correction Cp             0.000 [cal/(mol K)]        0.000 [J/(mol K)]       0.00000000 [mEh/K]

  ==> Thermochemistry Energy Analysis <==

  Raw electronic energy, E0
  Total E0, Electronic energy at well bottom at 0 [K]                 -100.45920661 [Eh]

  Zero-point energy, ZPE_vib = Sum_i nu_i / 2
    Electronic ZPE          0.000 [kcal/mol]        0.000 [kJ/mol]       0.00000000 [Eh]
    Translational ZPE       0.000 [kcal/mol]        0.000 [kJ/mol]       0.00000000 [Eh]
    Rotational ZPE          0.000 [kcal/mol]        0.000 [kJ/mol]       0.00000000 [Eh]
    Vibrational ZPE         5.902 [kcal/mol]       24.694 [kJ/mol]       0.00940561 [Eh]        2064.294 [cm^-1]
  Correction ZPE            5.902 [kcal/mol]       24.694 [kJ/mol]       0.00940561 [Eh]        2064.294 [cm^-1]
  Total ZPE, Electronic energy at 0 [K]                               -100.44980099 [Eh]

  Thermal Energy, E (includes ZPE)
    Electronic E            0.000 [kcal/mol]        0.000 [kJ/mol]       0.00000000 [Eh]
    Translational E         0.889 [kcal/mol]        3.718 [kJ/mol]       0.00141628 [Eh]
    Rotational E            0.592 [kcal/mol]        2.479 [kJ/mol]       0.00094418 [Eh]
    Vibrational E           5.902 [kcal/mol]       24.694 [kJ/mol]       0.00940561 [Eh]
  Correction E              7.383 [kcal/mol]       30.892 [kJ/mol]       0.01176607 [Eh]
  Total E, Electronic energy at  298.15 [K]                           -100.44744053 [Eh]

  Enthalpy, H_trans = E_trans + k_B * T
    Electronic H            0.000 [kcal/mol]        0.000 [kJ/mol]       0.00000000 [Eh]
    Translational H         1.481 [kcal/mol]        6.197 [kJ/mol]       0.00236046 [Eh]
    Rotational H            0.592 [kcal/mol]        2.479 [kJ/mol]       0.00094418 [Eh]
    Vibrational H           5.902 [kcal/mol]       24.694 [kJ/mol]       0.00940561 [Eh]
  Correction H              7.976 [kcal/mol]       33.371 [kJ/mol]       0.01271026 [Eh]
  Total H, Enthalpy at  298.15 [K]                                    -100.44649635 [Eh]

  Gibbs free energy, G = H - T * S
    Electronic G            0.000 [kcal/mol]        0.000 [kJ/mol]       0.00000000 [Eh]
    Translational G        -8.931 [kcal/mol]      -37.366 [kJ/mol]      -0.01423187 [Eh]
    Rotational G           -1.362 [kcal/mol]       -5.700 [kJ/mol]      -0.00217108 [Eh]
    Vibrational G           5.902 [kcal/mol]       24.694 [kJ/mol]       0.00940561 [Eh]
  Correction G             -4.391 [kcal/mol]      -18.371 [kJ/mol]      -0.00699733 [Eh]
  Total G, Free enthalpy at  298.15 [K]                               -100.46620394 [Eh]

    Psi4 stopped on: Tuesday, 20 April 2021 11:09AM
    Psi4 wall time for execution: 0:00:38.73

*** Psi4 exiting successfully. Buy a developer a beer!
