
    -----------------------------------------------------------------------
          Psi4: An Open-Source Ab Initio Electronic Structure Package
                               Psi4 1.3.2 release

                         Git: Rev {HEAD} ecbda83 


    R. M. Parrish, L. A. Burns, D. G. A. Smith, A. C. Simmonett,
    A. E. DePrince III, E. G. Hohenstein, U. Bozkaya, A. Yu. Sokolov,
    R. Di Remigio, R. M. Richard, J. F. Gonthier, A. M. James,
    H. R. McAlexander, A. Kumar, M. Saitow, X. Wang, B. P. Pritchard,
    P. Verma, H. F. Schaefer III, K. Patkowski, R. A. King, E. F. Valeev,
    F. A. Evangelista, J. M. Turney, T. D. Crawford, and C. D. Sherrill,
    J. Chem. Theory Comput. 13(7) pp 3185--3197 (2017).
    (doi: 10.1021/acs.jctc.7b00174)


                         Additional Contributions by
    P. Kraus, H. Kruse, M. H. Lechner, M. C. Schieber, R. A. Shaw,
    A. Alenaizan, R. Galvelis, Z. L. Glick, S. Lehtola, and J. P. Misiewicz

    -----------------------------------------------------------------------


    Psi4 started on: Tuesday, 20 April 2021 11:12AM

    Process ID: 129336
    Host:       bp1-compute00154.data.bp.acrc.priv
    PSIDATADIR: /work/zw18965/.conda/envs/p4env/share/psi4
    Memory:     500.0 MiB
    Threads:    24
    
  ==> Input File <==

--------------------------------------------------------------------------
memory 144 GB

molecule {
0 1
N     0.000000000000   0.000000000000  -1.102291942126
N     0.000000000000   0.000000000000   0.001494698075
O     0.000000000000   0.000000000000   1.159797248627}

set basis aug-cc-pV(Q+d)Z
 
optimize("wB97X-V")
frequencies("wB97X-V")--------------------------------------------------------------------------

  Memory set to 134.110 GiB by Python driver.
gradient() will perform gradient computation by finite difference of analytic energies.

         ----------------------------------------------------------
                                   FINDIF
                     R. A. King and Jonathon Misiewicz
         ---------------------------------------------------------

  Using finite-differences of energies to determine gradients.
    Generating geometries for use with 3-point formula.
    Displacement size will be 5.00e-03.
    Number of atoms is 3.
    Number of symmetric SALCs is 2.
    Translations projected? 1. Rotations projected? 1.
    Number of geometries (including reference) is 5.

  //>>>>>>>>>>>>>>>>>>>>>>>>>>>>>>>>>>>//
  //    Loading displacement 1 of 5    //
  //<<<<<<<<<<<<<<<<<<<<<<<<<<<<<<<<<<<//

*** tstart() called on bp1-compute00154.data.bp.acrc.priv
*** at Tue Apr 20 11:12:57 2021

   => Loading Basis Set <=

    Name: AUG-CC-PV(Q+D)Z
    Role: ORBITAL
    Keyword: BASIS
    atoms 1-2 entry N          line   379 file /work/zw18965/.conda/envs/p4env/share/psi4/basis/aug-cc-pv_qpd_z.gbs 
    atoms 3   entry O          line   439 file /work/zw18965/.conda/envs/p4env/share/psi4/basis/aug-cc-pv_qpd_z.gbs 


         ---------------------------------------------------------
                                   SCF
               by Justin Turney, Rob Parrish, Andy Simmonett
                          and Daniel G. A. Smith
                              RKS Reference
                       24 Threads, 137329 MiB Core
         ---------------------------------------------------------

  ==> Geometry <==

    Molecular point group: c2v
    Full point group: C_inf_v

    Geometry (in Angstrom), charge = 0, multiplicity = 1:

       Center              X                  Y                   Z               Mass       
    ------------   -----------------  -----------------  -----------------  -----------------
         N            0.000000000000     0.000000000000    -1.173570054702    14.003074004430
         N            0.000000000000     0.000000000000    -0.069783414501    14.003074004430
         O            0.000000000000     0.000000000000     1.088519136051    15.994914619570

  Running in c2v symmetry.

  Rotational constants: A = ************  B =      0.44008  C =      0.44008 [cm^-1]
  Rotational constants: A = ************  B =  13193.16785  C =  13193.16785 [MHz]
  Nuclear repulsion =   62.175740977902905

  Charge       = 0
  Multiplicity = 1
  Electrons    = 22
  Nalpha       = 11
  Nbeta        = 11

  ==> Algorithm <==

  SCF Algorithm Type is DF.
  DIIS enabled.
  MOM disabled.
  Fractional occupation disabled.
  Guess Type is SAD.
  Energy threshold   = 1.00e-08
  Density threshold  = 1.00e-08
  Integral threshold = 0.00e+00

  ==> Primary Basis <==

  Basis Set: AUG-CC-PV(Q+D)Z
    Blend: AUG-CC-PV(Q+D)Z
    Number of shells: 60
    Number of basis function: 240
    Number of Cartesian functions: 315
    Spherical Harmonics?: true
    Max angular momentum: 4

  ==> DFT Potential <==

   => Composite Functional: WB97X-V <= 

    wB97X-V Hyb-GGA Exchange-Correlation Functional

    N. Mardirossian and M. Head-Gordon, Phys. Chem. Chem. Phys. 16, 9904 (2014)

    Deriv               =              1
    GGA                 =           TRUE
    Meta                =          FALSE

    Exchange Hybrid     =           TRUE
    MP2 Hybrid          =          FALSE

   => Exchange-Correlation Functionals <=

    1.0000   wB97X-V range-separated functional

   => Exact (HF) Exchange <=

    0.8330            HF,LR [omega = 0.3000]
    0.1670               HF 

   => VV10 Non-Local Parameters <=

    VV10 B              =     6.0000E+00
    VV10 C              =     1.0000E-02

   => Molecular Quadrature <=

    Radial Scheme          =       TREUTLER
    Pruning Scheme         =           FLAT
    Nuclear Scheme         =       TREUTLER

    BS radius alpha        =              1
    Pruning alpha          =              1
    Radial Points          =             75
    Spherical Points       =            302
    Total Points           =          67950
    Total Blocks           =            584
    Max Points             =            256
    Max Functions          =            240

   => Loading Basis Set <=

    Name: (AUG-CC-PV(Q+D)Z AUX)
    Role: JKFIT
    Keyword: DF_BASIS_SCF
    atoms 1-2 entry N          line   248 file /work/zw18965/.conda/envs/p4env/share/psi4/basis/aug-cc-pvqz-jkfit.gbs 
    atoms 3   entry O          line   318 file /work/zw18965/.conda/envs/p4env/share/psi4/basis/aug-cc-pvqz-jkfit.gbs 

  ==> Pre-Iterations <==

   -------------------------------------------------------
    Irrep   Nso     Nmo     Nalpha   Nbeta   Ndocc  Nsocc
   -------------------------------------------------------
     A1        93      93       0       0       0       0
     A2        33      33       0       0       0       0
     B1        57      57       0       0       0       0
     B2        57      57       0       0       0       0
   -------------------------------------------------------
    Total     240     240      11      11      11       0
   -------------------------------------------------------

  ==> Integral Setup <==

  ==> DiskDFJK: Density-Fitted J/K Matrices <==

    J tasked:                  Yes
    K tasked:                  Yes
    wK tasked:                 Yes
    Omega:               3.000E-01
    OpenMP threads:             24
    Integrals threads:          24
    Memory [MiB]:           102579
    Algorithm:                Core
    Integral Cache:           NONE
    Schwarz Cutoff:          1E-12
    Fitting Condition:       1E-10

   => Auxiliary Basis Set <=

  Basis Set: (AUG-CC-PV(Q+D)Z AUX)
    Blend: AUG-CC-PVQZ-JKFIT
    Number of shells: 102
    Number of basis function: 426
    Number of Cartesian functions: 594
    Spherical Harmonics?: true
    Max angular momentum: 5

  Cached 100.0% of DFT collocation blocks in 0.408 [GiB].

  Minimum eigenvalue in the overlap matrix is 1.5906670950E-05.
  Using Symmetric Orthogonalization.

  SCF Guess: Superposition of Atomic Densities via on-the-fly atomic UHF.

  ==> Iterations <==

                           Total Energy        Delta E     RMS |[F,P]|

   @DF-RKS iter SAD:  -184.27683141338758   -1.84277e+02   0.00000e+00 
   @DF-RKS iter   1:  -184.59523249265985   -3.18401e-01   4.06563e-03 DIIS
   @DF-RKS iter   2:  -184.57045167934533    2.47808e-02   4.68182e-03 DIIS
   @DF-RKS iter   3:  -184.68167508585506   -1.11223e-01   7.23153e-04 DIIS
   @DF-RKS iter   4:  -184.68372662493169   -2.05154e-03   4.02676e-04 DIIS
   @DF-RKS iter   5:  -184.68462380199932   -8.97177e-04   5.57536e-05 DIIS
   @DF-RKS iter   6:  -184.68464557956261   -2.17776e-05   1.22488e-05 DIIS
   @DF-RKS iter   7:  -184.68464674978202   -1.17022e-06   1.93822e-06 DIIS
   @DF-RKS iter   8:  -184.68464680815001   -5.83680e-08   3.24852e-07 DIIS
   @DF-RKS iter   9:  -184.68464680965249   -1.50249e-09   6.10170e-08 DIIS
   @DF-RKS iter  10:  -184.68464680969848   -4.59863e-11   1.28620e-08 DIIS
   @DF-RKS iter  11:  -184.68464680970004   -1.56319e-12   1.03822e-09 DIIS
  Energy and wave function converged.


  ==> Post-Iterations <==

    Orbital Energies [Eh]
    ---------------------

    Doubly Occupied:                                                      

       1A1   -19.307958     2A1   -14.642719     3A1   -14.500528  
       4A1    -1.401594     5A1    -1.233656     6A1    -0.722451  
       1B1    -0.701635     1B2    -0.701635     7A1    -0.594370  
       2B2    -0.448953     2B1    -0.448953  

    Virtual:                                                              

       8A1     0.052929     3B2     0.076097     3B1     0.076097  
       9A1     0.076518     4B2     0.117690     4B1     0.117690  
      10A1     0.120396     5B1     0.132283     5B2     0.132283  
      11A1     0.191521     6B1     0.199672     6B2     0.199672  
      12A1     0.221537    13A1     0.247881    14A1     0.284596  
       1A2     0.284599    15A1     0.331754    16A1     0.368170  
       7B1     0.377857     7B2     0.377857     2A2     0.389491  
      17A1     0.389493    18A1     0.442717     8B1     0.478960  
       8B2     0.478960     9B1     0.502424     9B2     0.502424  
      19A1     0.569767    20A1     0.603346     3A2     0.603355  
      10B1     0.615464    10B2     0.615464    21A1     0.617446  
      22A1     0.722562    23A1     0.745072    11B1     0.787862  
      11B2     0.787862    24A1     0.850907    25A1     0.872872  
       4A2     0.872874    12B2     0.879273    12B1     0.879273  
      13B1     0.929105    13B2     0.929105    26A1     0.932687  
       5A2     0.932690    27A1     0.962369    14B1     1.093849  
      14B2     1.093849    15B2     1.101093    15B1     1.101093  
      28A1     1.141250    29A1     1.244219     6A2     1.244222  
      16B1     1.301463    16B2     1.301463    30A1     1.311584  
      31A1     1.340877    32A1     1.466175     7A2     1.466177  
      17B2     1.475482    17B1     1.475482    18B1     1.489920  
      18B2     1.489920    33A1     1.492158    34A1     1.603215  
      19B1     1.654599    19B2     1.654599    35A1     1.667482  
       8A2     1.667485    36A1     1.780097    20B1     1.827483  
      20B2     1.827483    21B1     1.889933    21B2     1.889933  
      37A1     1.896994     9A2     1.974017    38A1     1.974020  
      39A1     2.101660    22B1     2.193767    22B2     2.193767  
      10A2     2.512375    40A1     2.512378    41A1     2.660889  
      11A2     2.660889    23B1     2.667291    23B2     2.667291  
      24B1     2.738106    24B2     2.738106    42A1     2.789605  
      43A1     2.805618    25B1     2.891960    25B2     2.891960  
      26B1     2.914827    26B2     2.914827    44A1     2.916493  
      12A2     2.928977    45A1     2.928982    13A2     2.944739  
      46A1     2.944747    27B2     3.016443    27B1     3.016443  
      47A1     3.031386    14A2     3.031386    48A1     3.116256  
      28B1     3.116436    28B2     3.116436    49A1     3.171208  
      15A2     3.171216    29B1     3.239662    29B2     3.239662  
      50A1     3.316793    30B1     3.488503    30B2     3.488503  
      51A1     3.514739    52A1     3.613659    16A2     3.613663  
      31B1     3.702636    31B2     3.702636    53A1     3.786824  
      54A1     3.816649    17A2     3.816650    32B1     3.941906  
      32B2     3.941906    33B2     3.944992    33B1     3.944992  
      55A1     4.047917    34B1     4.111028    34B2     4.111028  
      56A1     4.228552    18A2     4.228555    57A1     4.389061  
      19A2     4.534983    58A1     4.534987    35B2     4.577489  
      35B1     4.577489    36B1     4.626836    36B2     4.626836  
      59A1     4.966089    60A1     5.189629    20A2     5.189635  
      37B1     5.237381    37B2     5.237381    61A1     5.342584  
      62A1     5.385219    63A1     5.609763    21A2     5.609788  
      38B1     5.890846    38B2     5.890846    64A1     5.931266  
      65A1     6.142773    39B2     6.177597    39B1     6.177597  
      66A1     6.884486    40B2     7.464353    40B1     7.464353  
      67A1     7.545258    22A2     7.545259    41B2     7.683349  
      41B1     7.683349    23A2     7.693389    68A1     7.693415  
      24A2     8.031298    69A1     8.031328    70A1     8.058769  
      42B1     8.201012    42B2     8.201012    71A1     8.319795  
      25A2     8.319803    43B1     8.406882    43B2     8.406882  
      44B2     8.470840    44B1     8.470840    72A1     8.572171  
      45B2     8.690013    45B1     8.690013    46B1     8.800497  
      46B2     8.800497    73A1     8.910626    26A2     8.910639  
      74A1     8.918733    47B2     9.015801    47B1     9.015801  
      75A1     9.276527    76A1     9.281441    27A2     9.281450  
      48B1     9.342815    48B2     9.342815    77A1    10.010552  
      28A2    10.154813    78A1    10.154813    79A1    10.228686  
      29A2    10.228762    80A1    10.278223    30A2    10.278234  
      49B1    10.394798    49B2    10.394798    50B2    10.538352  
      50B1    10.538352    51B1    10.802947    51B2    10.802947  
      52B1    10.988800    52B2    10.988800    81A1    11.077166  
      31A2    11.298532    82A1    11.298537    83A1    11.347575  
      53B2    11.461416    53B1    11.461416    54B1    11.630026  
      54B2    11.630026    32A2    12.134593    84A1    12.134594  
      55B2    12.147180    55B1    12.147180    85A1    12.148561  
      33A2    12.629767    86A1    12.629797    87A1    12.731620  
      56B2    13.446711    56B1    13.446711    88A1    13.601705  
      57B1    14.921617    57B2    14.921617    89A1    15.651264  
      90A1    16.116989    91A1    33.574338    92A1    34.067562  
      93A1    42.737188  

    Final Occupation by Irrep:
             A1    A2    B1    B2 
    DOCC [     7,    0,    2,    2 ]

  @DF-RKS Final Energy:  -184.68464680970004

   => Energetics <=

    Nuclear Repulsion Energy =             62.1757409779029047
    One-Electron Energy =                -373.6235749361076159
    Two-Electron Energy =                 142.5681099658876576
    DFT Exchange-Correlation Energy =     -15.8961405347795033
    Empirical Dispersion Energy =           0.0000000000000000
    VV10 Nonlocal Energy =                  0.0912177173964925
    Total Energy =                       -184.6846468097000411

Computation Completed


Properties will be evaluated at   0.000000,   0.000000,   0.000000 [a0]

Properties computed using the SCF density matrix

  Nuclear Dipole Moment: [e a0]
     X:     0.0000      Y:     0.0000      Z:     0.0088

  Electronic Dipole Moment: [e a0]
     X:     0.0000      Y:     0.0000      Z:    -0.0305

  Dipole Moment: [e a0]
     X:     0.0000      Y:     0.0000      Z:    -0.0216     Total:     0.0216

  Dipole Moment: [D]
     X:     0.0000      Y:     0.0000      Z:    -0.0549     Total:     0.0549


*** tstop() called on bp1-compute00154.data.bp.acrc.priv at Tue Apr 20 11:13:03 2021
Module time:
	user time   =     124.73 seconds =       2.08 minutes
	system time =       5.82 seconds =       0.10 minutes
	total time  =          6 seconds =       0.10 minutes
Total time:
	user time   =     124.73 seconds =       2.08 minutes
	system time =       5.82 seconds =       0.10 minutes
	total time  =          6 seconds =       0.10 minutes

  //>>>>>>>>>>>>>>>>>>>>>>>>>>>>>>>>>>>//
  //    Loading displacement 2 of 5    //
  //<<<<<<<<<<<<<<<<<<<<<<<<<<<<<<<<<<<//

*** tstart() called on bp1-compute00154.data.bp.acrc.priv
*** at Tue Apr 20 11:13:03 2021

   => Loading Basis Set <=

    Name: AUG-CC-PV(Q+D)Z
    Role: ORBITAL
    Keyword: BASIS
    atoms 1-2 entry N          line   379 file /work/zw18965/.conda/envs/p4env/share/psi4/basis/aug-cc-pv_qpd_z.gbs 
    atoms 3   entry O          line   439 file /work/zw18965/.conda/envs/p4env/share/psi4/basis/aug-cc-pv_qpd_z.gbs 


         ---------------------------------------------------------
                                   SCF
               by Justin Turney, Rob Parrish, Andy Simmonett
                          and Daniel G. A. Smith
                              RKS Reference
                       24 Threads, 137329 MiB Core
         ---------------------------------------------------------

  ==> Geometry <==

    Molecular point group: c2v
    Full point group: C_inf_v

    Geometry (in Angstrom), charge = 0, multiplicity = 1:

       Center              X                  Y                   Z               Mass       
    ------------   -----------------  -----------------  -----------------  -----------------
         N            0.000000000000     0.000000000000    -1.174153867929    14.003074004430
         N            0.000000000000     0.000000000000    -0.069510890235    14.003074004430
         O            0.000000000000     0.000000000000     1.088791660317    15.994914619570

  Running in c2v symmetry.

  Rotational constants: A = ************  B =      0.43975  C =      0.43975 [cm^-1]
  Rotational constants: A = ************  B =  13183.47889  C =  13183.47889 [MHz]
  Nuclear repulsion =   62.152572564896275

  Charge       = 0
  Multiplicity = 1
  Electrons    = 22
  Nalpha       = 11
  Nbeta        = 11

  ==> Algorithm <==

  SCF Algorithm Type is DF.
  DIIS enabled.
  MOM disabled.
  Fractional occupation disabled.
  Guess Type is SAD.
  Energy threshold   = 1.00e-08
  Density threshold  = 1.00e-08
  Integral threshold = 0.00e+00

  ==> Primary Basis <==

  Basis Set: AUG-CC-PV(Q+D)Z
    Blend: AUG-CC-PV(Q+D)Z
    Number of shells: 60
    Number of basis function: 240
    Number of Cartesian functions: 315
    Spherical Harmonics?: true
    Max angular momentum: 4

  ==> DFT Potential <==

   => Composite Functional: WB97X-V <= 

    wB97X-V Hyb-GGA Exchange-Correlation Functional

    N. Mardirossian and M. Head-Gordon, Phys. Chem. Chem. Phys. 16, 9904 (2014)

    Deriv               =              1
    GGA                 =           TRUE
    Meta                =          FALSE

    Exchange Hybrid     =           TRUE
    MP2 Hybrid          =          FALSE

   => Exchange-Correlation Functionals <=

    1.0000   wB97X-V range-separated functional

   => Exact (HF) Exchange <=

    0.8330            HF,LR [omega = 0.3000]
    0.1670               HF 

   => VV10 Non-Local Parameters <=

    VV10 B              =     6.0000E+00
    VV10 C              =     1.0000E-02

   => Molecular Quadrature <=

    Radial Scheme          =       TREUTLER
    Pruning Scheme         =           FLAT
    Nuclear Scheme         =       TREUTLER

    BS radius alpha        =              1
    Pruning alpha          =              1
    Radial Points          =             75
    Spherical Points       =            302
    Total Points           =          67950
    Total Blocks           =            584
    Max Points             =            256
    Max Functions          =            240

   => Loading Basis Set <=

    Name: (AUG-CC-PV(Q+D)Z AUX)
    Role: JKFIT
    Keyword: DF_BASIS_SCF
    atoms 1-2 entry N          line   248 file /work/zw18965/.conda/envs/p4env/share/psi4/basis/aug-cc-pvqz-jkfit.gbs 
    atoms 3   entry O          line   318 file /work/zw18965/.conda/envs/p4env/share/psi4/basis/aug-cc-pvqz-jkfit.gbs 

  ==> Pre-Iterations <==

   -------------------------------------------------------
    Irrep   Nso     Nmo     Nalpha   Nbeta   Ndocc  Nsocc
   -------------------------------------------------------
     A1        93      93       0       0       0       0
     A2        33      33       0       0       0       0
     B1        57      57       0       0       0       0
     B2        57      57       0       0       0       0
   -------------------------------------------------------
    Total     240     240      11      11      11       0
   -------------------------------------------------------

  ==> Integral Setup <==

  ==> DiskDFJK: Density-Fitted J/K Matrices <==

    J tasked:                  Yes
    K tasked:                  Yes
    wK tasked:                 Yes
    Omega:               3.000E-01
    OpenMP threads:             24
    Integrals threads:          24
    Memory [MiB]:           102579
    Algorithm:                Core
    Integral Cache:           NONE
    Schwarz Cutoff:          1E-12
    Fitting Condition:       1E-10

   => Auxiliary Basis Set <=

  Basis Set: (AUG-CC-PV(Q+D)Z AUX)
    Blend: AUG-CC-PVQZ-JKFIT
    Number of shells: 102
    Number of basis function: 426
    Number of Cartesian functions: 594
    Spherical Harmonics?: true
    Max angular momentum: 5

  Cached 100.0% of DFT collocation blocks in 0.408 [GiB].

  Minimum eigenvalue in the overlap matrix is 1.5954117383E-05.
  Using Symmetric Orthogonalization.

  SCF Guess: Superposition of Atomic Densities via on-the-fly atomic UHF.

  ==> Iterations <==

                           Total Energy        Delta E     RMS |[F,P]|

   @DF-RKS iter SAD:  -184.27501208145006   -1.84275e+02   0.00000e+00 
   @DF-RKS iter   1:  -184.59524660754167   -3.20235e-01   4.06564e-03 DIIS
   @DF-RKS iter   2:  -184.57002332743423    2.52233e-02   4.69013e-03 DIIS
   @DF-RKS iter   3:  -184.68170764590670   -1.11684e-01   7.26004e-04 DIIS
   @DF-RKS iter   4:  -184.68377689566191   -2.06925e-03   4.04006e-04 DIIS
   @DF-RKS iter   5:  -184.68468043836751   -9.03543e-04   5.56185e-05 DIIS
   @DF-RKS iter   6:  -184.68470213610760   -2.16977e-05   1.22517e-05 DIIS
   @DF-RKS iter   7:  -184.68470330674697   -1.17064e-06   1.94008e-06 DIIS
   @DF-RKS iter   8:  -184.68470336518547   -5.84385e-08   3.25153e-07 DIIS
   @DF-RKS iter   9:  -184.68470336669037   -1.50490e-09   6.11942e-08 DIIS
   @DF-RKS iter  10:  -184.68470336673667   -4.62990e-11   1.29268e-08 DIIS
   @DF-RKS iter  11:  -184.68470336673883   -2.16005e-12   1.04263e-09 DIIS
  Energy and wave function converged.


  ==> Post-Iterations <==

    Orbital Energies [Eh]
    ---------------------

    Doubly Occupied:                                                      

       1A1   -19.308135     2A1   -14.642847     3A1   -14.500682  
       4A1    -1.401528     5A1    -1.233217     6A1    -0.722596  
       1B2    -0.701456     1B1    -0.701456     7A1    -0.594392  
       2B1    -0.448897     2B2    -0.448897  

    Virtual:                                                              

       8A1     0.052919     3B2     0.075907     3B1     0.075907  
       9A1     0.076518     4B2     0.117587     4B1     0.117587  
      10A1     0.120388     5B1     0.132251     5B2     0.132251  
      11A1     0.191517     6B1     0.199648     6B2     0.199648  
      12A1     0.221447    13A1     0.247895    14A1     0.284601  
       1A2     0.284603    15A1     0.331746    16A1     0.367859  
       7B1     0.377843     7B2     0.377843     2A2     0.389503  
      17A1     0.389505    18A1     0.442691     8B2     0.478965  
       8B1     0.478965     9B2     0.502487     9B1     0.502487  
      19A1     0.569657    20A1     0.603288     3A2     0.603297  
      10B1     0.615403    10B2     0.615403    21A1     0.617498  
      22A1     0.722481    23A1     0.745007    11B1     0.787753  
      11B2     0.787753    24A1     0.850858    25A1     0.872929  
       4A2     0.872931    12B1     0.879273    12B2     0.879273  
      13B2     0.929110    13B1     0.929110    26A1     0.932781  
       5A2     0.932784    27A1     0.961871    14B1     1.093791  
      14B2     1.093791    15B1     1.101054    15B2     1.101054  
      28A1     1.140601    29A1     1.244096     6A2     1.244099  
      16B1     1.301376    16B2     1.301376    30A1     1.311395  
      31A1     1.340624    32A1     1.465950     7A2     1.465951  
      17B1     1.475348    17B2     1.475348    18B2     1.489629  
      18B1     1.489629    33A1     1.492167    34A1     1.603118  
      19B2     1.654418    19B1     1.654418    35A1     1.667338  
       8A2     1.667341    36A1     1.779866    20B1     1.827390  
      20B2     1.827390    21B2     1.889920    21B1     1.889920  
      37A1     1.897026     9A2     1.974096    38A1     1.974098  
      39A1     2.101501    22B1     2.194187    22B2     2.194187  
      10A2     2.512448    40A1     2.512451    41A1     2.661003  
      11A2     2.661003    23B2     2.667277    23B1     2.667277  
      24B1     2.738024    24B2     2.738024    42A1     2.789879  
      43A1     2.805271    25B2     2.891953    25B1     2.891953  
      26B2     2.914609    26B1     2.914609    44A1     2.915851  
      12A2     2.928744    45A1     2.928748    13A2     2.944715  
      46A1     2.944722    27B2     3.016345    27B1     3.016345  
      47A1     3.031425    14A2     3.031425    48A1     3.115659  
      28B1     3.116047    28B2     3.116047    49A1     3.170687  
      15A2     3.170695    29B1     3.239458    29B2     3.239458  
      50A1     3.315852    30B2     3.487543    30B1     3.487543  
      51A1     3.514673    52A1     3.613491    16A2     3.613495  
      31B2     3.701796    31B1     3.701796    53A1     3.786820  
      54A1     3.816230    17A2     3.816232    32B2     3.941529  
      32B1     3.941529    33B1     3.944689    33B2     3.944689  
      55A1     4.047466    34B1     4.110805    34B2     4.110805  
      56A1     4.228085    18A2     4.228089    57A1     4.388640  
      19A2     4.533996    58A1     4.534000    35B1     4.576946  
      35B2     4.576946    36B2     4.626132    36B1     4.626132  
      59A1     4.964294    60A1     5.188959    20A2     5.188964  
      37B1     5.237563    37B2     5.237563    61A1     5.342117  
      62A1     5.383174    63A1     5.609265    21A2     5.609289  
      38B1     5.890002    38B2     5.890002    64A1     5.931480  
      65A1     6.140986    39B1     6.178118    39B2     6.178118  
      66A1     6.883475    40B1     7.465146    40B2     7.465146  
      67A1     7.544932    22A2     7.544932    41B1     7.683084  
      41B2     7.683084    23A2     7.693887    68A1     7.693913  
      24A2     8.030849    69A1     8.030879    70A1     8.058367  
      42B1     8.200231    42B2     8.200231    71A1     8.320716  
      25A2     8.320724    43B1     8.406348    43B2     8.406348  
      44B1     8.470560    44B2     8.470560    72A1     8.572180  
      45B1     8.689721    45B2     8.689721    46B2     8.799490  
      46B1     8.799490    73A1     8.910592    26A2     8.910606  
      74A1     8.916660    47B2     9.014247    47B1     9.014247  
      75A1     9.274779    76A1     9.280639    27A2     9.280649  
      48B2     9.342622    48B1     9.342622    77A1    10.008837  
      28A2    10.151684    78A1    10.151685    79A1    10.228533  
      29A2    10.228609    80A1    10.275699    30A2    10.275711  
      49B1    10.391634    49B2    10.391634    50B1    10.538092  
      50B2    10.538092    51B2    10.802623    51B1    10.802623  
      52B1    10.986081    52B2    10.986081    81A1    11.076970  
      31A2    11.296709    82A1    11.296713    83A1    11.345549  
      53B1    11.461134    53B2    11.461134    54B2    11.629743  
      54B1    11.629743    32A2    12.134400    84A1    12.134401  
      55B2    12.143881    55B1    12.143881    85A1    12.145908  
      33A2    12.629173    86A1    12.629203    87A1    12.730043  
      56B2    13.444195    56B1    13.444195    88A1    13.598988  
      57B2    14.917886    57B1    14.917886    89A1    15.647072  
      90A1    16.114997    91A1    33.557937    92A1    34.062856  
      93A1    42.736069  

    Final Occupation by Irrep:
             A1    A2    B1    B2 
    DOCC [     7,    0,    2,    2 ]

  @DF-RKS Final Energy:  -184.68470336673883

   => Energetics <=

    Nuclear Repulsion Energy =             62.1525725648962748
    One-Electron Energy =                -373.5785930486390498
    Two-Electron Energy =                 142.5453870888504468
    DFT Exchange-Correlation Energy =     -15.8952874301122407
    Empirical Dispersion Energy =           0.0000000000000000
    VV10 Nonlocal Energy =                  0.0912174582657507
    Total Energy =                       -184.6847033667388018

Computation Completed


Properties will be evaluated at   0.000000,   0.000000,   0.000000 [a0]

Properties computed using the SCF density matrix

  Nuclear Dipole Moment: [e a0]
     X:     0.0000      Y:     0.0000      Z:     0.0088

  Electronic Dipole Moment: [e a0]
     X:     0.0000      Y:     0.0000      Z:    -0.0291

  Dipole Moment: [e a0]
     X:     0.0000      Y:     0.0000      Z:    -0.0203     Total:     0.0203

  Dipole Moment: [D]
     X:     0.0000      Y:     0.0000      Z:    -0.0516     Total:     0.0516


*** tstop() called on bp1-compute00154.data.bp.acrc.priv at Tue Apr 20 11:13:09 2021
Module time:
	user time   =     132.00 seconds =       2.20 minutes
	system time =       4.46 seconds =       0.07 minutes
	total time  =          6 seconds =       0.10 minutes
Total time:
	user time   =     256.93 seconds =       4.28 minutes
	system time =      10.29 seconds =       0.17 minutes
	total time  =         12 seconds =       0.20 minutes

  //>>>>>>>>>>>>>>>>>>>>>>>>>>>>>>>>>>>//
  //    Loading displacement 3 of 5    //
  //<<<<<<<<<<<<<<<<<<<<<<<<<<<<<<<<<<<//

*** tstart() called on bp1-compute00154.data.bp.acrc.priv
*** at Tue Apr 20 11:13:09 2021

   => Loading Basis Set <=

    Name: AUG-CC-PV(Q+D)Z
    Role: ORBITAL
    Keyword: BASIS
    atoms 1-2 entry N          line   379 file /work/zw18965/.conda/envs/p4env/share/psi4/basis/aug-cc-pv_qpd_z.gbs 
    atoms 3   entry O          line   439 file /work/zw18965/.conda/envs/p4env/share/psi4/basis/aug-cc-pv_qpd_z.gbs 


         ---------------------------------------------------------
                                   SCF
               by Justin Turney, Rob Parrish, Andy Simmonett
                          and Daniel G. A. Smith
                              RKS Reference
                       24 Threads, 137329 MiB Core
         ---------------------------------------------------------

  ==> Geometry <==

    Molecular point group: c2v
    Full point group: C_inf_v

    Geometry (in Angstrom), charge = 0, multiplicity = 1:

       Center              X                  Y                   Z               Mass       
    ------------   -----------------  -----------------  -----------------  -----------------
         N            0.000000000000     0.000000000000    -1.172986241474    14.003074004430
         N            0.000000000000     0.000000000000    -0.070055938767    14.003074004430
         O            0.000000000000     0.000000000000     1.088246611785    15.994914619570

  Running in c2v symmetry.

  Rotational constants: A = ************  B =      0.44040  C =      0.44040 [cm^-1]
  Rotational constants: A = ************  B =  13202.86624  C =  13202.86624 [MHz]
  Nuclear repulsion =   62.198941424516292

  Charge       = 0
  Multiplicity = 1
  Electrons    = 22
  Nalpha       = 11
  Nbeta        = 11

  ==> Algorithm <==

  SCF Algorithm Type is DF.
  DIIS enabled.
  MOM disabled.
  Fractional occupation disabled.
  Guess Type is SAD.
  Energy threshold   = 1.00e-08
  Density threshold  = 1.00e-08
  Integral threshold = 0.00e+00

  ==> Primary Basis <==

  Basis Set: AUG-CC-PV(Q+D)Z
    Blend: AUG-CC-PV(Q+D)Z
    Number of shells: 60
    Number of basis function: 240
    Number of Cartesian functions: 315
    Spherical Harmonics?: true
    Max angular momentum: 4

  ==> DFT Potential <==

   => Composite Functional: WB97X-V <= 

    wB97X-V Hyb-GGA Exchange-Correlation Functional

    N. Mardirossian and M. Head-Gordon, Phys. Chem. Chem. Phys. 16, 9904 (2014)

    Deriv               =              1
    GGA                 =           TRUE
    Meta                =          FALSE

    Exchange Hybrid     =           TRUE
    MP2 Hybrid          =          FALSE

   => Exchange-Correlation Functionals <=

    1.0000   wB97X-V range-separated functional

   => Exact (HF) Exchange <=

    0.8330            HF,LR [omega = 0.3000]
    0.1670               HF 

   => VV10 Non-Local Parameters <=

    VV10 B              =     6.0000E+00
    VV10 C              =     1.0000E-02

   => Molecular Quadrature <=

    Radial Scheme          =       TREUTLER
    Pruning Scheme         =           FLAT
    Nuclear Scheme         =       TREUTLER

    BS radius alpha        =              1
    Pruning alpha          =              1
    Radial Points          =             75
    Spherical Points       =            302
    Total Points           =          67950
    Total Blocks           =            586
    Max Points             =            256
    Max Functions          =            240

   => Loading Basis Set <=

    Name: (AUG-CC-PV(Q+D)Z AUX)
    Role: JKFIT
    Keyword: DF_BASIS_SCF
    atoms 1-2 entry N          line   248 file /work/zw18965/.conda/envs/p4env/share/psi4/basis/aug-cc-pvqz-jkfit.gbs 
    atoms 3   entry O          line   318 file /work/zw18965/.conda/envs/p4env/share/psi4/basis/aug-cc-pvqz-jkfit.gbs 

  ==> Pre-Iterations <==

   -------------------------------------------------------
    Irrep   Nso     Nmo     Nalpha   Nbeta   Ndocc  Nsocc
   -------------------------------------------------------
     A1        93      93       0       0       0       0
     A2        33      33       0       0       0       0
     B1        57      57       0       0       0       0
     B2        57      57       0       0       0       0
   -------------------------------------------------------
    Total     240     240      11      11      11       0
   -------------------------------------------------------

  ==> Integral Setup <==

  ==> DiskDFJK: Density-Fitted J/K Matrices <==

    J tasked:                  Yes
    K tasked:                  Yes
    wK tasked:                 Yes
    Omega:               3.000E-01
    OpenMP threads:             24
    Integrals threads:          24
    Memory [MiB]:           102579
    Algorithm:                Core
    Integral Cache:           NONE
    Schwarz Cutoff:          1E-12
    Fitting Condition:       1E-10

   => Auxiliary Basis Set <=

  Basis Set: (AUG-CC-PV(Q+D)Z AUX)
    Blend: AUG-CC-PVQZ-JKFIT
    Number of shells: 102
    Number of basis function: 426
    Number of Cartesian functions: 594
    Spherical Harmonics?: true
    Max angular momentum: 5

  Cached 100.0% of DFT collocation blocks in 0.408 [GiB].

  Minimum eigenvalue in the overlap matrix is 1.5859273732E-05.
  Using Symmetric Orthogonalization.

  SCF Guess: Superposition of Atomic Densities via on-the-fly atomic UHF.

  ==> Iterations <==

                           Total Energy        Delta E     RMS |[F,P]|

   @DF-RKS iter SAD:  -184.27865152559508   -1.84279e+02   0.00000e+00 
   @DF-RKS iter   1:  -184.59521395416240   -3.16562e-01   4.06564e-03 DIIS
   @DF-RKS iter   2:  -184.57087347973905    2.43405e-02   4.67353e-03 DIIS
   @DF-RKS iter   3:  -184.68163842043774   -1.10765e-01   7.20320e-04 DIIS
   @DF-RKS iter   4:  -184.68367252821520   -2.03411e-03   4.01336e-04 DIIS
   @DF-RKS iter   5:  -184.68456330954905   -8.90781e-04   5.58899e-05 DIIS
   @DF-RKS iter   6:  -184.68458516774393   -2.18582e-05   1.22459e-05 DIIS
   @DF-RKS iter   7:  -184.68458633754341   -1.16980e-06   1.93635e-06 DIIS
   @DF-RKS iter   8:  -184.68458639584071   -5.82973e-08   3.24549e-07 DIIS
   @DF-RKS iter   9:  -184.68458639734041   -1.49970e-09   6.08407e-08 DIIS
   @DF-RKS iter  10:  -184.68458639738583   -4.54179e-11   1.27978e-08 DIIS
   @DF-RKS iter  11:  -184.68458639738773   -1.90425e-12   1.03390e-09 DIIS
  Energy and wave function converged.


  ==> Post-Iterations <==

    Orbital Energies [Eh]
    ---------------------

    Doubly Occupied:                                                      

       1A1   -19.307781     2A1   -14.642590     3A1   -14.500374  
       4A1    -1.401662     5A1    -1.234094     6A1    -0.722307  
       1B1    -0.701815     1B2    -0.701815     7A1    -0.594347  
       2B1    -0.449008     2B2    -0.449008  

    Virtual:                                                              

       8A1     0.052939     3B1     0.076286     3B2     0.076286  
       9A1     0.076518     4B2     0.117793     4B1     0.117793  
      10A1     0.120404     5B2     0.132316     5B1     0.132316  
      11A1     0.191526     6B2     0.199697     6B1     0.199697  
      12A1     0.221626    13A1     0.247868    14A1     0.284592  
       1A2     0.284594    15A1     0.331762    16A1     0.368481  
       7B2     0.377871     7B1     0.377871     2A2     0.389479  
      17A1     0.389481    18A1     0.442742     8B2     0.478955  
       8B1     0.478955     9B2     0.502362     9B1     0.502362  
      19A1     0.569876    20A1     0.603405     3A2     0.603414  
      10B1     0.615525    10B2     0.615525    21A1     0.617394  
      22A1     0.722643    23A1     0.745137    11B2     0.787972  
      11B1     0.787972    24A1     0.850956    25A1     0.872814  
       4A2     0.872816    12B1     0.879273    12B2     0.879273  
      13B2     0.929099    13B1     0.929099    26A1     0.932594  
       5A2     0.932597    27A1     0.962864    14B2     1.093907  
      14B1     1.093907    15B2     1.101131    15B1     1.101131  
      28A1     1.141904    29A1     1.244342     6A2     1.244345  
      16B2     1.301551    16B1     1.301551    30A1     1.311775  
      31A1     1.341130    32A1     1.466401     7A2     1.466402  
      17B2     1.475617    17B1     1.475617    18B2     1.490213  
      18B1     1.490213    33A1     1.492152    34A1     1.603312  
      19B2     1.654779    19B1     1.654779    35A1     1.667627  
       8A2     1.667629    36A1     1.780330    20B2     1.827575  
      20B1     1.827575    21B2     1.889946    21B1     1.889946  
      37A1     1.896963     9A2     1.973939    38A1     1.973942  
      39A1     2.101818    22B2     2.193348    22B1     2.193348  
      10A2     2.512302    40A1     2.512306    41A1     2.660775  
      11A2     2.660776    23B1     2.667303    23B2     2.667303  
      24B1     2.738187    24B2     2.738187    42A1     2.789313  
      43A1     2.805977    25B1     2.891966    25B2     2.891966  
      26B2     2.915045    26B1     2.915045    44A1     2.917138  
      12A2     2.929210    45A1     2.929215    13A2     2.944764  
      46A1     2.944772    27B1     3.016543    27B2     3.016543  
      47A1     3.031346    14A2     3.031346    28B2     3.116825  
      28B1     3.116825    48A1     3.116854    49A1     3.171733  
      15A2     3.171741    29B2     3.239868    29B1     3.239868  
      50A1     3.317738    30B2     3.489466    30B1     3.489466  
      51A1     3.514806    52A1     3.613828    16A2     3.613831  
      31B1     3.703476    31B2     3.703476    53A1     3.786828  
      54A1     3.817067    17A2     3.817069    32B2     3.942281  
      32B1     3.942281    33B2     3.945297    33B1     3.945297  
      55A1     4.048369    34B1     4.111252    34B2     4.111252  
      56A1     4.229017    18A2     4.229020    57A1     4.389481  
      19A2     4.535972    58A1     4.535976    35B2     4.578031  
      35B1     4.578031    36B1     4.627541    36B2     4.627541  
      59A1     4.967883    60A1     5.190299    20A2     5.190304  
      37B2     5.237195    37B1     5.237195    61A1     5.343046  
      62A1     5.387260    63A1     5.610267    21A2     5.610291  
      38B2     5.891693    38B1     5.891693    64A1     5.931056  
      65A1     6.144575    39B2     6.177076    39B1     6.177076  
      66A1     6.885500    40B1     7.463564    40B2     7.463564  
      67A1     7.545588    22A2     7.545588    41B2     7.683611  
      41B1     7.683611    23A2     7.692889    68A1     7.692916  
      24A2     8.031748    69A1     8.031778    70A1     8.059164  
      42B1     8.201788    42B2     8.201788    71A1     8.318869  
      25A2     8.318878    43B2     8.407424    43B1     8.407424  
      44B1     8.471113    44B2     8.471113    72A1     8.572166  
      45B2     8.690306    45B1     8.690306    46B2     8.801507  
      46B1     8.801507    73A1     8.910656    26A2     8.910670  
      74A1     8.920776    47B2     9.017364    47B1     9.017364  
      75A1     9.278311    76A1     9.282249    27A2     9.282258  
      48B2     9.343017    48B1     9.343017    77A1    10.012274  
      28A2    10.157943    78A1    10.157943    79A1    10.228839  
      29A2    10.228914    80A1    10.280747    30A2    10.280758  
      49B2    10.397964    49B1    10.397964    50B1    10.538613  
      50B2    10.538613    51B2    10.803271    51B1    10.803271  
      52B2    10.991521    52B1    10.991521    81A1    11.077341  
      31A2    11.300363    82A1    11.300367    83A1    11.349615  
      53B2    11.461697    53B1    11.461697    54B2    11.630306  
      54B1    11.630306    32A2    12.134788    84A1    12.134789  
      55B1    12.150483    55B2    12.150483    85A1    12.151210  
      33A2    12.630363    86A1    12.630392    87A1    12.733206  
      56B2    13.449231    56B1    13.449231    88A1    13.604418  
      57B1    14.925359    57B2    14.925359    89A1    15.655439  
      90A1    16.119006    91A1    33.590768    92A1    34.072271  
      93A1    42.738310  

    Final Occupation by Irrep:
             A1    A2    B1    B2 
    DOCC [     7,    0,    2,    2 ]

  @DF-RKS Final Energy:  -184.68458639738773

   => Energetics <=

    Nuclear Repulsion Energy =             62.1989414245162919
    One-Electron Energy =                -373.6686110151517823
    Two-Electron Energy =                 142.5908605886500027
    DFT Exchange-Correlation Energy =     -15.8969953738946028
    Empirical Dispersion Energy =           0.0000000000000000
    VV10 Nonlocal Energy =                  0.0912179784923554
    Total Energy =                       -184.6845863973877329

Computation Completed


Properties will be evaluated at   0.000000,   0.000000,   0.000000 [a0]

Properties computed using the SCF density matrix

  Nuclear Dipole Moment: [e a0]
     X:     0.0000      Y:     0.0000      Z:     0.0088

  Electronic Dipole Moment: [e a0]
     X:     0.0000      Y:     0.0000      Z:    -0.0318

  Dipole Moment: [e a0]
     X:     0.0000      Y:     0.0000      Z:    -0.0229     Total:     0.0229

  Dipole Moment: [D]
     X:     0.0000      Y:     0.0000      Z:    -0.0583     Total:     0.0583


*** tstop() called on bp1-compute00154.data.bp.acrc.priv at Tue Apr 20 11:13:15 2021
Module time:
	user time   =     123.43 seconds =       2.06 minutes
	system time =       4.03 seconds =       0.07 minutes
	total time  =          6 seconds =       0.10 minutes
Total time:
	user time   =     380.52 seconds =       6.34 minutes
	system time =      14.32 seconds =       0.24 minutes
	total time  =         18 seconds =       0.30 minutes

  //>>>>>>>>>>>>>>>>>>>>>>>>>>>>>>>>>>>//
  //    Loading displacement 4 of 5    //
  //<<<<<<<<<<<<<<<<<<<<<<<<<<<<<<<<<<<//

*** tstart() called on bp1-compute00154.data.bp.acrc.priv
*** at Tue Apr 20 11:13:15 2021

   => Loading Basis Set <=

    Name: AUG-CC-PV(Q+D)Z
    Role: ORBITAL
    Keyword: BASIS
    atoms 1-2 entry N          line   379 file /work/zw18965/.conda/envs/p4env/share/psi4/basis/aug-cc-pv_qpd_z.gbs 
    atoms 3   entry O          line   439 file /work/zw18965/.conda/envs/p4env/share/psi4/basis/aug-cc-pv_qpd_z.gbs 


         ---------------------------------------------------------
                                   SCF
               by Justin Turney, Rob Parrish, Andy Simmonett
                          and Daniel G. A. Smith
                              RKS Reference
                       24 Threads, 137329 MiB Core
         ---------------------------------------------------------

  ==> Geometry <==

    Molecular point group: c2v
    Full point group: C_inf_v

    Geometry (in Angstrom), charge = 0, multiplicity = 1:

       Center              X                  Y                   Z               Mass       
    ------------   -----------------  -----------------  -----------------  -----------------
         N            0.000000000000     0.000000000000    -1.173570054702    14.003074004430
         N            0.000000000000     0.000000000000    -0.070299717134    14.003074004430
         O            0.000000000000     0.000000000000     1.088971143715    15.994914619570

  Running in c2v symmetry.

  Rotational constants: A = ************  B =      0.43988  C =      0.43988 [cm^-1]
  Rotational constants: A = ************  B =  13187.39950  C =  13187.39950 [MHz]
  Nuclear repulsion =   62.162747670200559

  Charge       = 0
  Multiplicity = 1
  Electrons    = 22
  Nalpha       = 11
  Nbeta        = 11

  ==> Algorithm <==

  SCF Algorithm Type is DF.
  DIIS enabled.
  MOM disabled.
  Fractional occupation disabled.
  Guess Type is SAD.
  Energy threshold   = 1.00e-08
  Density threshold  = 1.00e-08
  Integral threshold = 0.00e+00

  ==> Primary Basis <==

  Basis Set: AUG-CC-PV(Q+D)Z
    Blend: AUG-CC-PV(Q+D)Z
    Number of shells: 60
    Number of basis function: 240
    Number of Cartesian functions: 315
    Spherical Harmonics?: true
    Max angular momentum: 4

  ==> DFT Potential <==

   => Composite Functional: WB97X-V <= 

    wB97X-V Hyb-GGA Exchange-Correlation Functional

    N. Mardirossian and M. Head-Gordon, Phys. Chem. Chem. Phys. 16, 9904 (2014)

    Deriv               =              1
    GGA                 =           TRUE
    Meta                =          FALSE

    Exchange Hybrid     =           TRUE
    MP2 Hybrid          =          FALSE

   => Exchange-Correlation Functionals <=

    1.0000   wB97X-V range-separated functional

   => Exact (HF) Exchange <=

    0.8330            HF,LR [omega = 0.3000]
    0.1670               HF 

   => VV10 Non-Local Parameters <=

    VV10 B              =     6.0000E+00
    VV10 C              =     1.0000E-02

   => Molecular Quadrature <=

    Radial Scheme          =       TREUTLER
    Pruning Scheme         =           FLAT
    Nuclear Scheme         =       TREUTLER

    BS radius alpha        =              1
    Pruning alpha          =              1
    Radial Points          =             75
    Spherical Points       =            302
    Total Points           =          67950
    Total Blocks           =            587
    Max Points             =            256
    Max Functions          =            240

   => Loading Basis Set <=

    Name: (AUG-CC-PV(Q+D)Z AUX)
    Role: JKFIT
    Keyword: DF_BASIS_SCF
    atoms 1-2 entry N          line   248 file /work/zw18965/.conda/envs/p4env/share/psi4/basis/aug-cc-pvqz-jkfit.gbs 
    atoms 3   entry O          line   318 file /work/zw18965/.conda/envs/p4env/share/psi4/basis/aug-cc-pvqz-jkfit.gbs 

  ==> Pre-Iterations <==

   -------------------------------------------------------
    Irrep   Nso     Nmo     Nalpha   Nbeta   Ndocc  Nsocc
   -------------------------------------------------------
     A1        93      93       0       0       0       0
     A2        33      33       0       0       0       0
     B1        57      57       0       0       0       0
     B2        57      57       0       0       0       0
   -------------------------------------------------------
    Total     240     240      11      11      11       0
   -------------------------------------------------------

  ==> Integral Setup <==

  ==> DiskDFJK: Density-Fitted J/K Matrices <==

    J tasked:                  Yes
    K tasked:                  Yes
    wK tasked:                 Yes
    Omega:               3.000E-01
    OpenMP threads:             24
    Integrals threads:          24
    Memory [MiB]:           102579
    Algorithm:                Core
    Integral Cache:           NONE
    Schwarz Cutoff:          1E-12
    Fitting Condition:       1E-10

   => Auxiliary Basis Set <=

  Basis Set: (AUG-CC-PV(Q+D)Z AUX)
    Blend: AUG-CC-PVQZ-JKFIT
    Number of shells: 102
    Number of basis function: 426
    Number of Cartesian functions: 594
    Spherical Harmonics?: true
    Max angular momentum: 5

  Cached 100.0% of DFT collocation blocks in 0.408 [GiB].

  Minimum eigenvalue in the overlap matrix is 1.5891918065E-05.
  Using Symmetric Orthogonalization.

  SCF Guess: Superposition of Atomic Densities via on-the-fly atomic UHF.

  ==> Iterations <==

                           Total Energy        Delta E     RMS |[F,P]|

   @DF-RKS iter SAD:  -184.27553788112817   -1.84276e+02   0.00000e+00 
   @DF-RKS iter   1:  -184.59532639359895   -3.19789e-01   4.06513e-03 DIIS
   @DF-RKS iter   2:  -184.57079029443454    2.45361e-02   4.67778e-03 DIIS
   @DF-RKS iter   3:  -184.68175753519870   -1.10967e-01   7.17513e-04 DIIS
   @DF-RKS iter   4:  -184.68376769231196   -2.01016e-03   4.01615e-04 DIIS
   @DF-RKS iter   5:  -184.68466015030458   -8.92458e-04   5.59241e-05 DIIS
   @DF-RKS iter   6:  -184.68468207502502   -2.19247e-05   1.22880e-05 DIIS
   @DF-RKS iter   7:  -184.68468325415810   -1.17913e-06   1.95019e-06 DIIS
   @DF-RKS iter   8:  -184.68468331322038   -5.90623e-08   3.26645e-07 DIIS
   @DF-RKS iter   9:  -184.68468331474003   -1.51965e-09   6.11768e-08 DIIS
   @DF-RKS iter  10:  -184.68468331478638   -4.63558e-11   1.28662e-08 DIIS
   @DF-RKS iter  11:  -184.68468331478840   -2.01794e-12   1.03715e-09 DIIS
  Energy and wave function converged.


  ==> Post-Iterations <==

    Orbital Energies [Eh]
    ---------------------

    Doubly Occupied:                                                      

       1A1   -19.307793     2A1   -14.642684     3A1   -14.500703  
       4A1    -1.400980     5A1    -1.233844     6A1    -0.722308  
       1B2    -0.701454     1B1    -0.701454     7A1    -0.594505  
       2B2    -0.449007     2B1    -0.449007  

    Virtual:                                                              

       8A1     0.052924     3B2     0.076057     3B1     0.076057  
       9A1     0.076505     4B2     0.117676     4B1     0.117676  
      10A1     0.120399     5B2     0.132274     5B1     0.132274  
      11A1     0.191532     6B1     0.199686     6B2     0.199686  
      12A1     0.221411    13A1     0.247832    14A1     0.284584  
       1A2     0.284587    15A1     0.331739    16A1     0.367804  
       7B2     0.377891     7B1     0.377891     2A2     0.389470  
      17A1     0.389473    18A1     0.442614     8B1     0.478970  
       8B2     0.478970     9B1     0.502358     9B2     0.502358  
      19A1     0.569801    20A1     0.603401     3A2     0.603410  
      10B1     0.615517    10B2     0.615517    21A1     0.617355  
      22A1     0.722520    23A1     0.745099    11B1     0.787868  
      11B2     0.787868    24A1     0.850968    25A1     0.872835  
       4A2     0.872837    12B1     0.879247    12B2     0.879247  
      13B1     0.929153    13B2     0.929153    26A1     0.932644  
       5A2     0.932647    27A1     0.962181    14B2     1.093673  
      14B1     1.093673    15B1     1.101079    15B2     1.101079  
      28A1     1.141401    29A1     1.244169     6A2     1.244173  
      16B1     1.301538    16B2     1.301538    30A1     1.311500  
      31A1     1.341025    32A1     1.466357     7A2     1.466358  
      17B2     1.475440    17B1     1.475440    18B1     1.490048  
      18B2     1.490048    33A1     1.491899    34A1     1.603107  
      19B1     1.654469    19B2     1.654469    35A1     1.667433  
       8A2     1.667435    36A1     1.780474    20B2     1.827240  
      20B1     1.827240    21B2     1.890189    21B1     1.890189  
      37A1     1.897418     9A2     1.973952    38A1     1.973955  
      39A1     2.101288    22B1     2.193696    22B2     2.193696  
      10A2     2.512295    40A1     2.512298    41A1     2.660715  
      11A2     2.660716    23B2     2.667241    23B1     2.667241  
      24B1     2.738081    24B2     2.738081    42A1     2.789208  
      43A1     2.805493    25B2     2.891883    25B1     2.891883  
      26B1     2.914925    26B2     2.914925    44A1     2.915999  
      12A2     2.929114    45A1     2.929119    13A2     2.944882  
      46A1     2.944889    27B1     3.016277    27B2     3.016277  
      47A1     3.030988    14A2     3.030989    28B1     3.116357  
      28B2     3.116357    48A1     3.116803    49A1     3.171216  
      15A2     3.171224    29B1     3.239052    29B2     3.239052  
      50A1     3.316324    30B1     3.488200    30B2     3.488200  
      51A1     3.515265    52A1     3.613532    16A2     3.613535  
      31B1     3.702846    31B2     3.702846    53A1     3.787036  
      54A1     3.817075    17A2     3.817076    32B1     3.942299  
      32B2     3.942299    33B1     3.944981    33B2     3.944981  
      55A1     4.047730    34B1     4.111577    34B2     4.111577  
      56A1     4.228373    18A2     4.228376    57A1     4.388837  
      19A2     4.534777    58A1     4.534781    35B1     4.576908  
      35B2     4.576908    36B1     4.625873    36B2     4.625873  
      59A1     4.965393    60A1     5.189714    20A2     5.189719  
      37B1     5.237853    37B2     5.237853    61A1     5.340570  
      62A1     5.386586    63A1     5.608561    21A2     5.608585  
      38B1     5.889842    38B2     5.889842    64A1     5.929304  
      65A1     6.141835    39B1     6.176566    39B2     6.176566  
      66A1     6.887296    40B2     7.463834    40B1     7.463834  
      67A1     7.545179    22A2     7.545179    41B1     7.683025  
      41B2     7.683025    23A2     7.693069    68A1     7.693096  
      24A2     8.031456    69A1     8.031486    70A1     8.058673  
      42B1     8.200273    42B2     8.200273    71A1     8.319604  
      25A2     8.319613    43B1     8.406207    43B2     8.406207  
      44B2     8.471390    44B1     8.471390    72A1     8.571344  
      45B2     8.690002    45B1     8.690002    46B1     8.800002  
      46B2     8.800002    73A1     8.910719    26A2     8.910732  
      74A1     8.918172    47B1     9.016643    47B2     9.016643  
      75A1     9.277820    76A1     9.281193    27A2     9.281202  
      48B1     9.343632    48B2     9.343632    77A1    10.009164  
      28A2    10.155939    78A1    10.155939    79A1    10.228922  
      29A2    10.228999    80A1    10.278731    30A2    10.278742  
      49B1    10.394495    49B2    10.394495    50B1    10.537614  
      50B2    10.537614    51B1    10.802639    51B2    10.802639  
      52B1    10.989797    52B2    10.989797    81A1    11.077673  
      31A2    11.297052    82A1    11.297057    83A1    11.346680  
      53B2    11.461299    53B1    11.461299    54B2    11.630892  
      54B1    11.630892    32A2    12.133788    84A1    12.133789  
      85A1    12.146377    55B1    12.147019    55B2    12.147019  
      33A2    12.628130    86A1    12.628160    87A1    12.729975  
      56B1    13.443954    56B2    13.443954    88A1    13.603265  
      57B1    14.916245    57B2    14.916245    89A1    15.646925  
      90A1    16.114314    91A1    33.579748    92A1    34.066684  
      93A1    42.731279  

    Final Occupation by Irrep:
             A1    A2    B1    B2 
    DOCC [     7,    0,    2,    2 ]

  @DF-RKS Final Energy:  -184.68468331478840

   => Energetics <=

    Nuclear Repulsion Energy =             62.1627476702005595
    One-Electron Energy =                -373.5992325985180855
    Two-Electron Energy =                 142.5564879610065248
    DFT Exchange-Correlation Energy =     -15.8959047237946258
    Empirical Dispersion Energy =           0.0000000000000000
    VV10 Nonlocal Energy =                  0.0912183763172512
    Total Energy =                       -184.6846833147884013

Computation Completed


Properties will be evaluated at   0.000000,   0.000000,   0.000000 [a0]

Properties computed using the SCF density matrix

  Nuclear Dipole Moment: [e a0]
     X:     0.0000      Y:     0.0000      Z:     0.0088

  Electronic Dipole Moment: [e a0]
     X:     0.0000      Y:     0.0000      Z:    -0.0341

  Dipole Moment: [e a0]
     X:     0.0000      Y:     0.0000      Z:    -0.0253     Total:     0.0253

  Dipole Moment: [D]
     X:     0.0000      Y:     0.0000      Z:    -0.0642     Total:     0.0642


*** tstop() called on bp1-compute00154.data.bp.acrc.priv at Tue Apr 20 11:13:20 2021
Module time:
	user time   =     121.83 seconds =       2.03 minutes
	system time =       3.73 seconds =       0.06 minutes
	total time  =          5 seconds =       0.08 minutes
Total time:
	user time   =     502.51 seconds =       8.38 minutes
	system time =      18.05 seconds =       0.30 minutes
	total time  =         23 seconds =       0.38 minutes

  //>>>>>>>>>>>>>>>>>>>>>>>>>>>>>>>>>>>//
  //    Loading displacement 5 of 5    //
  //<<<<<<<<<<<<<<<<<<<<<<<<<<<<<<<<<<<//

*** tstart() called on bp1-compute00154.data.bp.acrc.priv
*** at Tue Apr 20 11:13:20 2021

   => Loading Basis Set <=

    Name: AUG-CC-PV(Q+D)Z
    Role: ORBITAL
    Keyword: BASIS
    atoms 1-2 entry N          line   379 file /work/zw18965/.conda/envs/p4env/share/psi4/basis/aug-cc-pv_qpd_z.gbs 
    atoms 3   entry O          line   439 file /work/zw18965/.conda/envs/p4env/share/psi4/basis/aug-cc-pv_qpd_z.gbs 


         ---------------------------------------------------------
                                   SCF
               by Justin Turney, Rob Parrish, Andy Simmonett
                          and Daniel G. A. Smith
                              RKS Reference
                       24 Threads, 137329 MiB Core
         ---------------------------------------------------------

  ==> Geometry <==

    Molecular point group: c2v
    Full point group: C_inf_v

    Geometry (in Angstrom), charge = 0, multiplicity = 1:

       Center              X                  Y                   Z               Mass       
    ------------   -----------------  -----------------  -----------------  -----------------
         N            0.000000000000     0.000000000000    -1.173570054702    14.003074004430
         N            0.000000000000     0.000000000000    -0.069267111867    14.003074004430
         O            0.000000000000     0.000000000000     1.088067128388    15.994914619570

  Running in c2v symmetry.

  Rotational constants: A = ************  B =      0.44027  C =      0.44027 [cm^-1]
  Rotational constants: A = ************  B =  13198.93644  C =  13198.93644 [MHz]
  Nuclear repulsion =   62.188781370194690

  Charge       = 0
  Multiplicity = 1
  Electrons    = 22
  Nalpha       = 11
  Nbeta        = 11

  ==> Algorithm <==

  SCF Algorithm Type is DF.
  DIIS enabled.
  MOM disabled.
  Fractional occupation disabled.
  Guess Type is SAD.
  Energy threshold   = 1.00e-08
  Density threshold  = 1.00e-08
  Integral threshold = 0.00e+00

  ==> Primary Basis <==

  Basis Set: AUG-CC-PV(Q+D)Z
    Blend: AUG-CC-PV(Q+D)Z
    Number of shells: 60
    Number of basis function: 240
    Number of Cartesian functions: 315
    Spherical Harmonics?: true
    Max angular momentum: 4

  ==> DFT Potential <==

   => Composite Functional: WB97X-V <= 

    wB97X-V Hyb-GGA Exchange-Correlation Functional

    N. Mardirossian and M. Head-Gordon, Phys. Chem. Chem. Phys. 16, 9904 (2014)

    Deriv               =              1
    GGA                 =           TRUE
    Meta                =          FALSE

    Exchange Hybrid     =           TRUE
    MP2 Hybrid          =          FALSE

   => Exchange-Correlation Functionals <=

    1.0000   wB97X-V range-separated functional

   => Exact (HF) Exchange <=

    0.8330            HF,LR [omega = 0.3000]
    0.1670               HF 

   => VV10 Non-Local Parameters <=

    VV10 B              =     6.0000E+00
    VV10 C              =     1.0000E-02

   => Molecular Quadrature <=

    Radial Scheme          =       TREUTLER
    Pruning Scheme         =           FLAT
    Nuclear Scheme         =       TREUTLER

    BS radius alpha        =              1
    Pruning alpha          =              1
    Radial Points          =             75
    Spherical Points       =            302
    Total Points           =          67950
    Total Blocks           =            583
    Max Points             =            256
    Max Functions          =            240

   => Loading Basis Set <=

    Name: (AUG-CC-PV(Q+D)Z AUX)
    Role: JKFIT
    Keyword: DF_BASIS_SCF
    atoms 1-2 entry N          line   248 file /work/zw18965/.conda/envs/p4env/share/psi4/basis/aug-cc-pvqz-jkfit.gbs 
    atoms 3   entry O          line   318 file /work/zw18965/.conda/envs/p4env/share/psi4/basis/aug-cc-pvqz-jkfit.gbs 

  ==> Pre-Iterations <==

   -------------------------------------------------------
    Irrep   Nso     Nmo     Nalpha   Nbeta   Ndocc  Nsocc
   -------------------------------------------------------
     A1        93      93       0       0       0       0
     A2        33      33       0       0       0       0
     B1        57      57       0       0       0       0
     B2        57      57       0       0       0       0
   -------------------------------------------------------
    Total     240     240      11      11      11       0
   -------------------------------------------------------

  ==> Integral Setup <==

  ==> DiskDFJK: Density-Fitted J/K Matrices <==

    J tasked:                  Yes
    K tasked:                  Yes
    wK tasked:                 Yes
    Omega:               3.000E-01
    OpenMP threads:             24
    Integrals threads:          24
    Memory [MiB]:           102579
    Algorithm:                Core
    Integral Cache:           NONE
    Schwarz Cutoff:          1E-12
    Fitting Condition:       1E-10

   => Auxiliary Basis Set <=

  Basis Set: (AUG-CC-PV(Q+D)Z AUX)
    Blend: AUG-CC-PVQZ-JKFIT
    Number of shells: 102
    Number of basis function: 426
    Number of Cartesian functions: 594
    Spherical Harmonics?: true
    Max angular momentum: 5

  Cached 100.0% of DFT collocation blocks in 0.408 [GiB].

  Minimum eigenvalue in the overlap matrix is 1.5921409191E-05.
  Using Symmetric Orthogonalization.

  SCF Guess: Superposition of Atomic Densities via on-the-fly atomic UHF.

  ==> Iterations <==

                           Total Energy        Delta E     RMS |[F,P]|

   @DF-RKS iter SAD:  -184.27812861879471   -1.84278e+02   0.00000e+00 
   @DF-RKS iter   1:  -184.59513308491250   -3.17004e-01   4.06615e-03 DIIS
   @DF-RKS iter   2:  -184.57010376929688    2.50293e-02   4.68593e-03 DIIS
   @DF-RKS iter   3:  -184.68158791089596   -1.11484e-01   7.28804e-04 DIIS
   @DF-RKS iter   4:  -184.68368150032560   -2.09359e-03   4.03683e-04 DIIS
   @DF-RKS iter   5:  -184.68458315147669   -9.01651e-04   5.55885e-05 DIIS
   @DF-RKS iter   6:  -184.68460478611601   -2.16346e-05   1.22099e-05 DIIS
   @DF-RKS iter   7:  -184.68460594754333   -1.16143e-06   1.92632e-06 DIIS
   @DF-RKS iter   8:  -184.68460600522701   -5.76837e-08   3.23054e-07 DIIS
   @DF-RKS iter   9:  -184.68460600671185   -1.48484e-09   6.08551e-08 DIIS
   @DF-RKS iter  10:  -184.68460600675780   -4.59579e-11   1.28579e-08 DIIS
   @DF-RKS iter  11:  -184.68460600675954   -1.73372e-12   1.03929e-09 DIIS
  Energy and wave function converged.


  ==> Post-Iterations <==

    Orbital Energies [Eh]
    ---------------------

    Doubly Occupied:                                                      

       1A1   -19.308124     2A1   -14.642753     3A1   -14.500352  
       4A1    -1.402213     5A1    -1.233464     6A1    -0.722595  
       1B2    -0.701819     1B1    -0.701819     7A1    -0.594234  
       2B1    -0.448897     2B2    -0.448897  

    Virtual:                                                              

       8A1     0.052934     3B2     0.076138     3B1     0.076138  
       9A1     0.076531     4B1     0.117703     4B2     0.117703  
      10A1     0.120393     5B2     0.132292     5B1     0.132292  
      11A1     0.191510     6B2     0.199658     6B1     0.199658  
      12A1     0.221660    13A1     0.247930    14A1     0.284609  
       1A2     0.284611    15A1     0.331769    16A1     0.368535  
       7B1     0.377823     7B2     0.377823     2A2     0.389512  
      17A1     0.389514    18A1     0.442821     8B2     0.478950  
       8B1     0.478950     9B2     0.502491     9B1     0.502491  
      19A1     0.569732    20A1     0.603291     3A2     0.603300  
      10B2     0.615411    10B1     0.615411    21A1     0.617536  
      22A1     0.722604    23A1     0.745046    11B1     0.787858  
      11B2     0.787858    24A1     0.850849    25A1     0.872909  
       4A2     0.872911    12B2     0.879299    12B1     0.879299  
      13B2     0.929056    13B1     0.929056    26A1     0.932730  
       5A2     0.932733    27A1     0.962559    14B2     1.094025  
      14B1     1.094025    15B1     1.101107    15B2     1.101107  
      28A1     1.141102    29A1     1.244268     6A2     1.244272  
      16B2     1.301388    16B1     1.301388    30A1     1.311668  
      31A1     1.340730    32A1     1.465993     7A2     1.465995  
      17B1     1.475525    17B2     1.475525    18B1     1.489792  
      18B2     1.489792    33A1     1.492417    34A1     1.603323  
      19B1     1.654729    19B2     1.654729    35A1     1.667532  
       8A2     1.667535    36A1     1.779721    20B2     1.827726  
      20B1     1.827726    21B1     1.889677    21B2     1.889677  
      37A1     1.896572     9A2     1.974082    38A1     1.974084  
      39A1     2.102032    22B2     2.193838    22B1     2.193838  
      10A2     2.512455    40A1     2.512458    41A1     2.661062  
      11A2     2.661063    23B1     2.667340    23B2     2.667340  
      24B1     2.738133    24B2     2.738133    42A1     2.789996  
      43A1     2.805739    25B1     2.892037    25B2     2.892037  
      26B1     2.914729    26B2     2.914729    44A1     2.916993  
      12A2     2.928840    45A1     2.928844    13A2     2.944597  
      46A1     2.944604    27B1     3.016609    27B2     3.016609  
      47A1     3.031785    14A2     3.031786    48A1     3.115707  
      28B1     3.116514    28B2     3.116514    49A1     3.171201  
      15A2     3.171209    29B1     3.240269    29B2     3.240269  
      50A1     3.317264    30B2     3.488810    30B1     3.488810  
      51A1     3.514216    52A1     3.613787    16A2     3.613791  
      31B1     3.702425    31B2     3.702425    53A1     3.786613  
      54A1     3.816223    17A2     3.816224    32B2     3.941509  
      32B1     3.941509    33B1     3.945004    33B2     3.945004  
      55A1     4.048105    34B1     4.110486    34B2     4.110486  
      56A1     4.228729    18A2     4.228732    57A1     4.389287  
      19A2     4.535188    58A1     4.535192    35B2     4.578074  
      35B1     4.578074    36B1     4.627801    36B2     4.627801  
      59A1     4.966776    60A1     5.189548    20A2     5.189553  
      37B1     5.236908    37B2     5.236908    61A1     5.344590  
      62A1     5.383854    63A1     5.610965    21A2     5.610990  
      38B1     5.891841    38B2     5.891841    64A1     5.933234  
      65A1     6.143732    39B2     6.178628    39B1     6.178628  
      66A1     6.881667    40B2     7.464873    40B1     7.464873  
      67A1     7.545338    22A2     7.545339    41B2     7.683670  
      41B1     7.683670    23A2     7.693707    68A1     7.693734  
      24A2     8.031141    69A1     8.031171    70A1     8.058853  
      42B1     8.201742    42B2     8.201742    71A1     8.319986  
      25A2     8.319994    43B1     8.407565    43B2     8.407565  
      44B2     8.470285    44B1     8.470285    72A1     8.573002  
      45B1     8.690024    45B2     8.690024    46B1     8.801000  
      46B2     8.801000    73A1     8.910534    26A2     8.910547  
      74A1     8.919295    47B2     9.014965    47B1     9.014965  
      75A1     9.275249    76A1     9.281693    27A2     9.281703  
      48B1     9.342007    48B2     9.342007    77A1    10.011952  
      28A2    10.153686    78A1    10.153686    79A1    10.228449  
      29A2    10.228524    80A1    10.277723    30A2    10.277734  
      49B1    10.395100    49B2    10.395100    50B2    10.539094  
      50B1    10.539094    51B2    10.803256    51B1    10.803256  
      52B1    10.987805    52B2    10.987805    81A1    11.076659  
      31A2    11.300008    82A1    11.300012    83A1    11.348468  
      53B2    11.461534    53B1    11.461534    54B1    11.629139  
      54B2    11.629139    32A2    12.135404    84A1    12.135405  
      55B1    12.147369    55B2    12.147369    85A1    12.150744  
      33A2    12.631411    86A1    12.631440    87A1    12.733266  
      56B1    13.449475    56B2    13.449475    88A1    13.600128  
      57B1    14.926999    57B2    14.926999    89A1    15.655578  
      90A1    16.119686    91A1    33.568929    92A1    34.068500  
      93A1    42.743161  

    Final Occupation by Irrep:
             A1    A2    B1    B2 
    DOCC [     7,    0,    2,    2 ]

  @DF-RKS Final Energy:  -184.68460600675954

   => Energetics <=

    Nuclear Repulsion Energy =             62.1887813701946897
    One-Electron Energy =                -373.6479942005123007
    Two-Electron Energy =                 142.5797687404523799
    DFT Exchange-Correlation Energy =     -15.8963789789252008
    Empirical Dispersion Energy =           0.0000000000000000
    VV10 Nonlocal Energy =                  0.0912170620308970
    Total Energy =                       -184.6846060067595374

Computation Completed


Properties will be evaluated at   0.000000,   0.000000,   0.000000 [a0]

Properties computed using the SCF density matrix

  Nuclear Dipole Moment: [e a0]
     X:     0.0000      Y:     0.0000      Z:     0.0088

  Electronic Dipole Moment: [e a0]
     X:     0.0000      Y:     0.0000      Z:    -0.0268

  Dipole Moment: [e a0]
     X:     0.0000      Y:     0.0000      Z:    -0.0180     Total:     0.0180

  Dipole Moment: [D]
     X:     0.0000      Y:     0.0000      Z:    -0.0457     Total:     0.0457


*** tstop() called on bp1-compute00154.data.bp.acrc.priv at Tue Apr 20 11:13:26 2021
Module time:
	user time   =     123.05 seconds =       2.05 minutes
	system time =       3.35 seconds =       0.06 minutes
	total time  =          6 seconds =       0.10 minutes
Total time:
	user time   =     625.71 seconds =      10.43 minutes
	system time =      21.41 seconds =       0.36 minutes
	total time  =         29 seconds =       0.48 minutes

         ----------------------------------------------------------
                                   FINDIF
                     R. A. King and Jonathon Misiewicz
         ---------------------------------------------------------

  Computing gradient from energies.
    Using 3-point formula.
    Energy without displacement: -184.6846468097
    Check energies below for precision!
    Forces are for mass-weighted, symmetry-adapted cartesians (in au).

     Coord      Energy(-1)        Energy(+1)            Force
        0   -184.6847033667   -184.6845863974      0.0116969351
        1   -184.6846833148   -184.6846060068      0.0077308029


-------------------------------------------------------------
  ## New Matrix (Symmetry 0) ##
  Irrep: 1 Size: 3 x 3

                 1                   2                   3

    1     0.00000000000000     0.00000000000000     0.03614084131853
    2     0.00000000000000     0.00000000000000     0.00425368429293
    3     0.00000000000000     0.00000000000000    -0.04039452561145




			-----------------------------------------
			 OPTKING 2.0: for geometry optimizations 
			  - R.A. King,  Bethel University        
			-----------------------------------------

	Internal coordinates to be generated automatically.
	Detected frag 1 with atoms:  1 2 3
	---Fragment 1 Bond Connectivity---
	 1 : 2
	 2 : 1 3
	 3 : 2

	---Fragment 1 Geometry and Gradient---
	 N           0.0000000000        0.0000000000       -2.2177259924
	 N           0.0000000000        0.0000000000       -0.1318715415
	 O           0.0000000000        0.0000000000        2.0570030495
	             0.0000000000        0.0000000000        0.0361408413
	             0.0000000000        0.0000000000        0.0042536843
	             0.0000000000        0.0000000000       -0.0403945256

	Previous optimization step data not found.  Starting new optimization.

	---Fragment 1 Intrafragment Coordinates---
	 - Coordinate -           - BOHR/RAD -       - ANG/DEG -
	 R(1,2)           =         2.085854	       1.103787
	 R(2,3)           =         2.188875	       1.158303
	 L(1,2,3)         =         3.141593	     180.000000
	 l(1,2,3)         =         3.141593	     180.000000

	Current energy   :      -184.6846468097

	Generating empirical Hessian (Schlegel '84) for each fragment.
	Taking RFO optimization step.
	Going to follow RFO solution 1.
	Using RFO vector 1.
	Norm of target step-size    0.03761
	Projected energy change by RFO approximation:        -0.0020152588

	Back-transformation to cartesian coordinates...
	Successfully converged to displaced geometry.

	--- Internal Coordinate Step in ANG or DEG, aJ/ANG or AJ/DEG ---
	 ---------------------------------------------------------------------------
	   Coordinate                Previous        Force       Change         New 
	   ----------                --------       ------       ------       ------
	    1 R(1,2)          =      1.103787     0.297754     0.011045     1.114831
	    2 R(2,3)          =      1.158303     0.332799     0.016556     1.174859
	    3 L(1,2,3)        =    180.000000     0.000000     0.000000   180.000000
	    4 l(1,2,3)        =    180.000000     0.000000     0.000000   180.000000
	 ---------------------------------------------------------------------------
	Successfully symmetrized geometry.

  ==> Convergence Check <==

  Measures of convergence in internal coordinates in au.
  Criteria marked as inactive (o), active & met (*), and active & unmet ( ).
  --------------------------------------------------------------------------------------------- ~
   Step     Total Energy     Delta E     MAX Force     RMS Force      MAX Disp      RMS Disp    ~
  --------------------------------------------------------------------------------------------- ~
    Convergence Criteria    1.00e-06 *    3.00e-04 *             o    1.20e-03 *             o  ~
  --------------------------------------------------------------------------------------------- ~
      1    -184.68464681   -1.85e+02      4.04e-02      2.71e-02 o    3.13e-02      1.88e-02 o  ~
  ---------------------------------------------------------------------------------------------

	Writing optimization data to binary file.
	Structure for next step:
	Cartesian Geometry (in Angstrom)
	    N    -0.0000000000  -0.0000000000  -1.1864518828
	    N     0.0000000000   0.0000000000  -0.0716204785
	    O    -0.0000000000  -0.0000000000   1.1032380288
			--------------------------
			 OPTKING Finished Execution 
			--------------------------

    Structure for next step:
    Molecular point group: c2v
    Full point group: C_inf_v

    Geometry (in Angstrom), charge = 0, multiplicity = 1:

    N           -0.000000000000     0.000000000000    -1.187118182711
    N            0.000000000000    -0.000000000000    -0.072286773966
    O           -0.000000000000     0.000000000000     1.102571737914

gradient() will perform gradient computation by finite difference of analytic energies.

         ----------------------------------------------------------
                                   FINDIF
                     R. A. King and Jonathon Misiewicz
         ---------------------------------------------------------

  Using finite-differences of energies to determine gradients.
    Generating geometries for use with 3-point formula.
    Displacement size will be 5.00e-03.
    Number of atoms is 3.
    Number of symmetric SALCs is 2.
    Translations projected? 1. Rotations projected? 1.
    Number of geometries (including reference) is 5.

  //>>>>>>>>>>>>>>>>>>>>>>>>>>>>>>>>>>>//
  //    Loading displacement 1 of 5    //
  //<<<<<<<<<<<<<<<<<<<<<<<<<<<<<<<<<<<//

*** tstart() called on bp1-compute00154.data.bp.acrc.priv
*** at Tue Apr 20 11:13:26 2021

   => Loading Basis Set <=

    Name: AUG-CC-PV(Q+D)Z
    Role: ORBITAL
    Keyword: BASIS
    atoms 1-2 entry N          line   379 file /work/zw18965/.conda/envs/p4env/share/psi4/basis/aug-cc-pv_qpd_z.gbs 
    atoms 3   entry O          line   439 file /work/zw18965/.conda/envs/p4env/share/psi4/basis/aug-cc-pv_qpd_z.gbs 


         ---------------------------------------------------------
                                   SCF
               by Justin Turney, Rob Parrish, Andy Simmonett
                          and Daniel G. A. Smith
                              RKS Reference
                       24 Threads, 137329 MiB Core
         ---------------------------------------------------------

  ==> Geometry <==

    Molecular point group: c2v
    Full point group: C_inf_v

    Geometry (in Angstrom), charge = 0, multiplicity = 1:

       Center              X                  Y                   Z               Mass       
    ------------   -----------------  -----------------  -----------------  -----------------
         N            0.000000000000    -0.000000000000    -1.187118182711    14.003074004430
         N           -0.000000000000     0.000000000000    -0.072286773966    14.003074004430
         O            0.000000000000    -0.000000000000     1.102571737914    15.994914619570

  Running in c2v symmetry.

  Rotational constants: A = ************  B =      0.42948  C =      0.42948 [cm^-1]
  Rotational constants: A = ************  B =  12875.42385  C =  12875.42385 [MHz]
  Nuclear repulsion =   61.424566679486659

  Charge       = 0
  Multiplicity = 1
  Electrons    = 22
  Nalpha       = 11
  Nbeta        = 11

  ==> Algorithm <==

  SCF Algorithm Type is DF.
  DIIS enabled.
  MOM disabled.
  Fractional occupation disabled.
  Guess Type is READ.
  Energy threshold   = 1.00e-08
  Density threshold  = 1.00e-08
  Integral threshold = 0.00e+00

  ==> Primary Basis <==

  Basis Set: AUG-CC-PV(Q+D)Z
    Blend: AUG-CC-PV(Q+D)Z
    Number of shells: 60
    Number of basis function: 240
    Number of Cartesian functions: 315
    Spherical Harmonics?: true
    Max angular momentum: 4

  ==> DFT Potential <==

   => Composite Functional: WB97X-V <= 

    wB97X-V Hyb-GGA Exchange-Correlation Functional

    N. Mardirossian and M. Head-Gordon, Phys. Chem. Chem. Phys. 16, 9904 (2014)

    Deriv               =              1
    GGA                 =           TRUE
    Meta                =          FALSE

    Exchange Hybrid     =           TRUE
    MP2 Hybrid          =          FALSE

   => Exchange-Correlation Functionals <=

    1.0000   wB97X-V range-separated functional

   => Exact (HF) Exchange <=

    0.8330            HF,LR [omega = 0.3000]
    0.1670               HF 

   => VV10 Non-Local Parameters <=

    VV10 B              =     6.0000E+00
[...]
    Spherical Harmonics?: true
    Max angular momentum: 4

  ==> DFT Potential <==

   => Composite Functional: WB97X-V <= 

    wB97X-V Hyb-GGA Exchange-Correlation Functional

    N. Mardirossian and M. Head-Gordon, Phys. Chem. Chem. Phys. 16, 9904 (2014)

    Deriv               =              1
    GGA                 =           TRUE
    Meta                =          FALSE

    Exchange Hybrid     =           TRUE
    MP2 Hybrid          =          FALSE

   => Exchange-Correlation Functionals <=

    1.0000   wB97X-V range-separated functional

   => Exact (HF) Exchange <=

    0.8330            HF,LR [omega = 0.3000]
    0.1670               HF 

   => VV10 Non-Local Parameters <=

    VV10 B              =     6.0000E+00
    VV10 C              =     1.0000E-02

   => Molecular Quadrature <=

    Radial Scheme          =       TREUTLER
    Pruning Scheme         =           FLAT
    Nuclear Scheme         =       TREUTLER

    BS radius alpha        =              1
    Pruning alpha          =              1
    Radial Points          =             75
    Spherical Points       =            302
    Total Points           =          67950
    Total Blocks           =            581
    Max Points             =            256
    Max Functions          =            240

   => Loading Basis Set <=

    Name: (AUG-CC-PV(Q+D)Z AUX)
    Role: JKFIT
    Keyword: DF_BASIS_SCF
    atoms 1-2 entry N          line   248 file /work/zw18965/.conda/envs/p4env/share/psi4/basis/aug-cc-pvqz-jkfit.gbs 
    atoms 3   entry O          line   318 file /work/zw18965/.conda/envs/p4env/share/psi4/basis/aug-cc-pvqz-jkfit.gbs 

  ==> Pre-Iterations <==

   -------------------------------------------------------
    Irrep   Nso     Nmo     Nalpha   Nbeta   Ndocc  Nsocc
   -------------------------------------------------------
     A'       150     150       0       0       0       0
     A"        90      90       0       0       0       0
   -------------------------------------------------------
    Total     240     240      11      11      11       0
   -------------------------------------------------------

  ==> Integral Setup <==

  ==> DiskDFJK: Density-Fitted J/K Matrices <==

    J tasked:                  Yes
    K tasked:                  Yes
    wK tasked:                 Yes
    Omega:               3.000E-01
    OpenMP threads:             24
    Integrals threads:          24
    Memory [MiB]:           102579
    Algorithm:                Core
    Integral Cache:           NONE
    Schwarz Cutoff:          1E-12
    Fitting Condition:       1E-10

   => Auxiliary Basis Set <=

  Basis Set: (AUG-CC-PV(Q+D)Z AUX)
    Blend: AUG-CC-PVQZ-JKFIT
    Number of shells: 102
    Number of basis function: 426
    Number of Cartesian functions: 594
    Spherical Harmonics?: true
    Max angular momentum: 5

  Cached 100.0% of DFT collocation blocks in 0.407 [GiB].

  Minimum eigenvalue in the overlap matrix is 1.6908975429E-05.
  Using Symmetric Orthogonalization.

  SCF Guess: Superposition of Atomic Densities via on-the-fly atomic UHF.

  ==> Iterations <==

                           Total Energy        Delta E     RMS |[F,P]|

   @DF-RKS iter SAD:  -184.19659783942075   -1.84197e+02   0.00000e+00 
   @DF-RKS iter   1:  -184.59647541634510   -3.99878e-01   2.95502e-03 DIIS
   @DF-RKS iter   2:  -184.56488279239693    3.15926e-02   3.51395e-03 DIIS
   @DF-RKS iter   3:  -184.68333077815925   -1.18448e-01   4.87115e-04 DIIS
   @DF-RKS iter   4:  -184.68490728869338   -1.57651e-03   3.01066e-04 DIIS
   @DF-RKS iter   5:  -184.68586473766922   -9.57449e-04   4.09315e-05 DIIS
   @DF-RKS iter   6:  -184.68588800372302   -2.32661e-05   9.70148e-06 DIIS
   @DF-RKS iter   7:  -184.68588942763731   -1.42391e-06   1.67478e-06 DIIS
   @DF-RKS iter   8:  -184.68588950805571   -8.04184e-08   2.75660e-07 DIIS
   @DF-RKS iter   9:  -184.68588951010963   -2.05392e-09   5.07717e-08 DIIS
   @DF-RKS iter  10:  -184.68588951016770   -5.80656e-11   1.08498e-08 DIIS
   @DF-RKS iter  11:  -184.68588951017000   -2.30216e-12   8.55495e-10 DIIS
   @DF-RKS iter  12:  -184.68588951017009   -8.52651e-14   1.51299e-10 DIIS
   @DF-RKS iter  13:  -184.68588951017014   -5.68434e-14   1.63264e-11 DIIS
  Energy and wave function converged.


  ==> Post-Iterations <==

    Orbital Energies [Eh]
    ---------------------

    Doubly Occupied:                                                      

       1Ap   -19.309038     2Ap   -14.645412     3Ap   -14.508819  
       4Ap    -1.385664     5Ap    -1.225688     6Ap    -0.723312  
       1App   -0.692537     7Ap    -0.692537     8Ap    -0.597976  
       2App   -0.448617     9Ap    -0.448617  

    Virtual:                                                              

      10Ap     0.052489     3App    0.069307    11Ap     0.069307  
      12Ap     0.076210    13Ap     0.114821     4App    0.114822  
      14Ap     0.120249    15Ap     0.131490     5App    0.131490  
      16Ap     0.191643    17Ap     0.199389     6App    0.199389  
      18Ap     0.215282    19Ap     0.247122    20Ap     0.284433  
       7App    0.284435    21Ap     0.330526    22Ap     0.352312  
      23Ap     0.378273     8App    0.378273     9App    0.389360  
      24Ap     0.389362    25Ap     0.440005    10App    0.479366  
      26Ap     0.479367    27Ap     0.502633    11App    0.502633  
      28Ap     0.567520    29Ap     0.602940    12App    0.602949  
      30Ap     0.614938    13App    0.614939    31Ap     0.616655  
      32Ap     0.719115    33Ap     0.744152    14App    0.784953  
      34Ap     0.784953    35Ap     0.850911    36Ap     0.873638  
      15App    0.873640    37Ap     0.878678    16App    0.878678  
      38Ap     0.930459    17App    0.930461    39Ap     0.934460  
      18App    0.934463    40Ap     0.943051    41Ap     1.088011  
      19App    1.088013    42Ap     1.099687    20App    1.099687  
      43Ap     1.127733    44Ap     1.239460    21App    1.239464  
      45Ap     1.300761    22App    1.300766    46Ap     1.304887  
      47Ap     1.337039    48Ap     1.464177    23App    1.464178  
      49Ap     1.470732    24App    1.470732    50Ap     1.484815  
      25App    1.484830    51Ap     1.486878    52Ap     1.597998  
      53Ap     1.646259    26App    1.646260    54Ap     1.662454  
      27App    1.662456    55Ap     1.782654    28App    1.818632  
      56Ap     1.818632    57Ap     1.896517    29App    1.896520  
      58Ap     1.908401    30App    1.974515    59Ap     1.974517  
      60Ap     2.088687    31App    2.203810    61Ap     2.203811  
      32App    2.512603    62Ap     2.512607    63Ap     2.659797  
      33App    2.659798    34App    2.665674    64Ap     2.665674  
      65Ap     2.735103    35App    2.735104    66Ap     2.785279  
      67Ap     2.794978    68Ap     2.886198    36App    2.889642  
      69Ap     2.889642    37App    2.911025    70Ap     2.911026  
      38App    2.925685    71Ap     2.925690    39App    2.947384  
      72Ap     2.947391    73Ap     3.010301    40App    3.010301  
      41App    3.022633    74Ap     3.022635    75Ap     3.103241  
      42App    3.103260    76Ap     3.112222    77Ap     3.158846  
      43App    3.158854    44App    3.221023    78Ap     3.221025  
      79Ap     3.280348    80Ap     3.454810    45App    3.454811  
      81Ap     3.524506    82Ap     3.606208    46App    3.606212  
      83Ap     3.683412    47App    3.683412    84Ap     3.792863  
      48App    3.814563    85Ap     3.814564    86Ap     3.937029  
      49App    3.937029    87Ap     3.937205    50App    3.937205  
      88Ap     4.031942    51App    4.121169    89Ap     4.121170  
      52App    4.209496    90Ap     4.209496    91Ap     4.372950  
      53App    4.504272    92Ap     4.504275    93Ap     4.549650  
      54App    4.549652    94Ap     4.584885    55App    4.584885  
      95Ap     4.899604    96Ap     5.171694    56App    5.171694  
      97Ap     5.251516    57App    5.251526    98Ap     5.282328  
      99Ap     5.356053   100Ap     5.569522    58App    5.569543  
     101Ap     5.845387    59App    5.845400   102Ap     5.894442  
     103Ap     6.075127    60App    6.168106   104Ap     6.168118  
     105Ap     6.917670   106Ap     7.474778    61App    7.474778  
     107Ap     7.533889    62App    7.533891    63App    7.668650  
     108Ap     7.668653    64App    7.699776   109Ap     7.699803  
      65App    8.022508   110Ap     8.022538   111Ap     8.042369  
      66App    8.163062   112Ap     8.163065   113Ap     8.342598  
      67App    8.342608   114Ap     8.376626    68App    8.376628  
     115Ap     8.474799    69App    8.474799   116Ap     8.555075  
     117Ap     8.682088    70App    8.682088   118Ap     8.762914  
      71App    8.762915   119Ap     8.850693   120Ap     8.911847  
      72App    8.911859   121Ap     8.992260    73App    8.992260  
     122Ap     9.255229    74App    9.255240   123Ap     9.261897  
      75App    9.356332   124Ap     9.356336   125Ap     9.939173  
      76App   10.092856   126Ap    10.092858   127Ap    10.221952  
      77App   10.221964   128Ap    10.229979    78App   10.230066  
      79App   10.301081   129Ap    10.301085    80App   10.514946  
     130Ap    10.514946    81App   10.787442   131Ap    10.787442  
     132Ap    10.937546    82App   10.937549   133Ap    11.074642  
      83App   11.210812   134Ap    11.210821   135Ap    11.273587  
     136Ap    11.451670    84App   11.451670   137Ap    11.622380  
      85App   11.622383   138Ap    12.025980    86App   12.071822  
     139Ap    12.071827   140Ap    12.112742    87App   12.112742  
      88App   12.577896   141Ap    12.577931   142Ap    12.653368  
      89App   13.313158   143Ap    13.313172   144Ap    13.553062  
     145Ap    14.695694    90App   14.695698   146Ap    15.412803  
     147Ap    16.021787   148Ap    33.228963   149Ap    33.935276  
     150Ap    42.589414  

    Final Occupation by Irrep:
             Ap   App 
    DOCC [     9,    2 ]

  @DF-RKS Final Energy:  -184.68588951017014

   => Energetics <=

    Nuclear Repulsion Energy =             61.2351364538110658
    One-Electron Energy =                -371.8155146444507864
    Two-Electron Energy =                 141.6705735357789138
    DFT Exchange-Correlation Energy =     -15.8673114022110280
    Empirical Dispersion Energy =           0.0000000000000000
    VV10 Nonlocal Energy =                  0.0912265469017195
    Total Energy =                       -184.6858895101701421

Computation Completed


Properties will be evaluated at   0.000000,   0.000000,   0.000000 [a0]

Properties computed using the SCF density matrix

  Nuclear Dipole Moment: [e a0]
     X:     0.0000      Y:    -0.0000      Z:     0.0090

  Electronic Dipole Moment: [e a0]
     X:     0.0000      Y:     0.0004      Z:    -0.0780

  Dipole Moment: [e a0]
     X:     0.0000      Y:     0.0004      Z:    -0.0690     Total:     0.0690

  Dipole Moment: [D]
     X:     0.0000      Y:     0.0010      Z:    -0.1755     Total:     0.1755


*** tstop() called on bp1-compute00154.data.bp.acrc.priv at Tue Apr 20 11:16:06 2021
Module time:
	user time   =     130.01 seconds =       2.17 minutes
	system time =       3.03 seconds =       0.05 minutes
	total time  =          6 seconds =       0.10 minutes
Total time:
	user time   =    4180.36 seconds =      69.67 minutes
	system time =     116.91 seconds =       1.95 minutes
	total time  =        189 seconds =       3.15 minutes

         ----------------------------------------------------------
                                   FINDIF
                     R. A. King and Jonathon Misiewicz
         ---------------------------------------------------------

  Computing second-derivative from energies using projected, 
  symmetry-adapted, cartesian coordinates.

  9 energies passed in, including the reference geometry.
    Using 3-point formula.
    Energy without displacement: -184.6858897081
    Check energies below for precision!
    0: -1        :      -184.6858878924
    0: 1         :      -184.6858879827
    1: -1        :      -184.6858879229
    1: 1         :      -184.6858878115
    0: 1, 1: 1   :      -184.6858879485
    0: -1, 1: -1 :      -184.6858879612
    2: -1        :      -184.6858895061
    3: -1        :      -184.6858895102

-------------------------------------------------------------


  ==> Harmonic Vibrational Analysis <==

  non-mass-weighted Hessian:       Symmetric? True   Hermitian? True   Lin Dep Dim?  5 (0)
  projection of translations (True) and rotations (True) removed 5 degrees of freedom (5)
  total projector:                 Symmetric? True   Hermitian? True   Lin Dep Dim?  5 (5)
  mass-weighted Hessian:           Symmetric? True   Hermitian? True   Lin Dep Dim?  5 (0)
  pre-proj  low-frequency mode:    0.0000i [cm^-1]
  pre-proj  low-frequency mode:    0.0000i [cm^-1]
  pre-proj  low-frequency mode:    0.0000i [cm^-1]
  pre-proj  low-frequency mode:    0.0000i [cm^-1]
  pre-proj  low-frequency mode:    0.0000  [cm^-1]
  pre-proj  all modes:['0.0000i' '0.0000i' '0.0000i' '0.0000i' '0.0000' '646.7778' '653.4165'
 '1360.7692' '2404.7141']
  projected mass-weighted Hessian: Symmetric? True   Hermitian? True   Lin Dep Dim?  5 (5)
  post-proj low-frequency mode:    0.0000i [cm^-1] (TR)
  post-proj low-frequency mode:    0.0000i [cm^-1] (TR)
  post-proj low-frequency mode:    0.0000  [cm^-1] (TR)
  post-proj low-frequency mode:    0.0000  [cm^-1] (TR)
  post-proj low-frequency mode:    0.0000  [cm^-1] (TR)
  post-proj  all modes:['0.0000i' '0.0000i' '0.0000' '0.0000' '0.0000' '646.7778' '653.4165'
 '1360.7692' '2404.7141']

  Vibration                       6                   7                   8           
  Freq [cm^-1]                 646.7778            653.4165           1360.7692       
  Irrep                           B2                  B1                  A1          
  Reduced mass [u]             14.2524             14.2524             15.1214        
  Force const [mDyne/A]         3.5128              3.5852             16.4972        
  Turning point v=0 [a0]        0.1143              0.1137              0.0765        
  RMS dev v=0 [a0 u^1/2]        0.3051              0.3035              0.2103        
  Char temp [K]                930.5693            940.1209           1957.8439       
  ----------------------------------------------------------------------------------
      1   N                0.00 -0.43  0.00   -0.43  0.00  0.00   -0.00 -0.00 -0.62   
      2   N                0.00  0.83 -0.00    0.83 -0.00  0.00   -0.00  0.00 -0.24   
      3   O                0.00 -0.35 -0.00   -0.35  0.00  0.00   -0.00  0.00  0.75   

  Vibration                       9           
  Freq [cm^-1]                2404.7141       
  Irrep                           A1          
  Reduced mass [u]             14.0778        
  Force const [mDyne/A]        47.9636        
  Turning point v=0 [a0]        0.0596        
  RMS dev v=0 [a0 u^1/2]        0.1582        
  Char temp [K]               3459.8482       
  ----------------------------------------------------------------------------------
      1   N               -0.00  0.00 -0.57   
      2   N               -0.00  0.00  0.80   
      3   O               -0.00 -0.00 -0.19   

  ==> Thermochemistry Components <==

  Entropy, S
    Electronic S            0.000 [cal/(mol K)]        0.000 [J/(mol K)]       0.00000000 [mEh/K] (multiplicity = 1)
    Translational S        37.271 [cal/(mol K)]      155.941 [J/(mol K)]       0.05939493 [mEh/K] (mol. weight = 44.0011 [u], P = 101325.00 [Pa])
    Rotational S           14.279 [cal/(mol K)]       59.741 [J/(mol K)]       0.02275434 [mEh/K] (symmetry no. = 1)
    Vibrational S           0.764 [cal/(mol K)]        3.195 [J/(mol K)]       0.00121686 [mEh/K]
  Total S                  52.313 [cal/(mol K)]      218.878 [J/(mol K)]       0.08336612 [mEh/K]
  Correction S              0.000 [cal/(mol K)]        0.000 [J/(mol K)]       0.00000000 [mEh/K]

  Constant volume heat capacity, Cv
    Electronic Cv           0.000 [cal/(mol K)]        0.000 [J/(mol K)]       0.00000000 [mEh/K]
    Translational Cv        2.981 [cal/(mol K)]       12.472 [J/(mol K)]       0.00475022 [mEh/K]
    Rotational Cv           1.987 [cal/(mol K)]        8.314 [J/(mol K)]       0.00316681 [mEh/K]
    Vibrational Cv          1.979 [cal/(mol K)]        8.279 [J/(mol K)]       0.00315331 [mEh/K]
  Total Cv                  6.947 [cal/(mol K)]       29.065 [J/(mol K)]       0.01107034 [mEh/K]
  Correction Cv             0.000 [cal/(mol K)]        0.000 [J/(mol K)]       0.00000000 [mEh/K]

  Constant pressure heat capacity, Cp
    Electronic Cp           0.000 [cal/(mol K)]        0.000 [J/(mol K)]       0.00000000 [mEh/K]
    Translational Cp        4.968 [cal/(mol K)]       20.786 [J/(mol K)]       0.00791703 [mEh/K]
    Rotational Cp           1.987 [cal/(mol K)]        8.314 [J/(mol K)]       0.00316681 [mEh/K]
    Vibrational Cp          1.979 [cal/(mol K)]        8.279 [J/(mol K)]       0.00315331 [mEh/K]
  Total Cp                  8.934 [cal/(mol K)]       37.380 [J/(mol K)]       0.01423715 [mEh/K]
  Correction Cp             0.000 [cal/(mol K)]        0.000 [J/(mol K)]       0.00000000 [mEh/K]

  ==> Thermochemistry Energy Analysis <==

  Raw electronic energy, E0
  Total E0, Electronic energy at well bottom at 0 [K]                 -184.68588971 [Eh]

  Zero-point energy, ZPE_vib = Sum_i nu_i / 2
    Electronic ZPE          0.000 [kcal/mol]        0.000 [kJ/mol]       0.00000000 [Eh]
    Translational ZPE       0.000 [kcal/mol]        0.000 [kJ/mol]       0.00000000 [Eh]
    Rotational ZPE          0.000 [kcal/mol]        0.000 [kJ/mol]       0.00000000 [Eh]
    Vibrational ZPE         7.242 [kcal/mol]       30.299 [kJ/mol]       0.01154046 [Eh]        2532.839 [cm^-1]
  Correction ZPE            7.242 [kcal/mol]       30.299 [kJ/mol]       0.01154046 [Eh]        2532.839 [cm^-1]
  Total ZPE, Electronic energy at 0 [K]                               -184.67434925 [Eh]

  Thermal Energy, E (includes ZPE)
    Electronic E            0.000 [kcal/mol]        0.000 [kJ/mol]       0.00000000 [Eh]
    Translational E         0.889 [kcal/mol]        3.718 [kJ/mol]       0.00141628 [Eh]
    Rotational E            0.592 [kcal/mol]        2.479 [kJ/mol]       0.00094418 [Eh]
    Vibrational E           7.416 [kcal/mol]       31.028 [kJ/mol]       0.01181812 [Eh]
  Correction E              8.897 [kcal/mol]       37.226 [kJ/mol]       0.01417858 [Eh]
  Total E, Electronic energy at  298.15 [K]                           -184.67171113 [Eh]

  Enthalpy, H_trans = E_trans + k_B * T
    Electronic H            0.000 [kcal/mol]        0.000 [kJ/mol]       0.00000000 [Eh]
    Translational H         1.481 [kcal/mol]        6.197 [kJ/mol]       0.00236046 [Eh]
    Rotational H            0.592 [kcal/mol]        2.479 [kJ/mol]       0.00094418 [Eh]
    Vibrational H           7.416 [kcal/mol]       31.028 [kJ/mol]       0.01181812 [Eh]
  Correction H              9.490 [kcal/mol]       39.705 [kJ/mol]       0.01512277 [Eh]
  Total H, Enthalpy at  298.15 [K]                                    -184.67076694 [Eh]

  Gibbs free energy, G = H - T * S
    Electronic G            0.000 [kcal/mol]        0.000 [kJ/mol]       0.00000000 [Eh]
    Translational G        -9.631 [kcal/mol]      -40.297 [kJ/mol]      -0.01534814 [Eh]
    Rotational G           -3.665 [kcal/mol]      -15.333 [kJ/mol]      -0.00584002 [Eh]
    Vibrational G           7.188 [kcal/mol]       30.076 [kJ/mol]       0.01145532 [Eh]
  Correction G             -6.107 [kcal/mol]      -25.554 [kJ/mol]      -0.00973284 [Eh]
  Total G, Free enthalpy at  298.15 [K]                               -184.69562255 [Eh]

    Psi4 stopped on: Tuesday, 20 April 2021 11:16AM
    Psi4 wall time for execution: 0:03:09.54

*** Psi4 exiting successfully. Buy a developer a beer!
