
    -----------------------------------------------------------------------
          Psi4: An Open-Source Ab Initio Electronic Structure Package
                               Psi4 1.3.2 release

                         Git: Rev {HEAD} ecbda83 


    R. M. Parrish, L. A. Burns, D. G. A. Smith, A. C. Simmonett,
    A. E. DePrince III, E. G. Hohenstein, U. Bozkaya, A. Yu. Sokolov,
    R. Di Remigio, R. M. Richard, J. F. Gonthier, A. M. James,
    H. R. McAlexander, A. Kumar, M. Saitow, X. Wang, B. P. Pritchard,
    P. Verma, H. F. Schaefer III, K. Patkowski, R. A. King, E. F. Valeev,
    F. A. Evangelista, J. M. Turney, T. D. Crawford, and C. D. Sherrill,
    J. Chem. Theory Comput. 13(7) pp 3185--3197 (2017).
    (doi: 10.1021/acs.jctc.7b00174)


                         Additional Contributions by
    P. Kraus, H. Kruse, M. H. Lechner, M. C. Schieber, R. A. Shaw,
    A. Alenaizan, R. Galvelis, Z. L. Glick, S. Lehtola, and J. P. Misiewicz

    -----------------------------------------------------------------------


    Psi4 started on: Tuesday, 20 April 2021 11:13AM

    Process ID: 13968
    Host:       bp1-compute00191.data.bp.acrc.priv
    PSIDATADIR: /work/zw18965/.conda/envs/p4env/share/psi4
    Memory:     500.0 MiB
    Threads:    24
    
  ==> Input File <==

--------------------------------------------------------------------------
memory 144 GB

molecule {
0 1
O     0.000000000000   0.000000000000  -1.265658054272
C     0.000000000000   0.000000000000  -0.107611064561
S     0.000000000000   0.000000000000   1.432269118117}

set basis aug-cc-pV(Q+d)Z
 
optimize("wB97X-V")
frequencies("wB97X-V")--------------------------------------------------------------------------

  Memory set to 134.110 GiB by Python driver.
gradient() will perform gradient computation by finite difference of analytic energies.

         ----------------------------------------------------------
                                   FINDIF
                     R. A. King and Jonathon Misiewicz
         ---------------------------------------------------------

  Using finite-differences of energies to determine gradients.
    Generating geometries for use with 3-point formula.
    Displacement size will be 5.00e-03.
    Number of atoms is 3.
    Number of symmetric SALCs is 2.
    Translations projected? 1. Rotations projected? 1.
    Number of geometries (including reference) is 5.

  //>>>>>>>>>>>>>>>>>>>>>>>>>>>>>>>>>>>//
  //    Loading displacement 1 of 5    //
  //<<<<<<<<<<<<<<<<<<<<<<<<<<<<<<<<<<<//

*** tstart() called on bp1-compute00191.data.bp.acrc.priv
*** at Tue Apr 20 11:13:05 2021

   => Loading Basis Set <=

    Name: AUG-CC-PV(Q+D)Z
    Role: ORBITAL
    Keyword: BASIS
    atoms 1 entry O          line   439 file /work/zw18965/.conda/envs/p4env/share/psi4/basis/aug-cc-pv_qpd_z.gbs 
    atoms 2 entry C          line   319 file /work/zw18965/.conda/envs/p4env/share/psi4/basis/aug-cc-pv_qpd_z.gbs 
    atoms 3 entry S          line  1148 file /work/zw18965/.conda/envs/p4env/share/psi4/basis/aug-cc-pv_qpd_z.gbs 


         ---------------------------------------------------------
                                   SCF
               by Justin Turney, Rob Parrish, Andy Simmonett
                          and Daniel G. A. Smith
                              RKS Reference
                       24 Threads, 137329 MiB Core
         ---------------------------------------------------------

  ==> Geometry <==

    Molecular point group: c2v
    Full point group: C_inf_v

    Geometry (in Angstrom), charge = 0, multiplicity = 1:

       Center              X                  Y                   Z               Mass       
    ------------   -----------------  -----------------  -----------------  -----------------
         O            0.000000000000     0.000000000000    -1.670167044907    15.994914619570
         C            0.000000000000     0.000000000000    -0.512120055196    12.000000000000
         S            0.000000000000     0.000000000000     1.027760127482    31.972071174400

  Running in c2v symmetry.

  Rotational constants: A = ************  B =      0.20675  C =      0.20675 [cm^-1]
  Rotational constants: A = ************  B =   6198.21997  C =   6198.21997 [MHz]
  Nuclear repulsion =   80.030347639885051

  Charge       = 0
  Multiplicity = 1
  Electrons    = 30
  Nalpha       = 15
  Nbeta        = 15

  ==> Algorithm <==

  SCF Algorithm Type is DF.
  DIIS enabled.
  MOM disabled.
  Fractional occupation disabled.
  Guess Type is SAD.
  Energy threshold   = 1.00e-08
  Density threshold  = 1.00e-08
  Integral threshold = 0.00e+00

  ==> Primary Basis <==

  Basis Set: AUG-CC-PV(Q+D)Z
    Blend: AUG-CC-PV(Q+D)Z
    Number of shells: 63
    Number of basis function: 249
    Number of Cartesian functions: 325
    Spherical Harmonics?: true
    Max angular momentum: 4

  ==> DFT Potential <==

   => Composite Functional: WB97X-V <= 

    wB97X-V Hyb-GGA Exchange-Correlation Functional

    N. Mardirossian and M. Head-Gordon, Phys. Chem. Chem. Phys. 16, 9904 (2014)

    Deriv               =              1
    GGA                 =           TRUE
    Meta                =          FALSE

    Exchange Hybrid     =           TRUE
    MP2 Hybrid          =          FALSE

   => Exchange-Correlation Functionals <=

    1.0000   wB97X-V range-separated functional

   => Exact (HF) Exchange <=

    0.8330            HF,LR [omega = 0.3000]
    0.1670               HF 

   => VV10 Non-Local Parameters <=

    VV10 B              =     6.0000E+00
    VV10 C              =     1.0000E-02

   => Molecular Quadrature <=

    Radial Scheme          =       TREUTLER
    Pruning Scheme         =           FLAT
    Nuclear Scheme         =       TREUTLER

    BS radius alpha        =              1
    Pruning alpha          =              1
    Radial Points          =             75
    Spherical Points       =            302
    Total Points           =          67950
    Total Blocks           =            601
    Max Points             =            255
    Max Functions          =            249

   => Loading Basis Set <=

    Name: (AUG-CC-PV(Q+D)Z AUX)
    Role: JKFIT
    Keyword: DF_BASIS_SCF
    atoms 1 entry O          line   318 file /work/zw18965/.conda/envs/p4env/share/psi4/basis/aug-cc-pvqz-jkfit.gbs 
    atoms 2 entry C          line   178 file /work/zw18965/.conda/envs/p4env/share/psi4/basis/aug-cc-pvqz-jkfit.gbs 
    atoms 3 entry S          line   810 file /work/zw18965/.conda/envs/p4env/share/psi4/basis/aug-cc-pvqz-jkfit.gbs 

  ==> Pre-Iterations <==

   -------------------------------------------------------
    Irrep   Nso     Nmo     Nalpha   Nbeta   Ndocc  Nsocc
   -------------------------------------------------------
     A1        97      97       0       0       0       0
     A2        34      34       0       0       0       0
     B1        59      59       0       0       0       0
     B2        59      59       0       0       0       0
   -------------------------------------------------------
    Total     249     249      15      15      15       0
   -------------------------------------------------------

  ==> Integral Setup <==

  ==> DiskDFJK: Density-Fitted J/K Matrices <==

    J tasked:                  Yes
    K tasked:                  Yes
    wK tasked:                 Yes
    Omega:               3.000E-01
    OpenMP threads:             24
    Integrals threads:          24
    Memory [MiB]:           102566
    Algorithm:                Core
    Integral Cache:           NONE
    Schwarz Cutoff:          1E-12
    Fitting Condition:       1E-10

   => Auxiliary Basis Set <=

  Basis Set: (AUG-CC-PV(Q+D)Z AUX)
    Blend: AUG-CC-PVQZ-JKFIT
    Number of shells: 114
    Number of basis function: 468
    Number of Cartesian functions: 643
    Spherical Harmonics?: true
    Max angular momentum: 5

  Cached 100.0% of DFT collocation blocks in 0.420 [GiB].

  Minimum eigenvalue in the overlap matrix is 1.8562849695E-05.
  Using Symmetric Orthogonalization.

  SCF Guess: Superposition of Atomic Densities via on-the-fly atomic UHF.

  ==> Iterations <==

                           Total Energy        Delta E     RMS |[F,P]|

   @DF-RKS iter SAD:  -510.97827572324508   -5.10978e+02   0.00000e+00 
   @DF-RKS iter   1:  -511.42809136381265   -4.49816e-01   3.78433e-03 DIIS
   @DF-RKS iter   2:  -511.35439875194606    7.36926e-02   5.09739e-03 DIIS
   @DF-RKS iter   3:  -511.50859269655103   -1.54194e-01   6.00220e-04 DIIS
   @DF-RKS iter   4:  -511.51103481836475   -2.44212e-03   9.31245e-05 DIIS
   @DF-RKS iter   5:  -511.51114765449262   -1.12836e-04   1.98421e-05 DIIS
   @DF-RKS iter   6:  -511.51115553996476   -7.88547e-06   1.11858e-05 DIIS
   @DF-RKS iter   7:  -511.51115687718112   -1.33722e-06   3.94567e-06 DIIS
   @DF-RKS iter   8:  -511.51115708670534   -2.09524e-07   5.21860e-07 DIIS
   @DF-RKS iter   9:  -511.51115709247142   -5.76608e-09   1.52209e-07 DIIS
   @DF-RKS iter  10:  -511.51115709273211   -2.60684e-10   2.84351e-08 DIIS
   @DF-RKS iter  11:  -511.51115709274052   -8.41283e-12   3.14213e-09 DIIS
  Energy and wave function converged.


  ==> Post-Iterations <==

    Orbital Energies [Eh]
    ---------------------

    Doubly Occupied:                                                      

       1A1   -88.921661     2A1   -19.297062     3A1   -10.438208  
       4A1    -8.079928     5A1    -6.036842     1B1    -6.030742  
       1B2    -6.030742     6A1    -1.274082     7A1    -0.962047  
       8A1    -0.668793     2B1    -0.597480     2B2    -0.597480  
       9A1    -0.582558     3B1    -0.404247     3B2    -0.404247  

    Virtual:                                                              

      10A1     0.040741     4B2     0.045768     4B1     0.045768  
      11A1     0.054205     5B1     0.078147     5B2     0.078147  
      12A1     0.089779     6B1     0.098819     6B2     0.098819  
      13A1     0.145446    14A1     0.166103    15A1     0.176903  
       1A2     0.176904     7B2     0.183093     7B1     0.183093  
      16A1     0.184136    17A1     0.201364     8B1     0.252440  
       8B2     0.252440     2A2     0.269513    18A1     0.269515  
      19A1     0.294135    20A1     0.345695     9B2     0.352726  
       9B1     0.352726    10B2     0.379888    10B1     0.379888  
      21A1     0.427785    22A1     0.437556     3A2     0.449131  
      23A1     0.449131    11B2     0.475602    11B1     0.475602  
      24A1     0.519807     4A2     0.519809    25A1     0.522320  
      12B2     0.523251    12B1     0.523251    13B2     0.533645  
      13B1     0.533645     5A2     0.602986    26A1     0.602987  
      27A1     0.637538    28A1     0.651144    14B2     0.657306  
      14B1     0.657306    15B2     0.730036    15B1     0.730036  
      29A1     0.755799    16B2     0.783252    16B1     0.783252  
      30A1     0.787862    31A1     0.853241     6A2     0.853241  
      17B2     0.885061    17B1     0.885061    32A1     0.906364  
      33A1     0.962580     7A2     1.020611    34A1     1.020618  
      18B2     1.053694    18B1     1.053694    35A1     1.076363  
      19B1     1.165181    19B2     1.165181    36A1     1.184058  
       8A2     1.184059    37A1     1.278474    38A1     1.305538  
      20B2     1.344039    20B1     1.344039    21B1     1.346614  
      21B2     1.346614     9A2     1.388509    39A1     1.388510  
      22B1     1.407875    22B2     1.407875    23B2     1.425102  
      23B1     1.425102    10A2     1.502963    40A1     1.502969  
      41A1     1.515731    11A2     1.519672    42A1     1.519672  
      24B1     1.522710    24B2     1.522710    25B2     1.625680  
      25B1     1.625680    43A1     1.655038    44A1     1.714836  
      26B2     1.731653    26B1     1.731653    45A1     1.734521  
      12A2     1.734530    46A1     1.784249    27B2     1.823168  
      27B1     1.823168    13A2     1.846499    47A1     1.846512  
      48A1     1.853861    49A1     2.043178    50A1     2.062023  
      14A2     2.062027    28B1     2.066060    28B2     2.066060  
      29B2     2.159107    29B1     2.159107    30B2     2.165470  
      30B1     2.165470    15A2     2.182470    51A1     2.182474  
      52A1     2.437731    31B1     2.524419    31B2     2.524419  
      32B2     2.563334    32B1     2.563334    53A1     2.609970  
      16A2     2.763796    54A1     2.763804    33B2     2.790927  
      33B1     2.790927    55A1     2.840279    17A2     2.879708  
      56A1     2.879717    57A1     3.018240    34B1     3.130565  
      34B2     3.130565    18A2     3.132388    58A1     3.132390  
      59A1     3.291569    35B2     3.297731    35B1     3.297731  
      36B2     3.460038    36B1     3.460038    60A1     3.481820  
      61A1     3.572258    19A2     3.572265    20A2     3.637791  
      62A1     3.637806    21A2     3.663790    63A1     3.663794  
      37B1     3.690598    37B2     3.690598    38B2     3.757324  
      38B1     3.757324    64A1     3.789028    39B2     3.840340  
      39B1     3.840340    40B2     3.946380    40B1     3.946380  
      65A1     3.966909    22A2     3.966910    66A1     3.998195  
      67A1     4.195538    23A2     4.195540    68A1     4.204726  
      41B1     4.234505    41B2     4.234505    42B1     4.272723  
      42B2     4.272723    69A1     4.351261    43B2     4.429396  
      43B1     4.429396    24A2     4.500161    70A1     4.500167  
      71A1     4.515631    72A1     4.757525    44B2     4.945051  
      44B1     4.945051    73A1     5.003207    25A2     5.003210  
      45B2     5.336017    45B1     5.336017    74A1     5.681587  
      26A2     5.681600    75A1     5.714758    76A1     5.822645  
      46B2     5.876674    46B1     5.876674    47B2     5.944316  
      47B1     5.944316    48B1     6.181046    48B2     6.181046  
      49B2     6.247548    49B1     6.247548    77A1     6.345775  
      27A2     6.345777    28A2     6.433281    78A1     6.433291  
      79A1     6.443630    50B1     6.548647    50B2     6.548647  
      80A1     7.074970    81A1     7.130611    29A2     7.130617  
      51B1     7.472366    51B2     7.472366    82A1     7.782935  
      52B1     8.583203    52B2     8.583203    83A1     8.838972  
      84A1     8.858235    30A2     8.858272    85A1     9.139141  
      53B2     9.305550    53B1     9.305550    86A1    10.114245  
      87A1    10.231852    31A2    10.231935    54B1    10.546579  
      54B2    10.546579    55B1    10.774919    55B2    10.774919  
      32A2    10.777990    88A1    10.777995    56B1    11.091414  
      56B2    11.091414    89A1    11.124546    57B1    11.432126  
      57B2    11.432126    90A1    11.777170    33A2    12.009346  
      91A1    12.009347    58B1    12.459776    58B2    12.459776  
      34A2    12.475326    92A1    12.475366    93A1    13.606042  
      59B1    13.892605    59B2    13.892605    94A1    14.335874  
      95A1    21.614641    96A1    24.858253    97A1    42.265925  

    Final Occupation by Irrep:
             A1    A2    B1    B2 
    DOCC [     9,    0,    3,    3 ]

  @DF-RKS Final Energy:  -511.51115709274052

   => Energetics <=

    Nuclear Repulsion Energy =             80.0303476398850506
    One-Electron Energy =                -862.5605110278304437
    Two-Electron Energy =                 300.1815116601871978
    DFT Exchange-Correlation Energy =     -29.2869989954725121
    Empirical Dispersion Energy =           0.0000000000000000
    VV10 Nonlocal Energy =                  0.1244936304902278
    Total Energy =                       -511.5111570927405182

Computation Completed


Properties will be evaluated at   0.000000,   0.000000,   0.000000 [a0]

Properties computed using the SCF density matrix

  Nuclear Dipole Moment: [e a0]
     X:     0.0000      Y:     0.0000      Z:     0.0191

  Electronic Dipole Moment: [e a0]
     X:     0.0000      Y:     0.0000      Z:     0.2990

  Dipole Moment: [e a0]
     X:     0.0000      Y:     0.0000      Z:     0.3181     Total:     0.3181

  Dipole Moment: [D]
     X:     0.0000      Y:     0.0000      Z:     0.8086     Total:     0.8086


*** tstop() called on bp1-compute00191.data.bp.acrc.priv at Tue Apr 20 11:13:11 2021
Module time:
	user time   =     135.66 seconds =       2.26 minutes
	system time =       4.90 seconds =       0.08 minutes
	total time  =          6 seconds =       0.10 minutes
Total time:
	user time   =     135.66 seconds =       2.26 minutes
	system time =       4.90 seconds =       0.08 minutes
	total time  =          6 seconds =       0.10 minutes

  //>>>>>>>>>>>>>>>>>>>>>>>>>>>>>>>>>>>//
  //    Loading displacement 2 of 5    //
  //<<<<<<<<<<<<<<<<<<<<<<<<<<<<<<<<<<<//

*** tstart() called on bp1-compute00191.data.bp.acrc.priv
*** at Tue Apr 20 11:13:11 2021

   => Loading Basis Set <=

    Name: AUG-CC-PV(Q+D)Z
    Role: ORBITAL
    Keyword: BASIS
    atoms 1 entry O          line   439 file /work/zw18965/.conda/envs/p4env/share/psi4/basis/aug-cc-pv_qpd_z.gbs 
    atoms 2 entry C          line   319 file /work/zw18965/.conda/envs/p4env/share/psi4/basis/aug-cc-pv_qpd_z.gbs 
    atoms 3 entry S          line  1148 file /work/zw18965/.conda/envs/p4env/share/psi4/basis/aug-cc-pv_qpd_z.gbs 


         ---------------------------------------------------------
                                   SCF
               by Justin Turney, Rob Parrish, Andy Simmonett
                          and Daniel G. A. Smith
                              RKS Reference
                       24 Threads, 137329 MiB Core
         ---------------------------------------------------------

  ==> Geometry <==

    Molecular point group: c2v
    Full point group: C_inf_v

    Geometry (in Angstrom), charge = 0, multiplicity = 1:

       Center              X                  Y                   Z               Mass       
    ------------   -----------------  -----------------  -----------------  -----------------
         O            0.000000000000     0.000000000000    -1.670733561357    15.994914619570
         C            0.000000000000     0.000000000000    -0.511913983887    12.000000000000
         S            0.000000000000     0.000000000000     1.027966198791    31.972071174400

  Running in c2v symmetry.

  Rotational constants: A = ************  B =      0.20665  C =      0.20665 [cm^-1]
  Rotational constants: A = ************  B =   6195.08315  C =   6195.08315 [MHz]
  Nuclear repulsion =   80.008536807337705

  Charge       = 0
  Multiplicity = 1
  Electrons    = 30
  Nalpha       = 15
  Nbeta        = 15

  ==> Algorithm <==

  SCF Algorithm Type is DF.
  DIIS enabled.
  MOM disabled.
  Fractional occupation disabled.
  Guess Type is SAD.
  Energy threshold   = 1.00e-08
  Density threshold  = 1.00e-08
  Integral threshold = 0.00e+00

  ==> Primary Basis <==

  Basis Set: AUG-CC-PV(Q+D)Z
    Blend: AUG-CC-PV(Q+D)Z
    Number of shells: 63
    Number of basis function: 249
    Number of Cartesian functions: 325
    Spherical Harmonics?: true
    Max angular momentum: 4

  ==> DFT Potential <==

   => Composite Functional: WB97X-V <= 

    wB97X-V Hyb-GGA Exchange-Correlation Functional

    N. Mardirossian and M. Head-Gordon, Phys. Chem. Chem. Phys. 16, 9904 (2014)

    Deriv               =              1
    GGA                 =           TRUE
    Meta                =          FALSE

    Exchange Hybrid     =           TRUE
    MP2 Hybrid          =          FALSE

   => Exchange-Correlation Functionals <=

    1.0000   wB97X-V range-separated functional

   => Exact (HF) Exchange <=

    0.8330            HF,LR [omega = 0.3000]
    0.1670               HF 

   => VV10 Non-Local Parameters <=

    VV10 B              =     6.0000E+00
    VV10 C              =     1.0000E-02

   => Molecular Quadrature <=

    Radial Scheme          =       TREUTLER
    Pruning Scheme         =           FLAT
    Nuclear Scheme         =       TREUTLER

    BS radius alpha        =              1
    Pruning alpha          =              1
    Radial Points          =             75
    Spherical Points       =            302
    Total Points           =          67950
    Total Blocks           =            601
    Max Points             =            255
    Max Functions          =            249

   => Loading Basis Set <=

    Name: (AUG-CC-PV(Q+D)Z AUX)
    Role: JKFIT
    Keyword: DF_BASIS_SCF
    atoms 1 entry O          line   318 file /work/zw18965/.conda/envs/p4env/share/psi4/basis/aug-cc-pvqz-jkfit.gbs 
    atoms 2 entry C          line   178 file /work/zw18965/.conda/envs/p4env/share/psi4/basis/aug-cc-pvqz-jkfit.gbs 
    atoms 3 entry S          line   810 file /work/zw18965/.conda/envs/p4env/share/psi4/basis/aug-cc-pvqz-jkfit.gbs 

  ==> Pre-Iterations <==

   -------------------------------------------------------
    Irrep   Nso     Nmo     Nalpha   Nbeta   Ndocc  Nsocc
   -------------------------------------------------------
     A1        97      97       0       0       0       0
     A2        34      34       0       0       0       0
     B1        59      59       0       0       0       0
     B2        59      59       0       0       0       0
   -------------------------------------------------------
    Total     249     249      15      15      15       0
   -------------------------------------------------------

  ==> Integral Setup <==

  ==> DiskDFJK: Density-Fitted J/K Matrices <==

    J tasked:                  Yes
    K tasked:                  Yes
    wK tasked:                 Yes
    Omega:               3.000E-01
    OpenMP threads:             24
    Integrals threads:          24
    Memory [MiB]:           102566
    Algorithm:                Core
    Integral Cache:           NONE
    Schwarz Cutoff:          1E-12
    Fitting Condition:       1E-10

   => Auxiliary Basis Set <=

  Basis Set: (AUG-CC-PV(Q+D)Z AUX)
    Blend: AUG-CC-PVQZ-JKFIT
    Number of shells: 114
    Number of basis function: 468
    Number of Cartesian functions: 643
    Spherical Harmonics?: true
    Max angular momentum: 5

  Cached 100.0% of DFT collocation blocks in 0.420 [GiB].

  Minimum eigenvalue in the overlap matrix is 1.8567040711E-05.
  Using Symmetric Orthogonalization.

  SCF Guess: Superposition of Atomic Densities via on-the-fly atomic UHF.

  ==> Iterations <==

                           Total Energy        Delta E     RMS |[F,P]|

   @DF-RKS iter SAD:  -510.97692144320246   -5.10977e+02   0.00000e+00 
   @DF-RKS iter   1:  -511.42801900822616   -4.51098e-01   3.78459e-03 DIIS
   @DF-RKS iter   2:  -511.35380863171235    7.42104e-02   5.10547e-03 DIIS
   @DF-RKS iter   3:  -511.50857662725906   -1.54768e-01   6.00104e-04 DIIS
   @DF-RKS iter   4:  -511.51101815449596   -2.44153e-03   9.31702e-05 DIIS
   @DF-RKS iter   5:  -511.51113104718604   -1.12893e-04   1.98514e-05 DIIS
   @DF-RKS iter   6:  -511.51113894050712   -7.89332e-06   1.12068e-05 DIIS
   @DF-RKS iter   7:  -511.51114028180604   -1.34130e-06   3.94734e-06 DIIS
   @DF-RKS iter   8:  -511.51114049187140   -2.10065e-07   5.22369e-07 DIIS
   @DF-RKS iter   9:  -511.51114049765420   -5.78279e-09   1.52701e-07 DIIS
   @DF-RKS iter  10:  -511.51114049791568   -2.61480e-10   2.86054e-08 DIIS
   @DF-RKS iter  11:  -511.51114049792426   -8.58336e-12   3.15875e-09 DIIS
  Energy and wave function converged.


  ==> Post-Iterations <==

    Orbital Energies [Eh]
    ---------------------

    Doubly Occupied:                                                      

       1A1   -88.921793     2A1   -19.297016     3A1   -10.438344  
       4A1    -8.080055     5A1    -6.036965     1B2    -6.030872  
       1B1    -6.030872     6A1    -1.273571     7A1    -0.962128  
       8A1    -0.668717     2B2    -0.597179     2B1    -0.597179  
       9A1    -0.582576     3B2    -0.404307     3B1    -0.404307  

    Virtual:                                                              

      10A1     0.040720     4B2     0.045592     4B1     0.045592  
      11A1     0.054213     5B1     0.078151     5B2     0.078151  
      12A1     0.089778     6B1     0.098799     6B2     0.098799  
      13A1     0.145373    14A1     0.166105    15A1     0.176880  
       1A2     0.176881     7B1     0.183103     7B2     0.183103  
      16A1     0.184131    17A1     0.201348     8B1     0.252441  
       8B2     0.252441     2A2     0.269518    18A1     0.269521  
      19A1     0.294112    20A1     0.345654     9B1     0.352690  
       9B2     0.352690    10B1     0.379868    10B2     0.379868  
      21A1     0.427790    22A1     0.437377     3A2     0.449071  
      23A1     0.449071    11B1     0.475544    11B2     0.475544  
      24A1     0.519826     4A2     0.519827    25A1     0.522320  
      12B2     0.523212    12B1     0.523212    13B1     0.533672  
      13B2     0.533672     5A2     0.603022    26A1     0.603023  
      27A1     0.637389    28A1     0.651177    14B1     0.657220  
      14B2     0.657220    15B1     0.730012    15B2     0.730012  
      29A1     0.755483    16B2     0.783267    16B1     0.783267  
      30A1     0.787786    31A1     0.853215     6A2     0.853216  
      17B1     0.885098    17B2     0.885098    32A1     0.906207  
      33A1     0.962641     7A2     1.020576    34A1     1.020583  
      18B1     1.053757    18B2     1.053757    35A1     1.076044  
      19B1     1.164961    19B2     1.164961    36A1     1.183974  
       8A2     1.183974    37A1     1.278156    38A1     1.305564  
      20B2     1.343904    20B1     1.343904    21B1     1.346590  
      21B2     1.346590     9A2     1.388446    39A1     1.388446  
      22B1     1.407798    22B2     1.407798    23B2     1.425008  
      23B1     1.425008    10A2     1.502906    40A1     1.502912  
      41A1     1.515529    11A2     1.519730    42A1     1.519730  
      24B1     1.522741    24B2     1.522741    25B1     1.625563  
      25B2     1.625563    43A1     1.654903    44A1     1.714915  
      26B1     1.731522    26B2     1.731522    45A1     1.734690  
      12A2     1.734700    46A1     1.784266    27B1     1.823200  
      27B2     1.823200    13A2     1.846452    47A1     1.846465  
      48A1     1.853926    49A1     2.043168    50A1     2.062037  
      14A2     2.062041    28B1     2.065865    28B2     2.065865  
      29B2     2.159168    29B1     2.159168    30B2     2.165438  
      30B1     2.165438    15A2     2.182166    51A1     2.182170  
      52A1     2.437305    31B1     2.524278    31B2     2.524278  
      32B1     2.563168    32B2     2.563168    53A1     2.609613  
      16A2     2.763570    54A1     2.763579    33B2     2.790510  
      33B1     2.790510    55A1     2.840360    17A2     2.879338  
      56A1     2.879347    57A1     3.017707    34B1     3.130283  
      34B2     3.130283    18A2     3.132322    58A1     3.132324  
      59A1     3.291635    35B2     3.297267    35B1     3.297267  
      36B1     3.459935    36B2     3.459935    60A1     3.482176  
      61A1     3.572167    19A2     3.572174    20A2     3.637685  
      62A1     3.637700    21A2     3.663731    63A1     3.663734  
      37B1     3.690456    37B2     3.690456    38B1     3.757642  
      38B2     3.757642    64A1     3.788373    39B2     3.840090  
      39B1     3.840090    40B2     3.946366    40B1     3.946366  
      65A1     3.966710    22A2     3.966711    66A1     3.997920  
      67A1     4.195694    23A2     4.195696    68A1     4.204384  
      41B2     4.233757    41B1     4.233757    42B2     4.271858  
      42B1     4.271858    69A1     4.351425    43B2     4.429563  
      43B1     4.429563    24A2     4.499820    70A1     4.499826  
      71A1     4.515221    72A1     4.755983    44B2     4.945565  
      44B1     4.945565    73A1     5.002852    25A2     5.002854  
      45B2     5.335086    45B1     5.335086    74A1     5.681622  
      26A2     5.681635    75A1     5.715887    76A1     5.820960  
      46B2     5.875902    46B1     5.875902    47B1     5.943960  
      47B2     5.943960    48B1     6.181072    48B2     6.181072  
      49B2     6.246910    49B1     6.246910    77A1     6.344873  
      27A2     6.344875    28A2     6.433574    78A1     6.433584  
      79A1     6.443521    50B1     6.548505    50B2     6.548505  
      80A1     7.072485    81A1     7.128164    29A2     7.128170  
      51B2     7.470915    51B1     7.470915    82A1     7.781956  
      52B2     8.581102    52B1     8.581102    83A1     8.838204  
      84A1     8.858103    30A2     8.858140    85A1     9.138617  
      53B2     9.304930    53B1     9.304930    86A1    10.113100  
      87A1    10.231949    31A2    10.232033    54B2    10.546080  
      54B1    10.546080    55B1    10.774829    55B2    10.774829  
      32A2    10.777269    88A1    10.777275    56B1    11.090873  
      56B2    11.090873    89A1    11.124607    57B1    11.432086  
      57B2    11.432086    90A1    11.775502    33A2    12.008724  
      91A1    12.008725    58B2    12.458734    58B1    12.458734  
      34A2    12.474933    92A1    12.474974    93A1    13.601791  
      59B2    13.888349    59B1    13.888349    94A1    14.335480  
      95A1    21.613397    96A1    24.848223    97A1    42.261542  

    Final Occupation by Irrep:
             A1    A2    B1    B2 
    DOCC [     9,    0,    3,    3 ]

  @DF-RKS Final Energy:  -511.51114049792426

   => Energetics <=

    Nuclear Repulsion Energy =             80.0085368073377055
    One-Electron Energy =                -862.5177136725662876
    Two-Electron Energy =                 300.1599444950962834
    DFT Exchange-Correlation Energy =     -29.2864019586171089
    Empirical Dispersion Energy =           0.0000000000000000
    VV10 Nonlocal Energy =                  0.1244938308251291
    Total Energy =                       -511.5111404979242593

Computation Completed


Properties will be evaluated at   0.000000,   0.000000,   0.000000 [a0]

Properties computed using the SCF density matrix

  Nuclear Dipole Moment: [e a0]
     X:     0.0000      Y:     0.0000      Z:     0.0191

  Electronic Dipole Moment: [e a0]
     X:     0.0000      Y:     0.0000      Z:     0.3017

  Dipole Moment: [e a0]
     X:     0.0000      Y:     0.0000      Z:     0.3208     Total:     0.3208

  Dipole Moment: [D]
     X:     0.0000      Y:     0.0000      Z:     0.8154     Total:     0.8154


*** tstop() called on bp1-compute00191.data.bp.acrc.priv at Tue Apr 20 11:13:18 2021
Module time:
	user time   =     148.49 seconds =       2.47 minutes
	system time =       4.28 seconds =       0.07 minutes
	total time  =          7 seconds =       0.12 minutes
Total time:
	user time   =     284.30 seconds =       4.74 minutes
	system time =       9.19 seconds =       0.15 minutes
	total time  =         13 seconds =       0.22 minutes

  //>>>>>>>>>>>>>>>>>>>>>>>>>>>>>>>>>>>//
  //    Loading displacement 3 of 5    //
  //<<<<<<<<<<<<<<<<<<<<<<<<<<<<<<<<<<<//

*** tstart() called on bp1-compute00191.data.bp.acrc.priv
*** at Tue Apr 20 11:13:18 2021

   => Loading Basis Set <=

    Name: AUG-CC-PV(Q+D)Z
    Role: ORBITAL
    Keyword: BASIS
    atoms 1 entry O          line   439 file /work/zw18965/.conda/envs/p4env/share/psi4/basis/aug-cc-pv_qpd_z.gbs 
    atoms 2 entry C          line   319 file /work/zw18965/.conda/envs/p4env/share/psi4/basis/aug-cc-pv_qpd_z.gbs 
    atoms 3 entry S          line  1148 file /work/zw18965/.conda/envs/p4env/share/psi4/basis/aug-cc-pv_qpd_z.gbs 


         ---------------------------------------------------------
                                   SCF
               by Justin Turney, Rob Parrish, Andy Simmonett
                          and Daniel G. A. Smith
                              RKS Reference
                       24 Threads, 137329 MiB Core
         ---------------------------------------------------------

  ==> Geometry <==

    Molecular point group: c2v
    Full point group: C_inf_v

    Geometry (in Angstrom), charge = 0, multiplicity = 1:

       Center              X                  Y                   Z               Mass       
    ------------   -----------------  -----------------  -----------------  -----------------
         O            0.000000000000     0.000000000000    -1.669600528457    15.994914619570
         C            0.000000000000     0.000000000000    -0.512326126505    12.000000000000
         S            0.000000000000     0.000000000000     1.027554056173    31.972071174400

  Running in c2v symmetry.

  Rotational constants: A = ************  B =      0.20686  C =      0.20686 [cm^-1]
  Rotational constants: A = ************  B =   6201.35891  C =   6201.35891 [MHz]
  Nuclear repulsion =   80.052182114988753

  Charge       = 0
  Multiplicity = 1
  Electrons    = 30
  Nalpha       = 15
  Nbeta        = 15

  ==> Algorithm <==

  SCF Algorithm Type is DF.
  DIIS enabled.
  MOM disabled.
  Fractional occupation disabled.
  Guess Type is SAD.
  Energy threshold   = 1.00e-08
  Density threshold  = 1.00e-08
  Integral threshold = 0.00e+00

  ==> Primary Basis <==

  Basis Set: AUG-CC-PV(Q+D)Z
    Blend: AUG-CC-PV(Q+D)Z
    Number of shells: 63
    Number of basis function: 249
    Number of Cartesian functions: 325
    Spherical Harmonics?: true
    Max angular momentum: 4

  ==> DFT Potential <==

   => Composite Functional: WB97X-V <= 

    wB97X-V Hyb-GGA Exchange-Correlation Functional

    N. Mardirossian and M. Head-Gordon, Phys. Chem. Chem. Phys. 16, 9904 (2014)

    Deriv               =              1
    GGA                 =           TRUE
    Meta                =          FALSE

    Exchange Hybrid     =           TRUE
    MP2 Hybrid          =          FALSE

   => Exchange-Correlation Functionals <=

    1.0000   wB97X-V range-separated functional

   => Exact (HF) Exchange <=

    0.8330            HF,LR [omega = 0.3000]
    0.1670               HF 

   => VV10 Non-Local Parameters <=

    VV10 B              =     6.0000E+00
    VV10 C              =     1.0000E-02

   => Molecular Quadrature <=

    Radial Scheme          =       TREUTLER
    Pruning Scheme         =           FLAT
    Nuclear Scheme         =       TREUTLER

    BS radius alpha        =              1
    Pruning alpha          =              1
    Radial Points          =             75
    Spherical Points       =            302
    Total Points           =          67950
    Total Blocks           =            600
    Max Points             =            255
    Max Functions          =            249

   => Loading Basis Set <=

    Name: (AUG-CC-PV(Q+D)Z AUX)
    Role: JKFIT
    Keyword: DF_BASIS_SCF
    atoms 1 entry O          line   318 file /work/zw18965/.conda/envs/p4env/share/psi4/basis/aug-cc-pvqz-jkfit.gbs 
    atoms 2 entry C          line   178 file /work/zw18965/.conda/envs/p4env/share/psi4/basis/aug-cc-pvqz-jkfit.gbs 
    atoms 3 entry S          line   810 file /work/zw18965/.conda/envs/p4env/share/psi4/basis/aug-cc-pvqz-jkfit.gbs 

  ==> Pre-Iterations <==

   -------------------------------------------------------
    Irrep   Nso     Nmo     Nalpha   Nbeta   Ndocc  Nsocc
   -------------------------------------------------------
     A1        97      97       0       0       0       0
     A2        34      34       0       0       0       0
     B1        59      59       0       0       0       0
     B2        59      59       0       0       0       0
   -------------------------------------------------------
    Total     249     249      15      15      15       0
   -------------------------------------------------------

  ==> Integral Setup <==

  ==> DiskDFJK: Density-Fitted J/K Matrices <==

    J tasked:                  Yes
    K tasked:                  Yes
    wK tasked:                 Yes
    Omega:               3.000E-01
    OpenMP threads:             24
    Integrals threads:          24
    Memory [MiB]:           102566
    Algorithm:                Core
    Integral Cache:           NONE
    Schwarz Cutoff:          1E-12
    Fitting Condition:       1E-10

   => Auxiliary Basis Set <=

  Basis Set: (AUG-CC-PV(Q+D)Z AUX)
    Blend: AUG-CC-PVQZ-JKFIT
    Number of shells: 114
    Number of basis function: 468
    Number of Cartesian functions: 643
    Spherical Harmonics?: true
    Max angular momentum: 5

  Cached 100.0% of DFT collocation blocks in 0.420 [GiB].

  Minimum eigenvalue in the overlap matrix is 1.8558658374E-05.
  Using Symmetric Orthogonalization.

  SCF Guess: Superposition of Atomic Densities via on-the-fly atomic UHF.

  ==> Iterations <==

                           Total Energy        Delta E     RMS |[F,P]|

   @DF-RKS iter SAD:  -510.97964904423247   -5.10980e+02   0.00000e+00 
   @DF-RKS iter   1:  -511.42816410834297   -4.48515e-01   3.78402e-03 DIIS
   @DF-RKS iter   2:  -511.35499498295815    7.31691e-02   5.08916e-03 DIIS
   @DF-RKS iter   3:  -511.50860640065804   -1.53611e-01   6.00357e-04 DIIS
   @DF-RKS iter   4:  -511.51104925233852   -2.44285e-03   9.30744e-05 DIIS
   @DF-RKS iter   5:  -511.51116201857769   -1.12766e-04   1.98336e-05 DIIS
   @DF-RKS iter   6:  -511.51116989530362   -7.87673e-06   1.11686e-05 DIIS
   @DF-RKS iter   7:  -511.51117122922312   -1.33392e-06   3.94254e-06 DIIS
   @DF-RKS iter   8:  -511.51117143815748   -2.08934e-07   5.21307e-07 DIIS
   @DF-RKS iter   9:  -511.51117144390753   -5.75005e-09   1.51718e-07 DIIS
   @DF-RKS iter  10:  -511.51117144416673   -2.59206e-10   2.82654e-08 DIIS
   @DF-RKS iter  11:  -511.51117144417441   -7.67386e-12   3.12540e-09 DIIS
  Energy and wave function converged.


  ==> Post-Iterations <==

    Orbital Energies [Eh]
    ---------------------

    Doubly Occupied:                                                      

       1A1   -88.921528     2A1   -19.297109     3A1   -10.438072  
       4A1    -8.079802     5A1    -6.036718     1B1    -6.030613  
       1B2    -6.030613     6A1    -1.274593     7A1    -0.961966  
       8A1    -0.668870     2B1    -0.597782     2B2    -0.597782  
       9A1    -0.582539     3B1    -0.404186     3B2    -0.404186  

    Virtual:                                                              

      10A1     0.040761     4B1     0.045944     4B2     0.045944  
      11A1     0.054197     5B1     0.078143     5B2     0.078143  
      12A1     0.089780     6B1     0.098838     6B2     0.098838  
      13A1     0.145519    14A1     0.166101    15A1     0.176926  
       1A2     0.176927     7B2     0.183082     7B1     0.183082  
      16A1     0.184141    17A1     0.201380     8B1     0.252439  
       8B2     0.252439     2A2     0.269507    18A1     0.269509  
      19A1     0.294158    20A1     0.345736     9B1     0.352761  
       9B2     0.352761    10B2     0.379907    10B1     0.379907  
      21A1     0.427779    22A1     0.437734     3A2     0.449190  
      23A1     0.449191    11B1     0.475661    11B2     0.475661  
      24A1     0.519789     4A2     0.519791    25A1     0.522319  
      12B2     0.523290    12B1     0.523290    13B2     0.533619  
      13B1     0.533619     5A2     0.602950    26A1     0.602950  
      27A1     0.637686    28A1     0.651111    14B1     0.657392  
      14B2     0.657392    15B1     0.730059    15B2     0.730059  
      29A1     0.756114    16B2     0.783237    16B1     0.783237  
      30A1     0.787940    31A1     0.853266     6A2     0.853267  
      17B1     0.885023    17B2     0.885023    32A1     0.906521  
      33A1     0.962521     7A2     1.020646    34A1     1.020653  
      18B1     1.053632    18B2     1.053632    35A1     1.076683  
      19B1     1.165401    19B2     1.165401    36A1     1.184143  
       8A2     1.184144    37A1     1.278793    38A1     1.305513  
      20B1     1.344174    20B2     1.344174    21B1     1.346638  
      21B2     1.346638     9A2     1.388573    39A1     1.388574  
      22B2     1.407952    22B1     1.407952    23B1     1.425195  
      23B2     1.425195    10A2     1.503020    40A1     1.503026  
      41A1     1.515933    11A2     1.519615    42A1     1.519615  
      24B1     1.522680    24B2     1.522680    25B1     1.625797  
      25B2     1.625797    43A1     1.655173    44A1     1.714756  
      26B2     1.731785    26B1     1.731785    45A1     1.734350  
      12A2     1.734360    46A1     1.784232    27B2     1.823137  
      27B1     1.823137    13A2     1.846546    47A1     1.846559  
      48A1     1.853796    49A1     2.043188    50A1     2.062009  
      14A2     2.062014    28B2     2.066254    28B1     2.066254  
      29B1     2.159048    29B2     2.159048    30B2     2.165502  
      30B1     2.165502    15A2     2.182774    51A1     2.182779  
      52A1     2.438157    31B2     2.524560    31B1     2.524560  
      32B1     2.563499    32B2     2.563499    53A1     2.610327  
      16A2     2.764020    54A1     2.764029    33B1     2.791345  
      33B2     2.791345    55A1     2.840198    17A2     2.880079  
      56A1     2.880087    57A1     3.018772    34B2     3.130846  
      34B1     3.130846    18A2     3.132453    58A1     3.132455  
      59A1     3.291505    35B2     3.298196    35B1     3.298196  
      36B2     3.460142    36B1     3.460142    60A1     3.481466  
      61A1     3.572350    19A2     3.572357    20A2     3.637897  
      62A1     3.637912    21A2     3.663849    63A1     3.663853  
      37B1     3.690741    37B2     3.690741    38B2     3.757006  
      38B1     3.757006    64A1     3.789681    39B1     3.840590  
      39B2     3.840590    40B2     3.946394    40B1     3.946394  
      65A1     3.967110    22A2     3.967111    66A1     3.998471  
      67A1     4.195381    23A2     4.195383    68A1     4.205067  
      41B1     4.235255    41B2     4.235255    42B2     4.273588  
      42B1     4.273588    69A1     4.351093    43B2     4.429224  
      43B1     4.429224    24A2     4.500502    70A1     4.500508  
      71A1     4.516042    72A1     4.759074    44B1     4.944544  
      44B2     4.944544    73A1     5.003562    25A2     5.003565  
      45B2     5.336946    45B1     5.336946    74A1     5.681552  
      26A2     5.681565    75A1     5.713555    76A1     5.824402  
      46B2     5.877446    46B1     5.877446    47B1     5.944672  
      47B2     5.944672    48B2     6.181020    48B1     6.181020  
      49B2     6.248189    49B1     6.248189    77A1     6.346678  
      27A2     6.346680    28A2     6.432987    78A1     6.432997  
      79A1     6.443740    50B2     6.548791    50B1     6.548791  
      80A1     7.077455    81A1     7.133061    29A2     7.133067  
      51B2     7.473818    51B1     7.473818    82A1     7.783924  
      52B2     8.585305    52B1     8.585305    83A1     8.839740  
      84A1     8.858368    30A2     8.858405    85A1     9.139659  
      53B1     9.306170    53B2     9.306170    86A1    10.115399  
      87A1    10.231755    31A2    10.231838    54B2    10.547079  
      54B1    10.547079    55B2    10.775008    55B1    10.775008  
      32A2    10.778714    88A1    10.778719    56B2    11.091953  
      56B1    11.091953    89A1    11.124484    57B2    11.432166  
      57B1    11.432166    90A1    11.778835    33A2    12.009965  
      91A1    12.009966    58B2    12.460829    58B1    12.460829  
      34A2    12.475721    92A1    12.475760    93A1    13.610291  
      59B2    13.896863    59B1    13.896863    94A1    14.336275  
      95A1    21.615886    96A1    24.868292    97A1    42.270331  

    Final Occupation by Irrep:
             A1    A2    B1    B2 
    DOCC [     9,    0,    3,    3 ]

  @DF-RKS Final Energy:  -511.51117144417441

   => Energetics <=

    Nuclear Repulsion Energy =             80.0521821149887529
    One-Electron Energy =                -862.6033488497844246
    Two-Electron Energy =                 300.2030990063846616
    DFT Exchange-Correlation Energy =     -29.2875971472671459
    Empirical Dispersion Energy =           0.0000000000000000
    VV10 Nonlocal Energy =                  0.1244934315037149
    Total Energy =                       -511.5111714441744084

Computation Completed


Properties will be evaluated at   0.000000,   0.000000,   0.000000 [a0]

Properties computed using the SCF density matrix

  Nuclear Dipole Moment: [e a0]
     X:     0.0000      Y:     0.0000      Z:     0.0191

  Electronic Dipole Moment: [e a0]
     X:     0.0000      Y:     0.0000      Z:     0.2963

  Dipole Moment: [e a0]
     X:     0.0000      Y:     0.0000      Z:     0.3154     Total:     0.3154

  Dipole Moment: [D]
     X:     0.0000      Y:     0.0000      Z:     0.8017     Total:     0.8017


*** tstop() called on bp1-compute00191.data.bp.acrc.priv at Tue Apr 20 11:13:24 2021
Module time:
	user time   =     134.00 seconds =       2.23 minutes
	system time =       3.19 seconds =       0.05 minutes
	total time  =          6 seconds =       0.10 minutes
Total time:
	user time   =     418.46 seconds =       6.97 minutes
	system time =      12.39 seconds =       0.21 minutes
	total time  =         19 seconds =       0.32 minutes

  //>>>>>>>>>>>>>>>>>>>>>>>>>>>>>>>>>>>//
  //    Loading displacement 4 of 5    //
  //<<<<<<<<<<<<<<<<<<<<<<<<<<<<<<<<<<<//

*** tstart() called on bp1-compute00191.data.bp.acrc.priv
*** at Tue Apr 20 11:13:24 2021

   => Loading Basis Set <=

    Name: AUG-CC-PV(Q+D)Z
    Role: ORBITAL
    Keyword: BASIS
    atoms 1 entry O          line   439 file /work/zw18965/.conda/envs/p4env/share/psi4/basis/aug-cc-pv_qpd_z.gbs 
    atoms 2 entry C          line   319 file /work/zw18965/.conda/envs/p4env/share/psi4/basis/aug-cc-pv_qpd_z.gbs 
    atoms 3 entry S          line  1148 file /work/zw18965/.conda/envs/p4env/share/psi4/basis/aug-cc-pv_qpd_z.gbs 


         ---------------------------------------------------------
                                   SCF
               by Justin Turney, Rob Parrish, Andy Simmonett
                          and Daniel G. A. Smith
                              RKS Reference
                       24 Threads, 137329 MiB Core
         ---------------------------------------------------------

  ==> Geometry <==

    Molecular point group: c2v
    Full point group: C_inf_v

    Geometry (in Angstrom), charge = 0, multiplicity = 1:

       Center              X                  Y                   Z               Mass       
    ------------   -----------------  -----------------  -----------------  -----------------
         O            0.000000000000     0.000000000000    -1.670167044907    15.994914619570
         C            0.000000000000     0.000000000000    -0.512771349738    12.000000000000
         S            0.000000000000     0.000000000000     1.028004576284    31.972071174400

  Running in c2v symmetry.

  Rotational constants: A = ************  B =      0.20669  C =      0.20669 [cm^-1]
  Rotational constants: A = ************  B =   6196.39023  C =   6196.39023 [MHz]
  Nuclear repulsion =   80.021236657333276

  Charge       = 0
  Multiplicity = 1
  Electrons    = 30
  Nalpha       = 15
  Nbeta        = 15

  ==> Algorithm <==

  SCF Algorithm Type is DF.
  DIIS enabled.
  MOM disabled.
  Fractional occupation disabled.
  Guess Type is SAD.
  Energy threshold   = 1.00e-08
  Density threshold  = 1.00e-08
  Integral threshold = 0.00e+00

  ==> Primary Basis <==

  Basis Set: AUG-CC-PV(Q+D)Z
    Blend: AUG-CC-PV(Q+D)Z
    Number of shells: 63
    Number of basis function: 249
    Number of Cartesian functions: 325
    Spherical Harmonics?: true
    Max angular momentum: 4

  ==> DFT Potential <==

   => Composite Functional: WB97X-V <= 

    wB97X-V Hyb-GGA Exchange-Correlation Functional

    N. Mardirossian and M. Head-Gordon, Phys. Chem. Chem. Phys. 16, 9904 (2014)

    Deriv               =              1
    GGA                 =           TRUE
    Meta                =          FALSE

    Exchange Hybrid     =           TRUE
    MP2 Hybrid          =          FALSE

   => Exchange-Correlation Functionals <=

    1.0000   wB97X-V range-separated functional

   => Exact (HF) Exchange <=

    0.8330            HF,LR [omega = 0.3000]
    0.1670               HF 

   => VV10 Non-Local Parameters <=

    VV10 B              =     6.0000E+00
    VV10 C              =     1.0000E-02

   => Molecular Quadrature <=

    Radial Scheme          =       TREUTLER
    Pruning Scheme         =           FLAT
    Nuclear Scheme         =       TREUTLER

    BS radius alpha        =              1
    Pruning alpha          =              1
    Radial Points          =             75
    Spherical Points       =            302
    Total Points           =          67950
    Total Blocks           =            600
    Max Points             =            255
    Max Functions          =            249

   => Loading Basis Set <=

    Name: (AUG-CC-PV(Q+D)Z AUX)
    Role: JKFIT
    Keyword: DF_BASIS_SCF
    atoms 1 entry O          line   318 file /work/zw18965/.conda/envs/p4env/share/psi4/basis/aug-cc-pvqz-jkfit.gbs 
    atoms 2 entry C          line   178 file /work/zw18965/.conda/envs/p4env/share/psi4/basis/aug-cc-pvqz-jkfit.gbs 
    atoms 3 entry S          line   810 file /work/zw18965/.conda/envs/p4env/share/psi4/basis/aug-cc-pvqz-jkfit.gbs 

  ==> Pre-Iterations <==

   -------------------------------------------------------
    Irrep   Nso     Nmo     Nalpha   Nbeta   Ndocc  Nsocc
   -------------------------------------------------------
     A1        97      97       0       0       0       0
     A2        34      34       0       0       0       0
     B1        59      59       0       0       0       0
     B2        59      59       0       0       0       0
   -------------------------------------------------------
    Total     249     249      15      15      15       0
   -------------------------------------------------------

  ==> Integral Setup <==

  ==> DiskDFJK: Density-Fitted J/K Matrices <==

    J tasked:                  Yes
    K tasked:                  Yes
    wK tasked:                 Yes
    Omega:               3.000E-01
    OpenMP threads:             24
    Integrals threads:          24
    Memory [MiB]:           102566
    Algorithm:                Core
    Integral Cache:           NONE
    Schwarz Cutoff:          1E-12
    Fitting Condition:       1E-10

   => Auxiliary Basis Set <=

  Basis Set: (AUG-CC-PV(Q+D)Z AUX)
    Blend: AUG-CC-PVQZ-JKFIT
    Number of shells: 114
    Number of basis function: 468
    Number of Cartesian functions: 643
    Spherical Harmonics?: true
    Max angular momentum: 5

  Cached 100.0% of DFT collocation blocks in 0.420 [GiB].

  Minimum eigenvalue in the overlap matrix is 1.8603451734E-05.
  Using Symmetric Orthogonalization.

  SCF Guess: Superposition of Atomic Densities via on-the-fly atomic UHF.

  ==> Iterations <==

                           Total Energy        Delta E     RMS |[F,P]|

   @DF-RKS iter SAD:  -510.97806654174059   -5.10978e+02   0.00000e+00 
   @DF-RKS iter   1:  -511.42828015364637   -4.50214e-01   3.78243e-03 DIIS
   @DF-RKS iter   2:  -511.35512321772222    7.31569e-02   5.08830e-03 DIIS
   @DF-RKS iter   3:  -511.50863709910783   -1.53514e-01   5.99943e-04 DIIS
   @DF-RKS iter   4:  -511.51107786222792   -2.44076e-03   9.32081e-05 DIIS
   @DF-RKS iter   5:  -511.51119078211167   -1.12920e-04   2.01274e-05 DIIS
   @DF-RKS iter   6:  -511.51119870571932   -7.92361e-06   1.17872e-05 DIIS
   @DF-RKS iter   7:  -511.51120017560260   -1.46988e-06   3.78472e-06 DIIS
   @DF-RKS iter   8:  -511.51120038045968   -2.04857e-07   5.17269e-07 DIIS
   @DF-RKS iter   9:  -511.51120038619177   -5.73209e-09   1.52127e-07 DIIS
   @DF-RKS iter  10:  -511.51120038645195   -2.60172e-10   2.83303e-08 DIIS
   @DF-RKS iter  11:  -511.51120038645956   -7.61702e-12   3.13515e-09 DIIS
  Energy and wave function converged.


  ==> Post-Iterations <==

    Orbital Energies [Eh]
    ---------------------

    Doubly Occupied:                                                      

       1A1   -88.921611     2A1   -19.297271     3A1   -10.438278  
       4A1    -8.079836     5A1    -6.036763     1B2    -6.030647  
       1B1    -6.030647     6A1    -1.274642     7A1    -0.961709  
       8A1    -0.668991     2B2    -0.597772     2B1    -0.597772  
       9A1    -0.582530     3B2    -0.404137     3B1    -0.404137  

    Virtual:                                                              

      10A1     0.040752     4B2     0.045852     4B1     0.045852  
      11A1     0.054192     5B2     0.078131     5B1     0.078131  
      12A1     0.089777     6B2     0.098828     6B1     0.098828  
      13A1     0.145332    14A1     0.166077    15A1     0.176935  
       1A2     0.176936     7B2     0.183054     7B1     0.183054  
      16A1     0.184115    17A1     0.201388     8B1     0.252445  
       8B2     0.252445     2A2     0.269495    18A1     0.269498  
      19A1     0.294032    20A1     0.345693     9B2     0.352781  
       9B1     0.352781    10B2     0.379868    10B1     0.379868  
      21A1     0.427794    22A1     0.437691     3A2     0.449241  
      23A1     0.449241    11B1     0.475527    11B2     0.475527  
      24A1     0.519744     4A2     0.519746    25A1     0.522318  
      12B1     0.523311    12B2     0.523311    13B2     0.533564  
      13B1     0.533564     5A2     0.602951    26A1     0.602952  
      27A1     0.637605    28A1     0.651019    14B2     0.657315  
      14B1     0.657315    15B1     0.730091    15B2     0.730091  
      29A1     0.756036    16B2     0.783166    16B1     0.783166  
      30A1     0.787865    31A1     0.853129     6A2     0.853130  
      17B2     0.884887    17B1     0.884887    32A1     0.906363  
      33A1     0.962427     7A2     1.020533    34A1     1.020541  
      18B1     1.053707    18B2     1.053707    35A1     1.076274  
      19B1     1.165159    19B2     1.165159    36A1     1.184226  
       8A2     1.184227    37A1     1.278586    38A1     1.305269  
      20B2     1.343990    20B1     1.343990    21B2     1.346585  
      21B1     1.346585     9A2     1.388616    39A1     1.388617  
      22B2     1.407975    22B1     1.407975    23B2     1.425273  
      23B1     1.425273    10A2     1.502894    40A1     1.502900  
      41A1     1.515751    11A2     1.519599    42A1     1.519599  
      24B2     1.522691    24B1     1.522691    25B1     1.625617  
      25B2     1.625617    43A1     1.654906    44A1     1.714560  
      26B2     1.731600    26B1     1.731600    45A1     1.734341  
      12A2     1.734350    46A1     1.784144    27B2     1.822843  
      27B1     1.822843    13A2     1.846456    47A1     1.846469  
      48A1     1.853828    49A1     2.043627    50A1     2.061875  
      14A2     2.061879    28B1     2.065954    28B2     2.065954  
      29B2     2.158880    29B1     2.158880    30B2     2.165337  
      30B1     2.165337    15A2     2.182346    51A1     2.182350  
      52A1     2.437825    31B1     2.524166    31B2     2.524166  
      32B1     2.563268    32B2     2.563268    53A1     2.609456  
      16A2     2.763733    54A1     2.763742    33B2     2.791226  
      33B1     2.791226    55A1     2.839883    17A2     2.879809  
      56A1     2.879818    57A1     3.018112    34B2     3.130407  
      34B1     3.130407    18A2     3.132354    58A1     3.132357  
      59A1     3.291157    35B2     3.297434    35B1     3.297434  
      36B1     3.460225    36B2     3.460225    60A1     3.481591  
      61A1     3.572215    19A2     3.572222    20A2     3.637969  
      62A1     3.637985    21A2     3.663534    63A1     3.663537  
      37B1     3.690548    37B2     3.690548    38B2     3.756741  
      38B1     3.756741    64A1     3.789075    39B2     3.840219  
      39B1     3.840219    40B1     3.946208    40B2     3.946208  
      65A1     3.966588    22A2     3.966589    66A1     3.997600  
      67A1     4.195217    23A2     4.195219    68A1     4.204448  
      41B2     4.234574    41B1     4.234574    42B1     4.273008  
      42B2     4.273008    69A1     4.351467    43B2     4.429223  
      43B1     4.429223    24A2     4.500175    70A1     4.500181  
      71A1     4.515633    72A1     4.758338    44B2     4.943871  
      44B1     4.943871    73A1     5.003163    25A2     5.003166  
      45B2     5.336427    45B1     5.336427    74A1     5.681463  
      26A2     5.681477    75A1     5.713048    76A1     5.823690  
      46B1     5.875870    46B2     5.875870    47B1     5.944363  
      47B2     5.944363    48B1     6.180881    48B2     6.180881  
      49B1     6.247837    49B2     6.247837    77A1     6.346219  
      27A2     6.346220    28A2     6.432207    78A1     6.432217  
      79A1     6.442862    50B1     6.548404    50B2     6.548404  
      80A1     7.076174    81A1     7.131909    29A2     7.131915  
      51B1     7.472327    51B2     7.472327    82A1     7.781127  
      52B2     8.584283    52B1     8.584283    83A1     8.840010  
      84A1     8.858260    30A2     8.858297    85A1     9.138374  
      53B2     9.304473    53B1     9.304473    86A1    10.113978  
      87A1    10.231624    31A2    10.231707    54B2    10.546752  
      54B1    10.546752    55B2    10.774518    55B1    10.774518  
      32A2    10.778302    88A1    10.778307    56B1    11.091610  
      56B2    11.091610    89A1    11.124507    57B2    11.431956  
      57B1    11.431956    90A1    11.777949    33A2    12.009664  
      91A1    12.009665    58B2    12.460109    58B1    12.460109  
      34A2    12.475474    92A1    12.475514    93A1    13.608553  
      59B1    13.894967    59B2    13.894967    94A1    14.336198  
      95A1    21.605034    96A1    24.864957    97A1    42.268601  

    Final Occupation by Irrep:
             A1    A2    B1    B2 
    DOCC [     9,    0,    3,    3 ]

  @DF-RKS Final Energy:  -511.51120038645956

   => Energetics <=

    Nuclear Repulsion Energy =             80.0212366573332758
    One-Electron Energy =                -862.5411160133616022
    Two-Electron Energy =                 300.1711966865532304
    DFT Exchange-Correlation Energy =     -29.2870119325133160
    Empirical Dispersion Energy =           0.0000000000000000
    VV10 Nonlocal Energy =                  0.1244942155288929
    Total Energy =                       -511.5112003864595636

Computation Completed


Properties will be evaluated at   0.000000,   0.000000,   0.000000 [a0]

Properties computed using the SCF density matrix

  Nuclear Dipole Moment: [e a0]
     X:     0.0000      Y:     0.0000      Z:     0.0191

  Electronic Dipole Moment: [e a0]
     X:     0.0000      Y:     0.0000      Z:     0.2950

  Dipole Moment: [e a0]
     X:     0.0000      Y:     0.0000      Z:     0.3141     Total:     0.3141

  Dipole Moment: [D]
     X:     0.0000      Y:     0.0000      Z:     0.7983     Total:     0.7983


*** tstop() called on bp1-compute00191.data.bp.acrc.priv at Tue Apr 20 11:13:30 2021
Module time:
	user time   =     134.89 seconds =       2.25 minutes
	system time =       3.16 seconds =       0.05 minutes
	total time  =          6 seconds =       0.10 minutes
Total time:
	user time   =     553.50 seconds =       9.22 minutes
	system time =      15.56 seconds =       0.26 minutes
	total time  =         25 seconds =       0.42 minutes

  //>>>>>>>>>>>>>>>>>>>>>>>>>>>>>>>>>>>//
  //    Loading displacement 5 of 5    //
  //<<<<<<<<<<<<<<<<<<<<<<<<<<<<<<<<<<<//

*** tstart() called on bp1-compute00191.data.bp.acrc.priv
*** at Tue Apr 20 11:13:30 2021

   => Loading Basis Set <=

    Name: AUG-CC-PV(Q+D)Z
    Role: ORBITAL
    Keyword: BASIS
    atoms 1 entry O          line   439 file /work/zw18965/.conda/envs/p4env/share/psi4/basis/aug-cc-pv_qpd_z.gbs 
    atoms 2 entry C          line   319 file /work/zw18965/.conda/envs/p4env/share/psi4/basis/aug-cc-pv_qpd_z.gbs 
    atoms 3 entry S          line  1148 file /work/zw18965/.conda/envs/p4env/share/psi4/basis/aug-cc-pv_qpd_z.gbs 


         ---------------------------------------------------------
                                   SCF
               by Justin Turney, Rob Parrish, Andy Simmonett
                          and Daniel G. A. Smith
                              RKS Reference
                       24 Threads, 137329 MiB Core
         ---------------------------------------------------------

  ==> Geometry <==

    Molecular point group: c2v
    Full point group: C_inf_v

    Geometry (in Angstrom), charge = 0, multiplicity = 1:

       Center              X                  Y                   Z               Mass       
    ------------   -----------------  -----------------  -----------------  -----------------
         O            0.000000000000     0.000000000000    -1.670167044907    15.994914619570
         C            0.000000000000     0.000000000000    -0.511468760654    12.000000000000
         S            0.000000000000     0.000000000000     1.027515678680    31.972071174400

  Running in c2v symmetry.

  Rotational constants: A = ************  B =      0.20681  C =      0.20681 [cm^-1]
  Rotational constants: A = ************  B =   6200.04973  C =   6200.04973 [MHz]
  Nuclear repulsion =   80.039495236056354

  Charge       = 0
  Multiplicity = 1
  Electrons    = 30
  Nalpha       = 15
  Nbeta        = 15

  ==> Algorithm <==

  SCF Algorithm Type is DF.
  DIIS enabled.
  MOM disabled.
  Fractional occupation disabled.
  Guess Type is SAD.
  Energy threshold   = 1.00e-08
  Density threshold  = 1.00e-08
  Integral threshold = 0.00e+00

  ==> Primary Basis <==

  Basis Set: AUG-CC-PV(Q+D)Z
    Blend: AUG-CC-PV(Q+D)Z
    Number of shells: 63
    Number of basis function: 249
    Number of Cartesian functions: 325
    Spherical Harmonics?: true
    Max angular momentum: 4

  ==> DFT Potential <==

   => Composite Functional: WB97X-V <= 

    wB97X-V Hyb-GGA Exchange-Correlation Functional

    N. Mardirossian and M. Head-Gordon, Phys. Chem. Chem. Phys. 16, 9904 (2014)

    Deriv               =              1
    GGA                 =           TRUE
    Meta                =          FALSE

    Exchange Hybrid     =           TRUE
    MP2 Hybrid          =          FALSE

   => Exchange-Correlation Functionals <=

    1.0000   wB97X-V range-separated functional

   => Exact (HF) Exchange <=

    0.8330            HF,LR [omega = 0.3000]
    0.1670               HF 

   => VV10 Non-Local Parameters <=

    VV10 B              =     6.0000E+00
    VV10 C              =     1.0000E-02

   => Molecular Quadrature <=

    Radial Scheme          =       TREUTLER
    Pruning Scheme         =           FLAT
    Nuclear Scheme         =       TREUTLER

    BS radius alpha        =              1
    Pruning alpha          =              1
    Radial Points          =             75
    Spherical Points       =            302
    Total Points           =          67950
    Total Blocks           =            600
    Max Points             =            255
    Max Functions          =            249

   => Loading Basis Set <=

    Name: (AUG-CC-PV(Q+D)Z AUX)
    Role: JKFIT
    Keyword: DF_BASIS_SCF
    atoms 1 entry O          line   318 file /work/zw18965/.conda/envs/p4env/share/psi4/basis/aug-cc-pvqz-jkfit.gbs 
    atoms 2 entry C          line   178 file /work/zw18965/.conda/envs/p4env/share/psi4/basis/aug-cc-pvqz-jkfit.gbs 
    atoms 3 entry S          line   810 file /work/zw18965/.conda/envs/p4env/share/psi4/basis/aug-cc-pvqz-jkfit.gbs 

  ==> Pre-Iterations <==

   -------------------------------------------------------
    Irrep   Nso     Nmo     Nalpha   Nbeta   Ndocc  Nsocc
   -------------------------------------------------------
     A1        97      97       0       0       0       0
     A2        34      34       0       0       0       0
     B1        59      59       0       0       0       0
     B2        59      59       0       0       0       0
   -------------------------------------------------------
    Total     249     249      15      15      15       0
   -------------------------------------------------------

  ==> Integral Setup <==

  ==> DiskDFJK: Density-Fitted J/K Matrices <==

    J tasked:                  Yes
    K tasked:                  Yes
    wK tasked:                 Yes
    Omega:               3.000E-01
    OpenMP threads:             24
    Integrals threads:          24
    Memory [MiB]:           102566
    Algorithm:                Core
    Integral Cache:           NONE
    Schwarz Cutoff:          1E-12
    Fitting Condition:       1E-10

   => Auxiliary Basis Set <=

  Basis Set: (AUG-CC-PV(Q+D)Z AUX)
    Blend: AUG-CC-PVQZ-JKFIT
    Number of shells: 114
    Number of basis function: 468
    Number of Cartesian functions: 643
    Spherical Harmonics?: true
    Max angular momentum: 5

  Cached 100.0% of DFT collocation blocks in 0.420 [GiB].

  Minimum eigenvalue in the overlap matrix is 1.8522391024E-05.
  Using Symmetric Orthogonalization.

  SCF Guess: Superposition of Atomic Densities via on-the-fly atomic UHF.

  ==> Iterations <==

                           Total Energy        Delta E     RMS |[F,P]|

   @DF-RKS iter SAD:  -510.97849887489201   -5.10978e+02   0.00000e+00 
   @DF-RKS iter   1:  -511.42790080878734   -4.49402e-01   3.78621e-03 DIIS
   @DF-RKS iter   2:  -511.35367547134825    7.42253e-02   5.10639e-03 DIIS
   @DF-RKS iter   3:  -511.50854532668120   -1.54870e-01   6.00516e-04 DIIS
   @DF-RKS iter   4:  -511.51098891669295   -2.44359e-03   9.30437e-05 DIIS
   @DF-RKS iter   5:  -511.51110165885638   -1.12742e-04   1.95851e-05 DIIS
   @DF-RKS iter   6:  -511.51110951471651   -7.85586e-06   1.05585e-05 DIIS
   @DF-RKS iter   7:  -511.51111072205384   -1.20734e-06   4.11033e-06 DIIS
   @DF-RKS iter   8:  -511.51111093612263   -2.14069e-07   5.28072e-07 DIIS
   @DF-RKS iter   9:  -511.51111094193618   -5.81355e-09   1.52297e-07 DIIS
   @DF-RKS iter  10:  -511.51111094219675   -2.60570e-10   2.85387e-08 DIIS
   @DF-RKS iter  11:  -511.51111094220454   -7.78755e-12   3.14906e-09 DIIS
  Energy and wave function converged.


  ==> Post-Iterations <==

    Orbital Energies [Eh]
    ---------------------

    Doubly Occupied:                                                      

       1A1   -88.921710     2A1   -19.296853     3A1   -10.438138  
       4A1    -8.080021     5A1    -6.036921     1B2    -6.030838  
       1B1    -6.030838     6A1    -1.273521     7A1    -0.962385  
       8A1    -0.668596     2B1    -0.597190     2B2    -0.597190  
       9A1    -0.582585     3B1    -0.404356     3B2    -0.404356  

    Virtual:                                                              

      10A1     0.040729     4B1     0.045684     4B2     0.045684  
      11A1     0.054218     5B1     0.078162     5B2     0.078162  
      12A1     0.089782     6B2     0.098809     6B1     0.098809  
      13A1     0.145560    14A1     0.166129    15A1     0.176871  
       1A2     0.176872     7B2     0.183131     7B1     0.183131  
      16A1     0.184157    17A1     0.201340     8B2     0.252434  
       8B1     0.252434     2A2     0.269530    18A1     0.269533  
      19A1     0.294238    20A1     0.345697     9B1     0.352671  
       9B2     0.352671    10B2     0.379907    10B1     0.379907  
      21A1     0.427776    22A1     0.437420     3A2     0.449020  
      23A1     0.449020    11B2     0.475678    11B1     0.475678  
      24A1     0.519870     4A2     0.519872    25A1     0.522321  
      12B1     0.523191    12B2     0.523191    13B2     0.533727  
      13B1     0.533727     5A2     0.603021    26A1     0.603021  
      27A1     0.637471    28A1     0.651268    14B1     0.657296  
      14B2     0.657296    15B2     0.729981    15B1     0.729981  
      29A1     0.755562    16B1     0.783338    16B2     0.783338  
      30A1     0.787859    31A1     0.853353     6A2     0.853353  
      17B1     0.885234    17B2     0.885234    32A1     0.906366  
      33A1     0.962735     7A2     1.020688    34A1     1.020695  
      18B1     1.053682    18B2     1.053682    35A1     1.076454  
      19B1     1.165203    19B2     1.165203    36A1     1.183890  
       8A2     1.183891    37A1     1.278362    38A1     1.305809  
      20B1     1.344088    20B2     1.344088    21B1     1.346642  
      21B2     1.346642     9A2     1.388403    39A1     1.388404  
      22B2     1.407774    22B1     1.407774    23B1     1.424930  
      23B2     1.424930    10A2     1.503032    40A1     1.503038  
      41A1     1.515711    11A2     1.519745    42A1     1.519746  
      24B1     1.522729    24B2     1.522729    25B1     1.625743  
      25B2     1.625743    43A1     1.655170    44A1     1.715112  
      26B1     1.731707    26B2     1.731707    45A1     1.734700  
      12A2     1.734710    46A1     1.784354    27B1     1.823495  
      27B2     1.823495    13A2     1.846542    47A1     1.846555  
      48A1     1.853894    49A1     2.042730    50A1     2.062171  
      14A2     2.062176    28B1     2.066167    28B2     2.066167  
      29B1     2.159334    29B2     2.159334    30B1     2.165602  
      30B2     2.165602    15A2     2.182594    51A1     2.182598  
      52A1     2.437638    31B2     2.524672    31B1     2.524672  
      32B2     2.563398    32B1     2.563398    53A1     2.610482  
      16A2     2.763858    54A1     2.763866    33B1     2.790626  
      33B2     2.790626    55A1     2.840676    17A2     2.879607  
      56A1     2.879616    57A1     3.018368    34B1     3.130724  
      34B2     3.130724    18A2     3.132421    58A1     3.132423  
      59A1     3.291979    35B1     3.298030    35B2     3.298030  
      36B2     3.459851    36B1     3.459851    60A1     3.482050  
      61A1     3.572302    19A2     3.572309    20A2     3.637612  
      62A1     3.637627    21A2     3.664048    63A1     3.664051  
      37B2     3.690649    37B1     3.690649    38B2     3.757906  
      38B1     3.757906    64A1     3.788980    39B2     3.840462  
      39B1     3.840462    40B1     3.946552    40B2     3.946552  
      65A1     3.967231    22A2     3.967232    66A1     3.998786  
      67A1     4.195859    23A2     4.195861    68A1     4.204999  
      41B1     4.234435    41B2     4.234435    42B2     4.272439  
      42B1     4.272439    69A1     4.351056    43B1     4.429569  
      43B2     4.429569    24A2     4.500147    70A1     4.500153  
      71A1     4.515640    72A1     4.756724    44B2     4.946235  
      44B1     4.946235    73A1     5.003250    25A2     5.003253  
      45B1     5.335602    45B2     5.335602    74A1     5.681710  
      26A2     5.681723    75A1     5.716423    76A1     5.821649  
      46B2     5.877477    46B1     5.877477    47B2     5.944271  
      47B1     5.944271    48B1     6.181211    48B2     6.181211  
      49B2     6.247263    49B1     6.247263    77A1     6.345332  
      27A2     6.345334    28A2     6.434356    78A1     6.434365  
      79A1     6.444397    50B1     6.548893    50B2     6.548893  
      80A1     7.073770    81A1     7.129318    29A2     7.129324  
      51B2     7.472409    51B1     7.472409    82A1     7.784745  
      52B2     8.582125    52B1     8.582125    83A1     8.837924  
      84A1     8.858210    30A2     8.858248    85A1     9.139914  
      53B1     9.306632    53B2     9.306632    86A1    10.114504  
      87A1    10.232080    31A2    10.232164    54B1    10.546406  
      54B2    10.546406    55B2    10.775320    55B1    10.775320  
      32A2    10.777680    88A1    10.777685    56B1    11.091217  
      56B2    11.091217    89A1    11.124587    57B2    11.432296  
      57B1    11.432296    90A1    11.776391    33A2    12.009027  
      91A1    12.009028    58B2    12.459449    58B1    12.459449  
      34A2    12.475178    92A1    12.475219    93A1    13.603534  
      59B2    13.890246    59B1    13.890246    94A1    14.335554  
      95A1    21.624286    96A1    24.851565    97A1    42.263258  

    Final Occupation by Irrep:
             A1    A2    B1    B2 
    DOCC [     9,    0,    3,    3 ]

  @DF-RKS Final Energy:  -511.51111094220454

   => Energetics <=

    Nuclear Repulsion Energy =             80.0394952360563536
    One-Electron Energy =                -862.5799716032928472
    Two-Electron Energy =                 300.1918601701011653
    DFT Exchange-Correlation Energy =     -29.2869877932881799
    Empirical Dispersion Energy =           0.0000000000000000
    VV10 Nonlocal Energy =                  0.1244930482188973
    Total Energy =                       -511.5111109422045956

Computation Completed


Properties will be evaluated at   0.000000,   0.000000,   0.000000 [a0]

Properties computed using the SCF density matrix

  Nuclear Dipole Moment: [e a0]
     X:     0.0000      Y:     0.0000      Z:     0.0191

  Electronic Dipole Moment: [e a0]
     X:     0.0000      Y:     0.0000      Z:     0.3031

  Dipole Moment: [e a0]
     X:     0.0000      Y:     0.0000      Z:     0.3222     Total:     0.3222

  Dipole Moment: [D]
     X:     0.0000      Y:     0.0000      Z:     0.8188     Total:     0.8188


*** tstop() called on bp1-compute00191.data.bp.acrc.priv at Tue Apr 20 11:13:36 2021
Module time:
	user time   =     134.45 seconds =       2.24 minutes
	system time =       2.71 seconds =       0.05 minutes
	total time  =          6 seconds =       0.10 minutes
Total time:
	user time   =     688.10 seconds =      11.47 minutes
	system time =      18.27 seconds =       0.30 minutes
	total time  =         31 seconds =       0.52 minutes

         ----------------------------------------------------------
                                   FINDIF
                     R. A. King and Jonathon Misiewicz
         ---------------------------------------------------------

  Computing gradient from energies.
    Using 3-point formula.
    Energy without displacement: -511.5111570927
    Check energies below for precision!
    Forces are for mass-weighted, symmetry-adapted cartesians (in au).

     Coord      Energy(-1)        Energy(+1)            Force
        0   -511.5111404979   -511.5111714442     -0.0030946250
        1   -511.5112003865   -511.5111109422      0.0089444255


-------------------------------------------------------------
  ## New Matrix (Symmetry 0) ##
  Irrep: 1 Size: 3 x 3

                 1                   2                   3

    1     0.00000000000000     0.00000000000000    -0.01059818133610
    2     0.00000000000000     0.00000000000000     0.02931268605594
    3     0.00000000000000     0.00000000000000    -0.01871450471984




			-----------------------------------------
			 OPTKING 2.0: for geometry optimizations 
			  - R.A. King,  Bethel University        
			-----------------------------------------

	Internal coordinates to be generated automatically.
	Detected frag 1 with atoms:  1 2 3
	---Fragment 1 Bond Connectivity---
	 1 : 2
	 2 : 1 3
	 3 : 2

	---Fragment 1 Geometry and Gradient---
	 O           0.0000000000        0.0000000000       -3.1561582986
	 C           0.0000000000        0.0000000000       -0.9677666477
	 S           0.0000000000        0.0000000000        1.9421851636
	             0.0000000000        0.0000000000       -0.0105981813
	             0.0000000000        0.0000000000        0.0293126861
	             0.0000000000        0.0000000000       -0.0187145047

	Previous optimization step data not found.  Starting new optimization.

	---Fragment 1 Intrafragment Coordinates---
	 - Coordinate -           - BOHR/RAD -       - ANG/DEG -
	 R(1,2)           =         2.188392	       1.158047
	 R(2,3)           =         2.909952	       1.539880
	 L(1,2,3)         =         3.141593	     180.000000
	 l(1,2,3)         =         3.141593	     180.000000

	Current energy   :      -511.5111570927

	Generating empirical Hessian (Schlegel '84) for each fragment.
	Taking RFO optimization step.
	Going to follow RFO solution 1.
	Using RFO vector 1.
	Norm of target step-size    0.02997
	Projected energy change by RFO approximation:        -0.0006259369

	Back-transformation to cartesian coordinates...
	Successfully converged to displaced geometry.

	--- Internal Coordinate Step in ANG or DEG, aJ/ANG or AJ/DEG ---
	 ---------------------------------------------------------------------------
	   Coordinate                Previous        Force       Change         New 
	   ----------                --------       ------       ------       ------
	    1 R(1,2)          =      1.158047    -0.087315    -0.004343     1.153704
	    2 R(2,3)          =      1.539880     0.154184     0.015256     1.555136
	    3 L(1,2,3)        =    180.000000     0.000000     0.000000   180.000000
	    4 l(1,2,3)        =    180.000000     0.000000     0.000000   180.000000
	 ---------------------------------------------------------------------------
	Successfully symmetrized geometry.

  ==> Convergence Check <==

  Measures of convergence in internal coordinates in au.
  Criteria marked as inactive (o), active & met (*), and active & unmet ( ).
  --------------------------------------------------------------------------------------------- ~
   Step     Total Energy     Delta E     MAX Force     RMS Force      MAX Disp      RMS Disp    ~
  --------------------------------------------------------------------------------------------- ~
    Convergence Criteria    1.00e-06 *    3.00e-04 *             o    1.20e-03 *             o  ~
  --------------------------------------------------------------------------------------------- ~
      1    -511.51115709   -5.12e+02      1.87e-02      1.08e-02 o    2.88e-02      1.50e-02 o  ~
  ---------------------------------------------------------------------------------------------

	Writing optimization data to binary file.
	Structure for next step:
	Cartesian Geometry (in Angstrom)
	    O     0.0000000000  -0.0000000000  -1.6723571498
	    C     0.0000000000   0.0000000000  -0.5186528836
	    S     0.0000000000  -0.0000000000   1.0364830653
			--------------------------
			 OPTKING Finished Execution 
			--------------------------

    Structure for next step:
    Molecular point group: c2v
    Full point group: C_inf_v

    Geometry (in Angstrom), charge = 0, multiplicity = 1:

    O           -0.000000000000     0.000000000000    -1.675116439732
    C            0.000000000000     0.000000000000    -0.521412169030
    S           -0.000000000000     0.000000000000     1.033723785970

gradient() will perform gradient computation by finite difference of analytic energies.

         ----------------------------------------------------------
                                   FINDIF
                     R. A. King and Jonathon Misiewicz
         ---------------------------------------------------------

  Using finite-differences of energies to determine gradients.
    Generating geometries for use with 3-point formula.
    Displacement size will be 5.00e-03.
    Number of atoms is 3.
    Number of symmetric SALCs is 2.
    Translations projected? 1. Rotations projected? 1.
    Number of geometries (including reference) is 5.

  //>>>>>>>>>>>>>>>>>>>>>>>>>>>>>>>>>>>//
  //    Loading displacement 1 of 5    //
  //<<<<<<<<<<<<<<<<<<<<<<<<<<<<<<<<<<<//

*** tstart() called on bp1-compute00191.data.bp.acrc.priv
*** at Tue Apr 20 11:13:36 2021

   => Loading Basis Set <=

    Name: AUG-CC-PV(Q+D)Z
    Role: ORBITAL
    Keyword: BASIS
    atoms 1 entry O          line   439 file /work/zw18965/.conda/envs/p4env/share/psi4/basis/aug-cc-pv_qpd_z.gbs 
    atoms 2 entry C          line   319 file /work/zw18965/.conda/envs/p4env/share/psi4/basis/aug-cc-pv_qpd_z.gbs 
    atoms 3 entry S          line  1148 file /work/zw18965/.conda/envs/p4env/share/psi4/basis/aug-cc-pv_qpd_z.gbs 


         ---------------------------------------------------------
                                   SCF
               by Justin Turney, Rob Parrish, Andy Simmonett
                          and Daniel G. A. Smith
                              RKS Reference
[...]
    GGA                 =           TRUE
    Meta                =          FALSE

    Exchange Hybrid     =           TRUE
    MP2 Hybrid          =          FALSE

   => Exchange-Correlation Functionals <=

    1.0000   wB97X-V range-separated functional

   => Exact (HF) Exchange <=

    0.8330            HF,LR [omega = 0.3000]
    0.1670               HF 

   => VV10 Non-Local Parameters <=

    VV10 B              =     6.0000E+00
    VV10 C              =     1.0000E-02

   => Molecular Quadrature <=

    Radial Scheme          =       TREUTLER
    Pruning Scheme         =           FLAT
    Nuclear Scheme         =       TREUTLER

    BS radius alpha        =              1
    Pruning alpha          =              1
    Radial Points          =             75
    Spherical Points       =            302
    Total Points           =          67950
    Total Blocks           =            599
    Max Points             =            256
    Max Functions          =            249

   => Loading Basis Set <=

    Name: (AUG-CC-PV(Q+D)Z AUX)
    Role: JKFIT
    Keyword: DF_BASIS_SCF
    atoms 1 entry O          line   318 file /work/zw18965/.conda/envs/p4env/share/psi4/basis/aug-cc-pvqz-jkfit.gbs 
    atoms 2 entry C          line   178 file /work/zw18965/.conda/envs/p4env/share/psi4/basis/aug-cc-pvqz-jkfit.gbs 
    atoms 3 entry S          line   810 file /work/zw18965/.conda/envs/p4env/share/psi4/basis/aug-cc-pvqz-jkfit.gbs 

  ==> Pre-Iterations <==

   -------------------------------------------------------
    Irrep   Nso     Nmo     Nalpha   Nbeta   Ndocc  Nsocc
   -------------------------------------------------------
     A'       156     156       0       0       0       0
     A"        93      93       0       0       0       0
   -------------------------------------------------------
    Total     249     249      15      15      15       0
   -------------------------------------------------------

  ==> Integral Setup <==

  ==> DiskDFJK: Density-Fitted J/K Matrices <==

    J tasked:                  Yes
    K tasked:                  Yes
    wK tasked:                 Yes
    Omega:               3.000E-01
    OpenMP threads:             24
    Integrals threads:          24
    Memory [MiB]:           102566
    Algorithm:                Core
    Integral Cache:           NONE
    Schwarz Cutoff:          1E-12
    Fitting Condition:       1E-10

   => Auxiliary Basis Set <=

  Basis Set: (AUG-CC-PV(Q+D)Z AUX)
    Blend: AUG-CC-PVQZ-JKFIT
    Number of shells: 114
    Number of basis function: 468
    Number of Cartesian functions: 643
    Spherical Harmonics?: true
    Max angular momentum: 5

  Cached 100.0% of DFT collocation blocks in 0.420 [GiB].

  Minimum eigenvalue in the overlap matrix is 1.9529059107E-05.
  Using Symmetric Orthogonalization.

  SCF Guess: Superposition of Atomic Densities via on-the-fly atomic UHF.

  ==> Iterations <==

                           Total Energy        Delta E     RMS |[F,P]|

   @DF-RKS iter SAD:  -510.96047228110581   -5.10960e+02   0.00000e+00 
   @DF-RKS iter   1:  -511.43093676346251   -4.70464e-01   2.73227e-03 DIIS
   @DF-RKS iter   2:  -511.36359358723615    6.73432e-02   3.63230e-03 DIIS
   @DF-RKS iter   3:  -511.50902519080375   -1.45432e-01   4.32776e-04 DIIS
   @DF-RKS iter   4:  -511.51143535812969   -2.41017e-03   7.04758e-05 DIIS
   @DF-RKS iter   5:  -511.51155064360842   -1.15285e-04   2.16952e-05 DIIS
   @DF-RKS iter   6:  -511.51156232783597   -1.16842e-05   1.34514e-05 DIIS
   @DF-RKS iter   7:  -511.51156592835065   -3.60051e-06   1.92959e-06 DIIS
   @DF-RKS iter   8:  -511.51156611401183   -1.85661e-07   3.75572e-07 DIIS
   @DF-RKS iter   9:  -511.51156611988972   -5.87789e-09   1.13486e-07 DIIS
   @DF-RKS iter  10:  -511.51156612016410   -2.74383e-10   2.02140e-08 DIIS
   @DF-RKS iter  11:  -511.51156612017218   -8.07177e-12   2.30272e-09 DIIS
   @DF-RKS iter  12:  -511.51156612017229   -1.13687e-13   5.38879e-10 DIIS
   @DF-RKS iter  13:  -511.51156612017218    1.13687e-13   5.80952e-11 DIIS
  Energy and wave function converged.


  ==> Post-Iterations <==

    Orbital Energies [Eh]
    ---------------------

    Doubly Occupied:                                                      

       1Ap   -88.921840     2Ap   -19.301132     3Ap   -10.441002  
       4Ap    -8.079154     5Ap    -6.036340     1App   -6.029923  
       6Ap    -6.029923     7Ap    -1.281254     8Ap    -0.955486  
       9Ap    -0.672355     2App   -0.600959    10Ap    -0.600959  
      11Ap    -0.582111     3App   -0.402400    12Ap    -0.402400  

    Virtual:                                                              

      13Ap     0.040762     4App    0.045851    14Ap     0.045851  
      15Ap     0.054000    16Ap     0.077850     5App    0.077850  
      17Ap     0.089711    18Ap     0.098847     6App    0.098847  
      19Ap     0.142050    20Ap     0.165604    21Ap     0.177373  
       7App    0.177374    22Ap     0.182354     8App    0.182355  
      23Ap     0.183663    24Ap     0.201769    25Ap     0.252576  
       9App    0.252576    10App    0.269184    26Ap     0.269186  
      27Ap     0.291723    28Ap     0.345234    11App    0.353547  
      29Ap     0.353548    30Ap     0.379273    12App    0.379274  
      31Ap     0.427999    32Ap     0.438745    13App    0.450942  
      33Ap     0.450942    34Ap     0.473435    14App    0.473435  
      35Ap     0.518612    15App    0.518614    36Ap     0.522324  
      37Ap     0.524170    16App    0.524170    17App    0.532155  
      38Ap     0.532155    18App    0.602604    39Ap     0.602604  
      40Ap     0.637507    41Ap     0.648709    19App    0.656630  
      42Ap     0.656630    43Ap     0.731020    20App    0.731020  
      44Ap     0.757844    21App    0.781512    45Ap     0.781512  
      46Ap     0.787126    47Ap     0.850547    22App    0.850549  
      48Ap     0.881660    23App    0.881660    49Ap     0.904737  
      50Ap     0.959900    24App    1.018549    51Ap     1.018556  
      52Ap     1.054604    25App    1.054604    53Ap     1.071441  
      54Ap     1.162426    26App    1.162427    55Ap     1.186870  
      27App    1.186870    56Ap     1.277540    57Ap     1.300582  
      28App    1.341657    58Ap     1.341657    59Ap     1.345742  
      29App    1.345742    30App    1.390204    60Ap     1.390205  
      31App    1.409325    61Ap     1.409325    32App    1.427801  
      62Ap     1.427802    33App    1.500845    63Ap     1.500850  
      64Ap     1.514159    65Ap     1.518677    34App    1.518677  
      35App    1.522635    66Ap     1.522636    36App    1.623135  
      67Ap     1.623135    68Ap     1.651000    69Ap     1.709654  
      70Ap     1.729253    37App    1.729253    71Ap     1.732274  
      38App    1.732285    72Ap     1.782100    73Ap     1.816515  
      39App    1.816515    40App    1.845034    74Ap     1.845049  
      75Ap     1.853676    76Ap     2.053151    77Ap     2.058961  
      41App    2.058967    42App    2.061930    78Ap     2.061932  
      79Ap     2.154694    43App    2.154694    80Ap     2.162285  
      44App    2.162285    45App    2.176881    81Ap     2.176885  
      82Ap     2.435529    46App    2.517567    83Ap     2.517567  
      84Ap     2.560187    47App    2.560192    85Ap     2.595044  
      48App    2.759925    86Ap     2.759935    87Ap     2.793029  
      49App    2.793032    88Ap     2.832346    50App    2.878385  
      89Ap     2.878395    90Ap     3.010534    91Ap     3.124439  
      51App    3.124440    52App    3.131005    92Ap     3.131009  
      93Ap     3.282759    53App    3.287215    94Ap     3.287216  
      54App    3.463070    95Ap     3.463070    96Ap     3.480209  
      97Ap     3.570440    55App    3.570446    56App    3.640610  
      98Ap     3.640626    57App    3.657734    99Ap     3.657737  
      58App    3.688235   100Ap     3.688235   101Ap     3.747598  
      59App    3.747600   102Ap     3.783461    60App    3.835409  
     103Ap     3.835409   104Ap     3.942503    61App    3.942503  
     105Ap     3.957938    62App    3.957940   106Ap     3.981745  
     107Ap     4.190135    63App    4.190137   108Ap     4.193979  
      64App    4.228266   109Ap     4.228270   110Ap     4.270469  
      65App    4.270469   111Ap     4.356084   112Ap     4.427805  
      66App    4.427807    67App    4.497089   113Ap     4.497095  
     114Ap     4.515267   115Ap     4.762622    68App    4.924749  
     116Ap     4.924749    69App    4.998910   117Ap     4.998910  
      70App    5.334816   118Ap     5.334817   119Ap     5.679254  
      71App    5.679273   120Ap     5.687690   121Ap     5.829658  
      72App    5.851941   122Ap     5.851971    73App    5.942013  
     123Ap     5.942013   124Ap     6.177768    74App    6.177768  
      75App    6.247800   125Ap     6.247800    76App    6.346535  
     126Ap     6.346537    77App    6.412987   127Ap     6.412999  
     128Ap     6.425675    78App    6.542229   129Ap     6.542230  
     130Ap     7.076718   131Ap     7.135277    79App    7.135283  
     132Ap     7.457541    80App    7.457544   133Ap     7.734275  
     134Ap     8.586015    81App    8.586017   135Ap     8.849968  
     136Ap     8.857546    82App    8.857579   137Ap     9.120541  
      83App    9.277561   138Ap     9.277562   139Ap    10.094551  
     140Ap    10.227866    84App   10.227945   141Ap    10.545471  
      85App   10.545471    86App   10.765332   142Ap    10.765334  
      87App   10.777761   143Ap    10.777765    88App   11.090374  
     144Ap    11.090375   145Ap    11.124937   146Ap    11.428064  
      89App   11.428064   147Ap    11.777826    90App   12.010111  
     148Ap    12.010113    91App   12.456711   149Ap    12.456715  
      92App   12.474779   150Ap    12.474817   151Ap    13.619287  
      93App   13.902583   152Ap    13.902584   153Ap    14.339363  
     154Ap    21.402588   155Ap    24.907131   156Ap    42.281280  

    Final Occupation by Irrep:
             Ap   App 
    DOCC [    12,    3 ]

  @DF-RKS Final Energy:  -511.51156612017218

   => Energetics <=

    Nuclear Repulsion Energy =             79.6214828111142054
    One-Electron Energy =                -861.7246738579084422
    Two-Electron Energy =                 299.7487178505475640
    DFT Exchange-Correlation Energy =     -29.2816016452344563
    Empirical Dispersion Energy =           0.0000000000000000
    VV10 Nonlocal Energy =                  0.1245087213088945
    Total Energy =                       -511.5115661201722332

Computation Completed


Properties will be evaluated at   0.000000,   0.000000,   0.000000 [a0]

Properties computed using the SCF density matrix

  Nuclear Dipole Moment: [e a0]
     X:     0.0000      Y:    -0.0000      Z:     0.0193

  Electronic Dipole Moment: [e a0]
     X:     0.0000      Y:     0.0003      Z:     0.2374

  Dipole Moment: [e a0]
     X:     0.0000      Y:     0.0003      Z:     0.2567     Total:     0.2567

  Dipole Moment: [D]
     X:     0.0000      Y:     0.0007      Z:     0.6524     Total:     0.6524


*** tstop() called on bp1-compute00191.data.bp.acrc.priv at Tue Apr 20 11:15:49 2021
Module time:
	user time   =     143.13 seconds =       2.39 minutes
	system time =       2.87 seconds =       0.05 minutes
	total time  =          6 seconds =       0.10 minutes
Total time:
	user time   =    3649.54 seconds =      60.83 minutes
	system time =      83.80 seconds =       1.40 minutes
	total time  =        164 seconds =       2.73 minutes

         ----------------------------------------------------------
                                   FINDIF
                     R. A. King and Jonathon Misiewicz
         ---------------------------------------------------------

  Computing second-derivative from energies using projected, 
  symmetry-adapted, cartesian coordinates.

  9 energies passed in, including the reference geometry.
    Using 3-point formula.
    Energy without displacement: -511.5115662589
    Check energies below for precision!
    0: -1        :      -511.5115648915
    0: 1         :      -511.5115652879
    1: -1        :      -511.5115653366
    1: 1         :      -511.5115644276
    0: 1, 1: 1   :      -511.5115652276
    0: -1, 1: -1 :      -511.5115657419
    2: -1        :      -511.5115661262
    3: -1        :      -511.5115661202

-------------------------------------------------------------


  ==> Harmonic Vibrational Analysis <==

  non-mass-weighted Hessian:       Symmetric? True   Hermitian? True   Lin Dep Dim?  5 (0)
  projection of translations (True) and rotations (True) removed 5 degrees of freedom (5)
  total projector:                 Symmetric? True   Hermitian? True   Lin Dep Dim?  5 (5)
  mass-weighted Hessian:           Symmetric? True   Hermitian? True   Lin Dep Dim?  5 (0)
  pre-proj  low-frequency mode:    0.0000i [cm^-1]
  pre-proj  low-frequency mode:    0.0000i [cm^-1]
  pre-proj  low-frequency mode:    0.0000i [cm^-1]
  pre-proj  low-frequency mode:    0.0000  [cm^-1]
  pre-proj  low-frequency mode:    0.0000  [cm^-1]
  pre-proj  all modes:['0.0000i' '0.0000i' '0.0000i' '0.0000' '0.0000' '529.5910' '541.4920'
 '897.4315' '2139.3115']
  projected mass-weighted Hessian: Symmetric? True   Hermitian? True   Lin Dep Dim?  5 (5)
  post-proj low-frequency mode:    0.0000i [cm^-1] (TR)
  post-proj low-frequency mode:    0.0000i [cm^-1] (TR)
  post-proj low-frequency mode:    0.0000  [cm^-1] (TR)
  post-proj low-frequency mode:    0.0000  [cm^-1] (TR)
  post-proj low-frequency mode:    0.0000  [cm^-1] (TR)
  post-proj  all modes:['0.0000i' '0.0000i' '0.0000' '0.0000' '0.0000' '529.5910' '541.4920'
 '897.4315' '2139.3115']

  Vibration                       6                   7                   8           
  Freq [cm^-1]                 529.5910            541.4920            897.4315       
  Irrep                           B1                  B2                  A1          
  Reduced mass [u]             13.0330             13.0330             19.6047        
  Force const [mDyne/A]         2.1537              2.2515              9.3028        
  Turning point v=0 [a0]        0.1321              0.1306              0.0827        
  RMS dev v=0 [a0 u^1/2]        0.3372              0.3334              0.2590        
  Char temp [K]                761.9636            779.0864           1291.2041       
  ----------------------------------------------------------------------------------
      1   O               -0.39 -0.00  0.00    0.00 -0.39 -0.00   -0.00  0.00 -0.71   
      2   C                0.91  0.00 -0.00   -0.00  0.91 -0.00   -0.00  0.00 -0.47   
      3   S               -0.14 -0.00 -0.00    0.00 -0.14 -0.00   -0.00 -0.00  0.53   

  Vibration                       9           
  Freq [cm^-1]                2139.3115       
  Irrep                           A1          
  Reduced mass [u]             13.1415        
  Force const [mDyne/A]        35.4359        
  Turning point v=0 [a0]        0.0654        
  RMS dev v=0 [a0 u^1/2]        0.1677        
  Char temp [K]               3077.9929       
  ----------------------------------------------------------------------------------
      1   O               -0.00  0.00 -0.52   
      2   C                0.00  0.00  0.85   
      3   S                0.00 -0.00 -0.06   

  ==> Thermochemistry Components <==

  Entropy, S
    Electronic S            0.000 [cal/(mol K)]        0.000 [J/(mol K)]       0.00000000 [mEh/K] (multiplicity = 1)
    Translational S        38.194 [cal/(mol K)]      159.802 [J/(mol K)]       0.06086550 [mEh/K] (mol. weight = 59.9670 [u], P = 101325.00 [Pa])
    Rotational S           15.742 [cal/(mol K)]       65.863 [J/(mol K)]       0.02508585 [mEh/K] (symmetry no. = 1)
    Vibrational S           1.292 [cal/(mol K)]        5.406 [J/(mol K)]       0.00205895 [mEh/K]
  Total S                  55.227 [cal/(mol K)]      231.071 [J/(mol K)]       0.08801030 [mEh/K]
  Correction S              0.000 [cal/(mol K)]        0.000 [J/(mol K)]       0.00000000 [mEh/K]

  Constant volume heat capacity, Cv
    Electronic Cv           0.000 [cal/(mol K)]        0.000 [J/(mol K)]       0.00000000 [mEh/K]
    Translational Cv        2.981 [cal/(mol K)]       12.472 [J/(mol K)]       0.00475022 [mEh/K]
    Rotational Cv           1.987 [cal/(mol K)]        8.314 [J/(mol K)]       0.00316681 [mEh/K]
    Vibrational Cv          2.853 [cal/(mol K)]       11.939 [J/(mol K)]       0.00454715 [mEh/K]
  Total Cv                  7.821 [cal/(mol K)]       32.725 [J/(mol K)]       0.01246418 [mEh/K]
  Correction Cv             0.000 [cal/(mol K)]        0.000 [J/(mol K)]       0.00000000 [mEh/K]

  Constant pressure heat capacity, Cp
    Electronic Cp           0.000 [cal/(mol K)]        0.000 [J/(mol K)]       0.00000000 [mEh/K]
    Translational Cp        4.968 [cal/(mol K)]       20.786 [J/(mol K)]       0.00791703 [mEh/K]
    Rotational Cp           1.987 [cal/(mol K)]        8.314 [J/(mol K)]       0.00316681 [mEh/K]
    Vibrational Cp          2.853 [cal/(mol K)]       11.939 [J/(mol K)]       0.00454715 [mEh/K]
  Total Cp                  9.809 [cal/(mol K)]       41.039 [J/(mol K)]       0.01563099 [mEh/K]
  Correction Cp             0.000 [cal/(mol K)]        0.000 [J/(mol K)]       0.00000000 [mEh/K]

  ==> Thermochemistry Energy Analysis <==

  Raw electronic energy, E0
  Total E0, Electronic energy at well bottom at 0 [K]                 -511.51156626 [Eh]

  Zero-point energy, ZPE_vib = Sum_i nu_i / 2
    Electronic ZPE          0.000 [kcal/mol]        0.000 [kJ/mol]       0.00000000 [Eh]
    Translational ZPE       0.000 [kcal/mol]        0.000 [kJ/mol]       0.00000000 [Eh]
    Rotational ZPE          0.000 [kcal/mol]        0.000 [kJ/mol]       0.00000000 [Eh]
    Vibrational ZPE         5.872 [kcal/mol]       24.570 [kJ/mol]       0.00935832 [Eh]        2053.913 [cm^-1]
  Correction ZPE            5.872 [kcal/mol]       24.570 [kJ/mol]       0.00935832 [Eh]        2053.913 [cm^-1]
  Total ZPE, Electronic energy at 0 [K]                               -511.50220794 [Eh]

  Thermal Energy, E (includes ZPE)
    Electronic E            0.000 [kcal/mol]        0.000 [kJ/mol]       0.00000000 [Eh]
    Translational E         0.889 [kcal/mol]        3.718 [kJ/mol]       0.00141628 [Eh]
    Rotational E            0.592 [kcal/mol]        2.479 [kJ/mol]       0.00094418 [Eh]
    Vibrational E           6.157 [kcal/mol]       25.760 [kJ/mol]       0.00981146 [Eh]
  Correction E              7.638 [kcal/mol]       31.957 [kJ/mol]       0.01217192 [Eh]
  Total E, Electronic energy at  298.15 [K]                           -511.49939434 [Eh]

  Enthalpy, H_trans = E_trans + k_B * T
    Electronic H            0.000 [kcal/mol]        0.000 [kJ/mol]       0.00000000 [Eh]
    Translational H         1.481 [kcal/mol]        6.197 [kJ/mol]       0.00236046 [Eh]
    Rotational H            0.592 [kcal/mol]        2.479 [kJ/mol]       0.00094418 [Eh]
    Vibrational H           6.157 [kcal/mol]       25.760 [kJ/mol]       0.00981146 [Eh]
  Correction H              8.230 [kcal/mol]       34.436 [kJ/mol]       0.01311610 [Eh]
  Total H, Enthalpy at  298.15 [K]                                    -511.49845016 [Eh]

  Gibbs free energy, G = H - T * S
    Electronic G            0.000 [kcal/mol]        0.000 [kJ/mol]       0.00000000 [Eh]
    Translational G        -9.906 [kcal/mol]      -41.448 [kJ/mol]      -0.01578659 [Eh]
    Rotational G           -4.101 [kcal/mol]      -17.158 [kJ/mol]      -0.00653516 [Eh]
    Vibrational G           5.772 [kcal/mol]       24.148 [kJ/mol]       0.00919758 [Eh]
  Correction G             -8.236 [kcal/mol]      -34.457 [kJ/mol]      -0.01312417 [Eh]
  Total G, Free enthalpy at  298.15 [K]                               -511.52469043 [Eh]

    Psi4 stopped on: Tuesday, 20 April 2021 11:15AM
    Psi4 wall time for execution: 0:02:44.75

*** Psi4 exiting successfully. Buy a developer a beer!
