
    -----------------------------------------------------------------------
          Psi4: An Open-Source Ab Initio Electronic Structure Package
                               Psi4 1.3.2 release

                         Git: Rev {HEAD} ecbda83 


    R. M. Parrish, L. A. Burns, D. G. A. Smith, A. C. Simmonett,
    A. E. DePrince III, E. G. Hohenstein, U. Bozkaya, A. Yu. Sokolov,
    R. Di Remigio, R. M. Richard, J. F. Gonthier, A. M. James,
    H. R. McAlexander, A. Kumar, M. Saitow, X. Wang, B. P. Pritchard,
    P. Verma, H. F. Schaefer III, K. Patkowski, R. A. King, E. F. Valeev,
    F. A. Evangelista, J. M. Turney, T. D. Crawford, and C. D. Sherrill,
    J. Chem. Theory Comput. 13(7) pp 3185--3197 (2017).
    (doi: 10.1021/acs.jctc.7b00174)


                         Additional Contributions by
    P. Kraus, H. Kruse, M. H. Lechner, M. C. Schieber, R. A. Shaw,
    A. Alenaizan, R. Galvelis, Z. L. Glick, S. Lehtola, and J. P. Misiewicz

    -----------------------------------------------------------------------


    Psi4 started on: Tuesday, 20 April 2021 11:16AM

    Process ID: 129543
    Host:       bp1-compute00154.data.bp.acrc.priv
    PSIDATADIR: /work/zw18965/.conda/envs/p4env/share/psi4
    Memory:     500.0 MiB
    Threads:    24
    
  ==> Input File <==

--------------------------------------------------------------------------
memory 144 GB

molecule {
0 1
S    -0.001150325421   0.486356984763   0.000000000000
O     1.240019799411  -0.240247141680   0.000000000000
O    -1.238869473990  -0.246109843082   0.000000000000}

set basis aug-cc-pV(Q+d)Z
 
optimize("wB97X-V")
frequencies("wB97X-V")--------------------------------------------------------------------------

  Memory set to 134.110 GiB by Python driver.
gradient() will perform gradient computation by finite difference of analytic energies.

         ----------------------------------------------------------
                                   FINDIF
                     R. A. King and Jonathon Misiewicz
         ---------------------------------------------------------

  Using finite-differences of energies to determine gradients.
    Generating geometries for use with 3-point formula.
    Displacement size will be 5.00e-03.
    Number of atoms is 3.
    Number of symmetric SALCs is 3.
    Translations projected? 1. Rotations projected? 1.
    Number of geometries (including reference) is 7.

  //>>>>>>>>>>>>>>>>>>>>>>>>>>>>>>>>>>>//
  //    Loading displacement 1 of 7    //
  //<<<<<<<<<<<<<<<<<<<<<<<<<<<<<<<<<<<//

*** tstart() called on bp1-compute00154.data.bp.acrc.priv
*** at Tue Apr 20 11:16:11 2021

   => Loading Basis Set <=

    Name: AUG-CC-PV(Q+D)Z
    Role: ORBITAL
    Keyword: BASIS
    atoms 1   entry S          line  1148 file /work/zw18965/.conda/envs/p4env/share/psi4/basis/aug-cc-pv_qpd_z.gbs 
    atoms 2-3 entry O          line   439 file /work/zw18965/.conda/envs/p4env/share/psi4/basis/aug-cc-pv_qpd_z.gbs 


         ---------------------------------------------------------
                                   SCF
               by Justin Turney, Rob Parrish, Andy Simmonett
                          and Daniel G. A. Smith
                              RKS Reference
                       24 Threads, 137329 MiB Core
         ---------------------------------------------------------

  ==> Geometry <==

    Molecular point group: cs
    Full point group: Cs

    Geometry (in Angstrom), charge = 0, multiplicity = 1:

       Center              X                  Y                   Z               Mass       
    ------------   -----------------  -----------------  -----------------  -----------------
         S           -0.000862983594     0.364869010877     0.000000000000    31.972071174400
         O            1.240307141238    -0.361735115566     0.000000000000    15.994914619570
         O           -1.238582132163    -0.367597816968     0.000000000000    15.994914619570

  Running in cs symmetry.

  Rotational constants: A =      1.98080  B =      0.34303  C =      0.29239 [cm^-1]
  Rotational constants: A =  59382.79064  B =  10283.68069  C =   8765.67516 [MHz]
  Nuclear repulsion =  107.855107106715508

  Charge       = 0
  Multiplicity = 1
  Electrons    = 32
  Nalpha       = 16
  Nbeta        = 16

  ==> Algorithm <==

  SCF Algorithm Type is DF.
  DIIS enabled.
  MOM disabled.
  Fractional occupation disabled.
  Guess Type is SAD.
  Energy threshold   = 1.00e-08
  Density threshold  = 1.00e-08
  Integral threshold = 0.00e+00

  ==> Primary Basis <==

  Basis Set: AUG-CC-PV(Q+D)Z
    Blend: AUG-CC-PV(Q+D)Z
    Number of shells: 63
    Number of basis function: 249
    Number of Cartesian functions: 325
    Spherical Harmonics?: true
    Max angular momentum: 4

  ==> DFT Potential <==

   => Composite Functional: WB97X-V <= 

    wB97X-V Hyb-GGA Exchange-Correlation Functional

    N. Mardirossian and M. Head-Gordon, Phys. Chem. Chem. Phys. 16, 9904 (2014)

    Deriv               =              1
    GGA                 =           TRUE
    Meta                =          FALSE

    Exchange Hybrid     =           TRUE
    MP2 Hybrid          =          FALSE

   => Exchange-Correlation Functionals <=

    1.0000   wB97X-V range-separated functional

   => Exact (HF) Exchange <=

    0.8330            HF,LR [omega = 0.3000]
    0.1670               HF 

   => VV10 Non-Local Parameters <=

    VV10 B              =     6.0000E+00
    VV10 C              =     1.0000E-02

   => Molecular Quadrature <=

    Radial Scheme          =       TREUTLER
    Pruning Scheme         =           FLAT
    Nuclear Scheme         =       TREUTLER

    BS radius alpha        =              1
    Pruning alpha          =              1
    Radial Points          =             75
    Spherical Points       =            302
    Total Points           =          67950
    Total Blocks           =            579
    Max Points             =            256
    Max Functions          =            249

   => Loading Basis Set <=

    Name: (AUG-CC-PV(Q+D)Z AUX)
    Role: JKFIT
    Keyword: DF_BASIS_SCF
    atoms 1   entry S          line   810 file /work/zw18965/.conda/envs/p4env/share/psi4/basis/aug-cc-pvqz-jkfit.gbs 
    atoms 2-3 entry O          line   318 file /work/zw18965/.conda/envs/p4env/share/psi4/basis/aug-cc-pvqz-jkfit.gbs 

  ==> Pre-Iterations <==

   -------------------------------------------------------
    Irrep   Nso     Nmo     Nalpha   Nbeta   Ndocc  Nsocc
   -------------------------------------------------------
     A'       156     156       0       0       0       0
     A"        93      93       0       0       0       0
   -------------------------------------------------------
    Total     249     249      16      16      16       0
   -------------------------------------------------------

  ==> Integral Setup <==

  ==> DiskDFJK: Density-Fitted J/K Matrices <==

    J tasked:                  Yes
    K tasked:                  Yes
    wK tasked:                 Yes
    Omega:               3.000E-01
    OpenMP threads:             24
    Integrals threads:          24
    Memory [MiB]:           102578
    Algorithm:                Core
    Integral Cache:           NONE
    Schwarz Cutoff:          1E-12
    Fitting Condition:       1E-10

   => Auxiliary Basis Set <=

  Basis Set: (AUG-CC-PV(Q+D)Z AUX)
    Blend: AUG-CC-PVQZ-JKFIT
    Number of shells: 114
    Number of basis function: 468
    Number of Cartesian functions: 643
    Spherical Harmonics?: true
    Max angular momentum: 5

  Cached 100.0% of DFT collocation blocks in 0.409 [GiB].

  Minimum eigenvalue in the overlap matrix is 8.9284767456E-05.
  Using Symmetric Orthogonalization.

  SCF Guess: Superposition of Atomic Densities via on-the-fly atomic UHF.

  ==> Iterations <==

                           Total Energy        Delta E     RMS |[F,P]|

   @DF-RKS iter SAD:  -548.37766021257983   -5.48378e+02   0.00000e+00 
   @DF-RKS iter   1:  -548.42128483057058   -4.36246e-02   4.01507e-03 DIIS
   @DF-RKS iter   2:  -548.30538237368398    1.15902e-01   5.26244e-03 DIIS
   @DF-RKS iter   3:  -548.60980128311019   -3.04419e-01   2.52497e-04 DIIS
   @DF-RKS iter   4:  -548.61038567383787   -5.84391e-04   4.74791e-05 DIIS
   @DF-RKS iter   5:  -548.61044699197271   -6.13181e-05   8.65377e-06 DIIS
   @DF-RKS iter   6:  -548.61045013045862   -3.13849e-06   2.44231e-06 DIIS
   @DF-RKS iter   7:  -548.61045042484625   -2.94388e-07   6.13895e-07 DIIS
   @DF-RKS iter   8:  -548.61045044903915   -2.41929e-08   2.26777e-07 DIIS
   @DF-RKS iter   9:  -548.61045045020751   -1.16836e-09   6.65185e-08 DIIS
   @DF-RKS iter  10:  -548.61045045026708   -5.95719e-11   5.31172e-08 DIIS
   @DF-RKS iter  11:  -548.61045045030153   -3.44471e-11   9.69470e-09 DIIS
  Energy and wave function converged.


  ==> Post-Iterations <==

    Orbital Energies [Eh]
    ---------------------

    Doubly Occupied:                                                      

       1Ap   -89.078151     2Ap   -19.275053     3Ap   -19.275039  
       4Ap    -8.213218     1App   -6.171565     5Ap    -6.167734  
       6Ap    -6.164210     7Ap    -1.282839     8Ap    -1.187411  
       9Ap    -0.763010    10Ap    -0.615540     2App   -0.615248  
      11Ap    -0.611743     3App   -0.485593    12Ap    -0.475427  
      13Ap    -0.445498  

    Virtual:                                                              

       4App   -0.044445    14Ap     0.052453    15Ap     0.060638  
      16Ap     0.063214     5App    0.067494    17Ap     0.123402  
      18Ap     0.133062    19Ap     0.142519     6App    0.150059  
      20Ap     0.158146     7App    0.168395    21Ap     0.170897  
      22Ap     0.201519     8App    0.214523    23Ap     0.234331  
      24Ap     0.265542     9App    0.271309    25Ap     0.283798  
      26Ap     0.300046    27Ap     0.305113    10App    0.327404  
      28Ap     0.364148    11App    0.430617    29Ap     0.442731  
      30Ap     0.443493    12App    0.450470    31Ap     0.460893  
      13App    0.484184    32Ap     0.493692    33Ap     0.543334  
      34Ap     0.563760    35Ap     0.574352    14App    0.584171  
      15App    0.585854    16App    0.596871    17App    0.622843  
      36Ap     0.626253    37Ap     0.636346    38Ap     0.649059  
      18App    0.654550    39Ap     0.681545    40Ap     0.708397  
      19App    0.739081    41Ap     0.762209    42Ap     0.768510  
      43Ap     0.783769    20App    0.858092    21App    0.861651  
      44Ap     0.883381    45Ap     0.973425    46Ap     1.010733  
      47Ap     1.044980    48Ap     1.105593    49Ap     1.120001  
      50Ap     1.137397    22App    1.137651    23App    1.218694  
      51Ap     1.233057    24App    1.256510    52Ap     1.279008  
      25App    1.289792    26App    1.313538    53Ap     1.331588  
      54Ap     1.341229    27App    1.345420    55Ap     1.387463  
      56Ap     1.393271    28App    1.400938    29App    1.424026  
      57Ap     1.435433    58Ap     1.446318    30App    1.481706  
      31App    1.517471    59Ap     1.524683    60Ap     1.541656  
      61Ap     1.554560    32App    1.581714    33App    1.600744  
      62Ap     1.610102    63Ap     1.629324    34App    1.686758  
      64Ap     1.693137    65Ap     1.701095    35App    1.709086  
      66Ap     1.723607    67Ap     1.840418    36App    1.927345  
      68Ap     1.935180    69Ap     1.976632    37App    1.979554  
      70Ap     2.063721    38App    2.118293    71Ap     2.125585  
      72Ap     2.134918    39App    2.145984    40App    2.153022  
      73Ap     2.159271    74Ap     2.162974    75Ap     2.227175  
      41App    2.247448    76Ap     2.445278    77Ap     2.615714  
      78Ap     2.636904    42App    2.735933    43App    2.750697  
      79Ap     2.836367    80Ap     3.035497    81Ap     3.051923  
      82Ap     3.197904    44App    3.220040    45App    3.225371  
      83Ap     3.239795    46App    3.247243    84Ap     3.305229  
      47App    3.306339    48App    3.314482    85Ap     3.358201  
      86Ap     3.362784    87Ap     3.391746    49App    3.459150  
      50App    3.459924    88Ap     3.472987    89Ap     3.524118  
      90Ap     3.547888    51App    3.558321    52App    3.579417  
      91Ap     3.639396    92Ap     3.639988    53App    3.677635  
      93Ap     3.740863    54App    3.777437    94Ap     3.850600  
      95Ap     3.879343    55App    3.890232    96Ap     3.892064  
      97Ap     3.919252    56App    3.935339    57App    3.949992  
      98Ap     3.989600    99Ap     3.994428    58App    4.007190  
     100Ap     4.032739   101Ap     4.098514   102Ap     4.103415  
      59App    4.119267    60App    4.144787    61App    4.264685  
     103Ap     4.306739    62App    4.327571   104Ap     4.350204  
     105Ap     4.365636    63App    4.372280   106Ap     4.415579  
     107Ap     4.525514   108Ap     4.542171   109Ap     4.591502  
      64App    4.615025   110Ap     4.645213    65App    4.774052  
     111Ap     4.776694   112Ap     4.889851    66App    4.910858  
      67App    4.947020    68App    5.060990   113Ap     5.096603  
      69App    5.191908   114Ap     5.226191   115Ap     5.317273  
     116Ap     5.399154    70App    5.561017   117Ap     5.685432  
     118Ap     5.710726   119Ap     6.076794   120Ap     6.142751  
      71App    6.487112   121Ap     7.358411   122Ap     8.174640  
      72App    8.817593   123Ap     8.834542    73App    9.003062  
     124Ap     9.177130   125Ap     9.887565    74App   10.213610  
     126Ap    10.225202    75App   10.231314   127Ap    10.245597  
     128Ap    10.315622    76App   10.380991    77App   10.388722  
     129Ap    10.392219    78App   10.491371    79App   10.501914  
     130Ap    10.519793    80App   10.528494    81App   10.538565  
     131Ap    10.539482    82App   10.548854   132Ap    10.549935  
     133Ap    10.618932    83App   10.632315   134Ap    10.651595  
     135Ap    10.692484   136Ap    10.706899   137Ap    11.040222  
     138Ap    11.281633   139Ap    11.322371    84App   11.421191  
     140Ap    11.426226   141Ap    11.427049    85App   11.434766  
      86App   11.584392   142Ap    11.608627    87App   11.655972  
     143Ap    11.706544    88App   12.069116   144Ap    12.106312  
      89App   12.116211   145Ap    12.203770   146Ap    12.333238  
     147Ap    12.394889    90App   12.416523    91App   12.494847  
     148Ap    12.591863    92App   12.753248    93App   12.756387  
     149Ap    12.829357   150Ap    12.860699   151Ap    12.893113  
     152Ap    13.446686   153Ap    13.723365   154Ap    23.623386  
     155Ap    41.759428   156Ap    42.060368  

    Final Occupation by Irrep:
             Ap   App 
    DOCC [    13,    3 ]

  @DF-RKS Final Energy:  -548.61045045030153

   => Energetics <=

    Nuclear Repulsion Energy =            107.8551071067155078
    One-Electron Energy =                -969.7805328224061441
    Two-Electron Energy =                 344.8670663645792160
    DFT Exchange-Correlation Energy =     -31.6846786921159449
    Empirical Dispersion Energy =           0.0000000000000000
    VV10 Nonlocal Energy =                  0.1325875929258332
    Total Energy =                       -548.6104504503016415

Computation Completed


Properties will be evaluated at   0.000000,   0.000000,   0.000000 [a0]

Properties computed using the SCF density matrix

  Nuclear Dipole Moment: [e a0]
     X:    -0.0000      Y:     0.0061      Z:     0.0000

  Electronic Dipole Moment: [e a0]
     X:    -0.0016      Y:     0.6740      Z:     0.0000

  Dipole Moment: [e a0]
     X:    -0.0016      Y:     0.6801      Z:     0.0000     Total:     0.6801

  Dipole Moment: [D]
     X:    -0.0041      Y:     1.7286      Z:     0.0000     Total:     1.7287


*** tstop() called on bp1-compute00154.data.bp.acrc.priv at Tue Apr 20 11:16:18 2021
Module time:
	user time   =     130.35 seconds =       2.17 minutes
	system time =       6.58 seconds =       0.11 minutes
	total time  =          7 seconds =       0.12 minutes
Total time:
	user time   =     130.35 seconds =       2.17 minutes
	system time =       6.58 seconds =       0.11 minutes
	total time  =          7 seconds =       0.12 minutes

  //>>>>>>>>>>>>>>>>>>>>>>>>>>>>>>>>>>>//
  //    Loading displacement 2 of 7    //
  //<<<<<<<<<<<<<<<<<<<<<<<<<<<<<<<<<<<//

*** tstart() called on bp1-compute00154.data.bp.acrc.priv
*** at Tue Apr 20 11:16:18 2021

   => Loading Basis Set <=

    Name: AUG-CC-PV(Q+D)Z
    Role: ORBITAL
    Keyword: BASIS
    atoms 1   entry S          line  1148 file /work/zw18965/.conda/envs/p4env/share/psi4/basis/aug-cc-pv_qpd_z.gbs 
    atoms 2-3 entry O          line   439 file /work/zw18965/.conda/envs/p4env/share/psi4/basis/aug-cc-pv_qpd_z.gbs 


         ---------------------------------------------------------
                                   SCF
               by Justin Turney, Rob Parrish, Andy Simmonett
                          and Daniel G. A. Smith
                              RKS Reference
                       24 Threads, 137329 MiB Core
         ---------------------------------------------------------

  ==> Geometry <==

    Molecular point group: cs
    Full point group: Cs

    Geometry (in Angstrom), charge = 0, multiplicity = 1:

       Center              X                  Y                   Z               Mass       
    ------------   -----------------  -----------------  -----------------  -----------------
         S           -0.001168510624     0.364869136019     0.000000000000    31.972071174400
         O            1.240612923740    -0.361914972436     0.000000000000    15.994914619570
         O           -1.238277199811    -0.367418210240     0.000000000000    15.994914619570

  Running in cs symmetry.

  Rotational constants: A =      1.98079  B =      0.34303  C =      0.29239 [cm^-1]
  Rotational constants: A =  59382.54238  B =  10283.67839  C =   8765.66808 [MHz]
  Nuclear repulsion =  107.855067481702875

  Charge       = 0
  Multiplicity = 1
  Electrons    = 32
  Nalpha       = 16
  Nbeta        = 16

  ==> Algorithm <==

  SCF Algorithm Type is DF.
  DIIS enabled.
  MOM disabled.
  Fractional occupation disabled.
  Guess Type is SAD.
  Energy threshold   = 1.00e-08
  Density threshold  = 1.00e-08
  Integral threshold = 0.00e+00

  ==> Primary Basis <==

  Basis Set: AUG-CC-PV(Q+D)Z
    Blend: AUG-CC-PV(Q+D)Z
    Number of shells: 63
    Number of basis function: 249
    Number of Cartesian functions: 325
    Spherical Harmonics?: true
    Max angular momentum: 4

  ==> DFT Potential <==

   => Composite Functional: WB97X-V <= 

    wB97X-V Hyb-GGA Exchange-Correlation Functional

    N. Mardirossian and M. Head-Gordon, Phys. Chem. Chem. Phys. 16, 9904 (2014)

    Deriv               =              1
    GGA                 =           TRUE
    Meta                =          FALSE

    Exchange Hybrid     =           TRUE
    MP2 Hybrid          =          FALSE

   => Exchange-Correlation Functionals <=

    1.0000   wB97X-V range-separated functional

   => Exact (HF) Exchange <=

    0.8330            HF,LR [omega = 0.3000]
    0.1670               HF 

   => VV10 Non-Local Parameters <=

    VV10 B              =     6.0000E+00
    VV10 C              =     1.0000E-02

   => Molecular Quadrature <=

    Radial Scheme          =       TREUTLER
    Pruning Scheme         =           FLAT
    Nuclear Scheme         =       TREUTLER

    BS radius alpha        =              1
    Pruning alpha          =              1
    Radial Points          =             75
    Spherical Points       =            302
    Total Points           =          67950
    Total Blocks           =            580
    Max Points             =            255
    Max Functions          =            249

   => Loading Basis Set <=

    Name: (AUG-CC-PV(Q+D)Z AUX)
    Role: JKFIT
    Keyword: DF_BASIS_SCF
    atoms 1   entry S          line   810 file /work/zw18965/.conda/envs/p4env/share/psi4/basis/aug-cc-pvqz-jkfit.gbs 
    atoms 2-3 entry O          line   318 file /work/zw18965/.conda/envs/p4env/share/psi4/basis/aug-cc-pvqz-jkfit.gbs 

  ==> Pre-Iterations <==

   -------------------------------------------------------
    Irrep   Nso     Nmo     Nalpha   Nbeta   Ndocc  Nsocc
   -------------------------------------------------------
     A'       156     156       0       0       0       0
     A"        93      93       0       0       0       0
   -------------------------------------------------------
    Total     249     249      16      16      16       0
   -------------------------------------------------------

  ==> Integral Setup <==

  ==> DiskDFJK: Density-Fitted J/K Matrices <==

    J tasked:                  Yes
    K tasked:                  Yes
    wK tasked:                 Yes
    Omega:               3.000E-01
    OpenMP threads:             24
    Integrals threads:          24
    Memory [MiB]:           102578
    Algorithm:                Core
    Integral Cache:           NONE
    Schwarz Cutoff:          1E-12
    Fitting Condition:       1E-10

   => Auxiliary Basis Set <=

  Basis Set: (AUG-CC-PV(Q+D)Z AUX)
    Blend: AUG-CC-PVQZ-JKFIT
    Number of shells: 114
    Number of basis function: 468
    Number of Cartesian functions: 643
    Spherical Harmonics?: true
    Max angular momentum: 5

  Cached 100.0% of DFT collocation blocks in 0.409 [GiB].

  Minimum eigenvalue in the overlap matrix is 8.9284383980E-05.
  Using Symmetric Orthogonalization.

  SCF Guess: Superposition of Atomic Densities via on-the-fly atomic UHF.

  ==> Iterations <==

                           Total Energy        Delta E     RMS |[F,P]|

   @DF-RKS iter SAD:  -548.37765787353487   -5.48378e+02   0.00000e+00 
   @DF-RKS iter   1:  -548.42128353491171   -4.36257e-02   4.01508e-03 DIIS
   @DF-RKS iter   2:  -548.30537759285914    1.15906e-01   5.26246e-03 DIIS
   @DF-RKS iter   3:  -548.60979997694290   -3.04422e-01   2.52556e-04 DIIS
   @DF-RKS iter   4:  -548.61038420026841   -5.84223e-04   4.79581e-05 DIIS
   @DF-RKS iter   5:  -548.61044415567744   -5.99554e-05   1.54781e-05 DIIS
   @DF-RKS iter   6:  -548.61044601508422   -1.85941e-06   1.63626e-05 DIIS
   @DF-RKS iter   7:  -548.61044932102095   -3.30594e-06   2.11619e-06 DIIS
   @DF-RKS iter   8:  -548.61044947819983   -1.57179e-07   4.34265e-07 DIIS
   @DF-RKS iter   9:  -548.61044948932829   -1.11285e-08   1.45126e-07 DIIS
   @DF-RKS iter  10:  -548.61044948983056   -5.02268e-10   2.69230e-08 DIIS
   @DF-RKS iter  11:  -548.61044948985352   -2.29647e-11   6.91476e-09 DIIS
  Energy and wave function converged.


  ==> Post-Iterations <==

    Orbital Energies [Eh]
    ---------------------

    Doubly Occupied:                                                      

       1Ap   -89.078152     2Ap   -19.275133     3Ap   -19.274959  
       4Ap    -8.213218     1App   -6.171565     5Ap    -6.167734  
       6Ap    -6.164211     7Ap    -1.282840     8Ap    -1.187409  
       9Ap    -0.763011    10Ap    -0.615540     2App   -0.615248  
      11Ap    -0.611743     3App   -0.485592    12Ap    -0.475426  
      13Ap    -0.445498  

    Virtual:                                                              

       4App   -0.044445    14Ap     0.052453    15Ap     0.060638  
      16Ap     0.063214     5App    0.067494    17Ap     0.123402  
      18Ap     0.133062    19Ap     0.142519     6App    0.150059  
      20Ap     0.158145     7App    0.168395    21Ap     0.170897  
      22Ap     0.201519     8App    0.214523    23Ap     0.234332  
      24Ap     0.265542     9App    0.271309    25Ap     0.283798  
      26Ap     0.300046    27Ap     0.305113    10App    0.327404  
      28Ap     0.364148    11App    0.430617    29Ap     0.442729  
      30Ap     0.443495    12App    0.450470    31Ap     0.460894  
      13App    0.484183    32Ap     0.493692    33Ap     0.543334  
      34Ap     0.563760    35Ap     0.574352    14App    0.584171  
      15App    0.585853    16App    0.596871    17App    0.622843  
      36Ap     0.626253    37Ap     0.636346    38Ap     0.649059  
      18App    0.654550    39Ap     0.681545    40Ap     0.708397  
      19App    0.739081    41Ap     0.762209    42Ap     0.768510  
      43Ap     0.783769    20App    0.858087    21App    0.861657  
      44Ap     0.883381    45Ap     0.973423    46Ap     1.010734  
      47Ap     1.044980    48Ap     1.105593    49Ap     1.120001  
      50Ap     1.137397    22App    1.137650    23App    1.218694  
      51Ap     1.233057    24App    1.256510    52Ap     1.279008  
      25App    1.289792    26App    1.313538    53Ap     1.331588  
      54Ap     1.341228    27App    1.345420    55Ap     1.387461  
      56Ap     1.393273    28App    1.400938    29App    1.424026  
      57Ap     1.435433    58Ap     1.446318    30App    1.481706  
      31App    1.517471    59Ap     1.524683    60Ap     1.541656  
      61Ap     1.554561    32App    1.581714    33App    1.600743  
      62Ap     1.610102    63Ap     1.629324    34App    1.686758  
      64Ap     1.693137    65Ap     1.701094    35App    1.709086  
      66Ap     1.723607    67Ap     1.840419    36App    1.927343  
      68Ap     1.935179    69Ap     1.976632    37App    1.979555  
      70Ap     2.063719    38App    2.118288    71Ap     2.125585  
      72Ap     2.134918    39App    2.145982    40App    2.153030  
      73Ap     2.159255    74Ap     2.162989    75Ap     2.227177  
      41App    2.247447    76Ap     2.445278    77Ap     2.615713  
      78Ap     2.636903    42App    2.735933    43App    2.750697  
      79Ap     2.836367    80Ap     3.035486    81Ap     3.051931  
      82Ap     3.197903    44App    3.220029    45App    3.225376  
      83Ap     3.239796    46App    3.247246    84Ap     3.305228  
      47App    3.306329    48App    3.314493    85Ap     3.358201  
      86Ap     3.362786    87Ap     3.391746    49App    3.459146  
      50App    3.459927    88Ap     3.472987    89Ap     3.524118  
      90Ap     3.547888    51App    3.558320    52App    3.579417  
      91Ap     3.639220    92Ap     3.640163    53App    3.677635  
      93Ap     3.740862    54App    3.777436    94Ap     3.850597  
      95Ap     3.879341    55App    3.890231    96Ap     3.892061  
      97Ap     3.919258    56App    3.935338    57App    3.949993  
      98Ap     3.989602    99Ap     3.994428    58App    4.007189  
     100Ap     4.032739   101Ap     4.098512   102Ap     4.103417  
      59App    4.119267    60App    4.144787    61App    4.264685  
     103Ap     4.306739    62App    4.327570   104Ap     4.350205  
     105Ap     4.365633    63App    4.372280   106Ap     4.415579  
     107Ap     4.525489   108Ap     4.542193   109Ap     4.591500  
      64App    4.615024   110Ap     4.645212    65App    4.774048  
     111Ap     4.776694   112Ap     4.889852    66App    4.910858  
      67App    4.947020    68App    5.060990   113Ap     5.096594  
      69App    5.191905   114Ap     5.226191   115Ap     5.317246  
     116Ap     5.399187    70App    5.561015   117Ap     5.685425  
     118Ap     5.710731   119Ap     6.076780   120Ap     6.142756  
      71App    6.487110   121Ap     7.358409   122Ap     8.174636  
      72App    8.817592   123Ap     8.834543    73App    9.003063  
     124Ap     9.177131   125Ap     9.887566    74App   10.213608  
     126Ap    10.225201    75App   10.231316   127Ap    10.245598  
     128Ap    10.315621    76App   10.380991    77App   10.388723  
     129Ap    10.392218    78App   10.491366    79App   10.501915  
     130Ap    10.519791    80App   10.528485    81App   10.538567  
     131Ap    10.539483    82App   10.548861   132Ap    10.549936  
     133Ap    10.618930    83App   10.632318   134Ap    10.651592  
     135Ap    10.692483   136Ap    10.706900   137Ap    11.040222  
     138Ap    11.281633   139Ap    11.322369    84App   11.421191  
     140Ap    11.426214   141Ap    11.427061    85App   11.434767  
      86App   11.584392   142Ap    11.608625    87App   11.655971  
     143Ap    11.706544    88App   12.069096   144Ap    12.106317  
      89App   12.116228   145Ap    12.203764   146Ap    12.333237  
     147Ap    12.394888    90App   12.416521    91App   12.494846  
     148Ap    12.591863    92App   12.753235    93App   12.756403  
     149Ap    12.829359   150Ap    12.860696   151Ap    12.893114  
     152Ap    13.446660   153Ap    13.723379   154Ap    23.623382  
     155Ap    41.759397   156Ap    42.060390  

    Final Occupation by Irrep:
             Ap   App 
    DOCC [    13,    3 ]

  @DF-RKS Final Energy:  -548.61044948985352

   => Energetics <=

    Nuclear Repulsion Energy =            107.8550674817028749
    One-Electron Energy =                -969.7804527912645653
    Two-Electron Energy =                 344.8670264479344496
    DFT Exchange-Correlation Energy =     -31.6846782230499429
    Empirical Dispersion Energy =           0.0000000000000000
    VV10 Nonlocal Energy =                  0.1325875948236614
    Total Energy =                       -548.6104494898534085

Computation Completed


Properties will be evaluated at   0.000000,   0.000000,   0.000000 [a0]

Properties computed using the SCF density matrix

  Nuclear Dipole Moment: [e a0]
     X:    -0.0000      Y:     0.0061      Z:     0.0000

  Electronic Dipole Moment: [e a0]
     X:    -0.0041      Y:     0.6740      Z:     0.0000

  Dipole Moment: [e a0]
     X:    -0.0041      Y:     0.6801      Z:     0.0000     Total:     0.6801

  Dipole Moment: [D]
     X:    -0.0104      Y:     1.7286      Z:     0.0000     Total:     1.7287


*** tstop() called on bp1-compute00154.data.bp.acrc.priv at Tue Apr 20 11:16:24 2021
Module time:
	user time   =     136.29 seconds =       2.27 minutes
	system time =       4.55 seconds =       0.08 minutes
	total time  =          6 seconds =       0.10 minutes
Total time:
	user time   =     266.83 seconds =       4.45 minutes
	system time =      11.15 seconds =       0.19 minutes
	total time  =         13 seconds =       0.22 minutes

  //>>>>>>>>>>>>>>>>>>>>>>>>>>>>>>>>>>>//
  //    Loading displacement 3 of 7    //
  //<<<<<<<<<<<<<<<<<<<<<<<<<<<<<<<<<<<//

*** tstart() called on bp1-compute00154.data.bp.acrc.priv
*** at Tue Apr 20 11:16:24 2021

   => Loading Basis Set <=

    Name: AUG-CC-PV(Q+D)Z
    Role: ORBITAL
    Keyword: BASIS
    atoms 1   entry S          line  1148 file /work/zw18965/.conda/envs/p4env/share/psi4/basis/aug-cc-pv_qpd_z.gbs 
    atoms 2-3 entry O          line   439 file /work/zw18965/.conda/envs/p4env/share/psi4/basis/aug-cc-pv_qpd_z.gbs 


         ---------------------------------------------------------
                                   SCF
               by Justin Turney, Rob Parrish, Andy Simmonett
                          and Daniel G. A. Smith
                              RKS Reference
                       24 Threads, 137329 MiB Core
         ---------------------------------------------------------

  ==> Geometry <==

    Molecular point group: cs
    Full point group: Cs

    Geometry (in Angstrom), charge = 0, multiplicity = 1:

       Center              X                  Y                   Z               Mass       
    ------------   -----------------  -----------------  -----------------  -----------------
         S           -0.000557456564     0.364868885736     0.000000000000    31.972071174400
         O            1.240001358736    -0.361555258695     0.000000000000    15.994914619570
         O           -1.238887064515    -0.367777423695     0.000000000000    15.994914619570

  Running in cs symmetry.

  Rotational constants: A =      1.98081  B =      0.34303  C =      0.29239 [cm^-1]
  Rotational constants: A =  59383.09424  B =  10283.67839  C =   8765.68011 [MHz]
  Nuclear repulsion =  107.855180092528940

  Charge       = 0
  Multiplicity = 1
  Electrons    = 32
  Nalpha       = 16
  Nbeta        = 16

  ==> Algorithm <==

  SCF Algorithm Type is DF.
  DIIS enabled.
  MOM disabled.
  Fractional occupation disabled.
  Guess Type is SAD.
  Energy threshold   = 1.00e-08
  Density threshold  = 1.00e-08
  Integral threshold = 0.00e+00

  ==> Primary Basis <==

  Basis Set: AUG-CC-PV(Q+D)Z
    Blend: AUG-CC-PV(Q+D)Z
    Number of shells: 63
    Number of basis function: 249
    Number of Cartesian functions: 325
    Spherical Harmonics?: true
    Max angular momentum: 4

  ==> DFT Potential <==

   => Composite Functional: WB97X-V <= 

    wB97X-V Hyb-GGA Exchange-Correlation Functional

    N. Mardirossian and M. Head-Gordon, Phys. Chem. Chem. Phys. 16, 9904 (2014)

    Deriv               =              1
    GGA                 =           TRUE
    Meta                =          FALSE

    Exchange Hybrid     =           TRUE
    MP2 Hybrid          =          FALSE

   => Exchange-Correlation Functionals <=

    1.0000   wB97X-V range-separated functional

   => Exact (HF) Exchange <=

    0.8330            HF,LR [omega = 0.3000]
    0.1670               HF 

   => VV10 Non-Local Parameters <=

    VV10 B              =     6.0000E+00
    VV10 C              =     1.0000E-02

   => Molecular Quadrature <=

    Radial Scheme          =       TREUTLER
    Pruning Scheme         =           FLAT
    Nuclear Scheme         =       TREUTLER

    BS radius alpha        =              1
    Pruning alpha          =              1
    Radial Points          =             75
    Spherical Points       =            302
    Total Points           =          67950
    Total Blocks           =            585
    Max Points             =            256
    Max Functions          =            249

   => Loading Basis Set <=

    Name: (AUG-CC-PV(Q+D)Z AUX)
    Role: JKFIT
    Keyword: DF_BASIS_SCF
    atoms 1   entry S          line   810 file /work/zw18965/.conda/envs/p4env/share/psi4/basis/aug-cc-pvqz-jkfit.gbs 
    atoms 2-3 entry O          line   318 file /work/zw18965/.conda/envs/p4env/share/psi4/basis/aug-cc-pvqz-jkfit.gbs 

  ==> Pre-Iterations <==

   -------------------------------------------------------
    Irrep   Nso     Nmo     Nalpha   Nbeta   Ndocc  Nsocc
   -------------------------------------------------------
     A'       156     156       0       0       0       0
     A"        93      93       0       0       0       0
   -------------------------------------------------------
    Total     249     249      16      16      16       0
   -------------------------------------------------------

  ==> Integral Setup <==

  ==> DiskDFJK: Density-Fitted J/K Matrices <==

    J tasked:                  Yes
    K tasked:                  Yes
    wK tasked:                 Yes
    Omega:               3.000E-01
    OpenMP threads:             24
    Integrals threads:          24
    Memory [MiB]:           102578
    Algorithm:                Core
    Integral Cache:           NONE
    Schwarz Cutoff:          1E-12
    Fitting Condition:       1E-10

   => Auxiliary Basis Set <=

  Basis Set: (AUG-CC-PV(Q+D)Z AUX)
    Blend: AUG-CC-PVQZ-JKFIT
    Number of shells: 114
    Number of basis function: 468
    Number of Cartesian functions: 643
    Spherical Harmonics?: true
    Max angular momentum: 5

  Cached 100.0% of DFT collocation blocks in 0.409 [GiB].

  Minimum eigenvalue in the overlap matrix is 8.9283959643E-05.
  Using Symmetric Orthogonalization.

  SCF Guess: Superposition of Atomic Densities via on-the-fly atomic UHF.

  ==> Iterations <==

                           Total Energy        Delta E     RMS |[F,P]|

   @DF-RKS iter SAD:  -548.37766469353619   -5.48378e+02   0.00000e+00 
   @DF-RKS iter   1:  -548.42128415517311   -4.36195e-02   4.01507e-03 DIIS
   @DF-RKS iter   2:  -548.30538025127805    1.15904e-01   5.26245e-03 DIIS
   @DF-RKS iter   3:  -548.60980007451360   -3.04420e-01   2.52556e-04 DIIS
   @DF-RKS iter   4:  -548.61038429886287   -5.84224e-04   4.79581e-05 DIIS
   @DF-RKS iter   5:  -548.61044425438547   -5.99555e-05   1.54786e-05 DIIS
   @DF-RKS iter   6:  -548.61044611387513   -1.85949e-06   1.63628e-05 DIIS
   @DF-RKS iter   7:  -548.61044941991543   -3.30604e-06   2.11620e-06 DIIS
   @DF-RKS iter   8:  -548.61044957709578   -1.57180e-07   4.34264e-07 DIIS
   @DF-RKS iter   9:  -548.61044958822458   -1.11288e-08   1.45126e-07 DIIS
   @DF-RKS iter  10:  -548.61044958872571   -5.01132e-10   2.69235e-08 DIIS
   @DF-RKS iter  11:  -548.61044958874959   -2.38742e-11   6.91468e-09 DIIS
  Energy and wave function converged.


  ==> Post-Iterations <==

    Orbital Energies [Eh]
    ---------------------

    Doubly Occupied:                                                      

       1Ap   -89.078151     2Ap   -19.275133     3Ap   -19.274959  
       4Ap    -8.213217     1App   -6.171565     5Ap    -6.167734  
       6Ap    -6.164210     7Ap    -1.282841     8Ap    -1.187410  
       9Ap    -0.763010    10Ap    -0.615541     2App   -0.615249  
      11Ap    -0.611744     3App   -0.485593    12Ap    -0.475427  
      13Ap    -0.445498  

    Virtual:                                                              

       4App   -0.044444    14Ap     0.052453    15Ap     0.060638  
      16Ap     0.063214     5App    0.067494    17Ap     0.123402  
      18Ap     0.133062    19Ap     0.142519     6App    0.150059  
      20Ap     0.158146     7App    0.168395    21Ap     0.170897  
      22Ap     0.201519     8App    0.214523    23Ap     0.234331  
      24Ap     0.265542     9App    0.271309    25Ap     0.283798  
      26Ap     0.300046    27Ap     0.305113    10App    0.327404  
      28Ap     0.364148    11App    0.430617    29Ap     0.442729  
      30Ap     0.443495    12App    0.450471    31Ap     0.460893  
      13App    0.484184    32Ap     0.493692    33Ap     0.543334  
      34Ap     0.563760    35Ap     0.574352    14App    0.584171  
      15App    0.585854    16App    0.596872    17App    0.622843  
      36Ap     0.626253    37Ap     0.636346    38Ap     0.649059  
      18App    0.654550    39Ap     0.681545    40Ap     0.708397  
      19App    0.739082    41Ap     0.762209    42Ap     0.768511  
      43Ap     0.783769    20App    0.858087    21App    0.861656  
      44Ap     0.883381    45Ap     0.973424    46Ap     1.010733  
      47Ap     1.044981    48Ap     1.105593    49Ap     1.120002  
      50Ap     1.137397    22App    1.137650    23App    1.218694  
      51Ap     1.233057    24App    1.256510    52Ap     1.279008  
      25App    1.289792    26App    1.313538    53Ap     1.331588  
      54Ap     1.341229    27App    1.345420    55Ap     1.387460  
      56Ap     1.393273    28App    1.400938    29App    1.424027  
      57Ap     1.435432    58Ap     1.446318    30App    1.481707  
      31App    1.517471    59Ap     1.524683    60Ap     1.541657  
      61Ap     1.554561    32App    1.581715    33App    1.600744  
      62Ap     1.610102    63Ap     1.629324    34App    1.686758  
      64Ap     1.693137    65Ap     1.701094    35App    1.709087  
      66Ap     1.723608    67Ap     1.840419    36App    1.927344  
      68Ap     1.935179    69Ap     1.976633    37App    1.979557  
      70Ap     2.063720    38App    2.118287    71Ap     2.125587  
      72Ap     2.134917    39App    2.145983    40App    2.153029  
      73Ap     2.159254    74Ap     2.162991    75Ap     2.227176  
      41App    2.247450    76Ap     2.445278    77Ap     2.615714  
      78Ap     2.636904    42App    2.735934    43App    2.750697  
      79Ap     2.836368    80Ap     3.035487    81Ap     3.051934  
      82Ap     3.197904    44App    3.220029    45App    3.225378  
      83Ap     3.239797    46App    3.247246    84Ap     3.305229  
      47App    3.306329    48App    3.314494    85Ap     3.358201  
      86Ap     3.362787    87Ap     3.391748    49App    3.459146  
      50App    3.459930    88Ap     3.472987    89Ap     3.524118  
      90Ap     3.547889    51App    3.558321    52App    3.579417  
      91Ap     3.639221    92Ap     3.640164    53App    3.677634  
      93Ap     3.740863    54App    3.777436    94Ap     3.850598  
      95Ap     3.879340    55App    3.890233    96Ap     3.892060  
      97Ap     3.919258    56App    3.935340    57App    3.949993  
      98Ap     3.989602    99Ap     3.994428    58App    4.007191  
     100Ap     4.032741   101Ap     4.098513   102Ap     4.103417  
      59App    4.119267    60App    4.144787    61App    4.264686  
     103Ap     4.306739    62App    4.327571   104Ap     4.350205  
     105Ap     4.365637    63App    4.372281   106Ap     4.415580  
     107Ap     4.525493   108Ap     4.542195   109Ap     4.591503  
      64App    4.615027   110Ap     4.645214    65App    4.774050  
     111Ap     4.776694   112Ap     4.889853    66App    4.910860  
      67App    4.947023    68App    5.060990   113Ap     5.096595  
      69App    5.191914   114Ap     5.226194   115Ap     5.317255  
     116Ap     5.399188    70App    5.561017   117Ap     5.685434  
     118Ap     5.710732   119Ap     6.076783   120Ap     6.142763  
      71App    6.487115   121Ap     7.358411   122Ap     8.174644  
      72App    8.817593   123Ap     8.834543    73App    9.003066  
     124Ap     9.177134   125Ap     9.887571    74App   10.213608  
     126Ap    10.225201    75App   10.231316   127Ap    10.245597  
     128Ap    10.315622    76App   10.380992    77App   10.388722  
     129Ap    10.392220    78App   10.491367    79App   10.501915  
     130Ap    10.519790    80App   10.528486    81App   10.538569  
     131Ap    10.539483    82App   10.548862   132Ap    10.549935  
     133Ap    10.618933    83App   10.632321   134Ap    10.651594  
     135Ap    10.692484   136Ap    10.706902   137Ap    11.040222  
     138Ap    11.281633   139Ap    11.322369    84App   11.421191  
     140Ap    11.426214   141Ap    11.427060    85App   11.434767  
      86App   11.584392   142Ap    11.608627    87App   11.655973  
     143Ap    11.706545    88App   12.069099   144Ap    12.106317  
      89App   12.116232   145Ap    12.203767   146Ap    12.333244  
     147Ap    12.394889    90App   12.416522    91App   12.494849  
     148Ap    12.591865    92App   12.753235    93App   12.756402  
     149Ap    12.829358   150Ap    12.860697   151Ap    12.893115  
     152Ap    13.446665   153Ap    13.723391   154Ap    23.623414  
     155Ap    41.759408   156Ap    42.060400  

    Final Occupation by Irrep:
             Ap   App 
    DOCC [    13,    3 ]

  @DF-RKS Final Energy:  -548.61044958874959

   => Energetics <=

    Nuclear Repulsion Energy =            107.8551800925289399
    One-Electron Energy =                -969.7806749651638256
    Two-Electron Energy =                 344.8671380245027080
    DFT Exchange-Correlation Energy =     -31.6846803328332030
    Empirical Dispersion Energy =           0.0000000000000000
    VV10 Nonlocal Energy =                  0.1325875922157673
    Total Energy =                       -548.6104495887497023

Computation Completed


Properties will be evaluated at   0.000000,   0.000000,   0.000000 [a0]

Properties computed using the SCF density matrix

  Nuclear Dipole Moment: [e a0]
     X:    -0.0000      Y:     0.0061      Z:     0.0000

  Electronic Dipole Moment: [e a0]
     X:     0.0009      Y:     0.6740      Z:     0.0000

  Dipole Moment: [e a0]
     X:     0.0009      Y:     0.6801      Z:     0.0000     Total:     0.6801

  Dipole Moment: [D]
     X:     0.0023      Y:     1.7287      Z:     0.0000     Total:     1.7287


*** tstop() called on bp1-compute00154.data.bp.acrc.priv at Tue Apr 20 11:16:29 2021
Module time:
	user time   =     123.67 seconds =       2.06 minutes
	system time =       3.36 seconds =       0.06 minutes
	total time  =          5 seconds =       0.08 minutes
Total time:
	user time   =     390.65 seconds =       6.51 minutes
	system time =      14.52 seconds =       0.24 minutes
	total time  =         18 seconds =       0.30 minutes

  //>>>>>>>>>>>>>>>>>>>>>>>>>>>>>>>>>>>//
  //    Loading displacement 4 of 7    //
  //<<<<<<<<<<<<<<<<<<<<<<<<<<<<<<<<<<<//

*** tstart() called on bp1-compute00154.data.bp.acrc.priv
*** at Tue Apr 20 11:16:29 2021

   => Loading Basis Set <=

    Name: AUG-CC-PV(Q+D)Z
    Role: ORBITAL
    Keyword: BASIS
    atoms 1   entry S          line  1148 file /work/zw18965/.conda/envs/p4env/share/psi4/basis/aug-cc-pv_qpd_z.gbs 
    atoms 2-3 entry O          line   439 file /work/zw18965/.conda/envs/p4env/share/psi4/basis/aug-cc-pv_qpd_z.gbs 


         ---------------------------------------------------------
                                   SCF
               by Justin Turney, Rob Parrish, Andy Simmonett
                          and Daniel G. A. Smith
                              RKS Reference
                       24 Threads, 137329 MiB Core
         ---------------------------------------------------------

  ==> Geometry <==

    Molecular point group: cs
    Full point group: Cs

    Geometry (in Angstrom), charge = 0, multiplicity = 1:

       Center              X                  Y                   Z               Mass       
    ------------   -----------------  -----------------  -----------------  -----------------
         S           -0.000862983594     0.364538084929     0.000000000000    31.972071174400
         O            1.240307142327    -0.361404833758     0.000000000000    15.994914619570
         O           -1.238582133252    -0.367266614282     0.000000000000    15.994914619570

  Running in cs symmetry.

  Rotational constants: A =      1.98439  B =      0.34303  C =      0.29247 [cm^-1]
  Rotational constants: A =  59490.65381  B =  10283.68069  C =   8768.02183 [MHz]
  Nuclear repulsion =  107.877086371405625

  Charge       = 0
  Multiplicity = 1
  Electrons    = 32
  Nalpha       = 16
  Nbeta        = 16

  ==> Algorithm <==

  SCF Algorithm Type is DF.
  DIIS enabled.
  MOM disabled.
  Fractional occupation disabled.
  Guess Type is SAD.
  Energy threshold   = 1.00e-08
  Density threshold  = 1.00e-08
  Integral threshold = 0.00e+00

  ==> Primary Basis <==

  Basis Set: AUG-CC-PV(Q+D)Z
    Blend: AUG-CC-PV(Q+D)Z
    Number of shells: 63
    Number of basis function: 249
    Number of Cartesian functions: 325
    Spherical Harmonics?: true
    Max angular momentum: 4

  ==> DFT Potential <==

   => Composite Functional: WB97X-V <= 

    wB97X-V Hyb-GGA Exchange-Correlation Functional

    N. Mardirossian and M. Head-Gordon, Phys. Chem. Chem. Phys. 16, 9904 (2014)

    Deriv               =              1
    GGA                 =           TRUE
    Meta                =          FALSE

    Exchange Hybrid     =           TRUE
    MP2 Hybrid          =          FALSE

   => Exchange-Correlation Functionals <=

    1.0000   wB97X-V range-separated functional

   => Exact (HF) Exchange <=

    0.8330            HF,LR [omega = 0.3000]
    0.1670               HF 

   => VV10 Non-Local Parameters <=

    VV10 B              =     6.0000E+00
    VV10 C              =     1.0000E-02

   => Molecular Quadrature <=

    Radial Scheme          =       TREUTLER
    Pruning Scheme         =           FLAT
    Nuclear Scheme         =       TREUTLER

    BS radius alpha        =              1
    Pruning alpha          =              1
    Radial Points          =             75
    Spherical Points       =            302
    Total Points           =          67950
    Total Blocks           =            580
    Max Points             =            256
    Max Functions          =            249

   => Loading Basis Set <=

    Name: (AUG-CC-PV(Q+D)Z AUX)
    Role: JKFIT
    Keyword: DF_BASIS_SCF
    atoms 1   entry S          line   810 file /work/zw18965/.conda/envs/p4env/share/psi4/basis/aug-cc-pvqz-jkfit.gbs 
    atoms 2-3 entry O          line   318 file /work/zw18965/.conda/envs/p4env/share/psi4/basis/aug-cc-pvqz-jkfit.gbs 

  ==> Pre-Iterations <==

   -------------------------------------------------------
    Irrep   Nso     Nmo     Nalpha   Nbeta   Ndocc  Nsocc
   -------------------------------------------------------
     A'       156     156       0       0       0       0
     A"        93      93       0       0       0       0
   -------------------------------------------------------
    Total     249     249      16      16      16       0
   -------------------------------------------------------

  ==> Integral Setup <==

  ==> DiskDFJK: Density-Fitted J/K Matrices <==

    J tasked:                  Yes
    K tasked:                  Yes
    wK tasked:                 Yes
    Omega:               3.000E-01
    OpenMP threads:             24
    Integrals threads:          24
    Memory [MiB]:           102578
    Algorithm:                Core
    Integral Cache:           NONE
    Schwarz Cutoff:          1E-12
    Fitting Condition:       1E-10

   => Auxiliary Basis Set <=

  Basis Set: (AUG-CC-PV(Q+D)Z AUX)
    Blend: AUG-CC-PVQZ-JKFIT
    Number of shells: 114
    Number of basis function: 468
    Number of Cartesian functions: 643
    Spherical Harmonics?: true
    Max angular momentum: 5

  Cached 100.0% of DFT collocation blocks in 0.409 [GiB].

  Minimum eigenvalue in the overlap matrix is 8.9201914956E-05.
  Using Symmetric Orthogonalization.

  SCF Guess: Superposition of Atomic Densities via on-the-fly atomic UHF.

  ==> Iterations <==

                           Total Energy        Delta E     RMS |[F,P]|

   @DF-RKS iter SAD:  -548.37905936827872   -5.48379e+02   0.00000e+00 
   @DF-RKS iter   1:  -548.42143645452040   -4.23771e-02   4.01421e-03 DIIS
   @DF-RKS iter   2:  -548.30595177085388    1.15485e-01   5.25835e-03 DIIS
   @DF-RKS iter   3:  -548.60982026474471   -3.03868e-01   2.52494e-04 DIIS
   @DF-RKS iter   4:  -548.61040479319445   -5.84528e-04   4.74510e-05 DIIS
   @DF-RKS iter   5:  -548.61046611348957   -6.13203e-05   8.65358e-06 DIIS
   @DF-RKS iter   6:  -548.61046925212827   -3.13864e-06   2.44705e-06 DIIS
   @DF-RKS iter   7:  -548.61046954708297   -2.94955e-07   6.24846e-07 DIIS
   @DF-RKS iter   8:  -548.61046957083647   -2.37535e-08   3.26046e-07 DIIS
   @DF-RKS iter   9:  -548.61046957211784   -1.28136e-09   2.13266e-07 DIIS
   @DF-RKS iter  10:  -548.61046957273095   -6.13113e-10   3.43076e-08 DIIS
   @DF-RKS iter  11:  -548.61046957275812   -2.71712e-11   6.96022e-09 DIIS
  Energy and wave function converged.


  ==> Post-Iterations <==

    Orbital Energies [Eh]
    ---------------------

    Doubly Occupied:                                                      

       1Ap   -89.078053     2Ap   -19.275045     3Ap   -19.275031  
       4Ap    -8.213133     1App   -6.171480     5Ap    -6.167649  
       6Ap    -6.164125     7Ap    -1.283005     8Ap    -1.187584  
       9Ap    -0.762914    10Ap    -0.615619     2App   -0.615350  
      11Ap    -0.611795     3App   -0.485702    12Ap    -0.475539  
      13Ap    -0.445445  

    Virtual:                                                              

       4App   -0.044309    14Ap     0.052461    15Ap     0.060648  
      16Ap     0.063234     5App    0.067498    17Ap     0.123410  
      18Ap     0.133099    19Ap     0.142494     6App    0.150033  
      20Ap     0.158291     7App    0.168403    21Ap     0.170940  
      22Ap     0.201512     8App    0.214499    23Ap     0.234290  
      24Ap     0.265552     9App    0.271393    25Ap     0.283898  
      26Ap     0.300104    27Ap     0.305149    10App    0.327381  
      28Ap     0.364141    11App    0.430613    29Ap     0.442752  
      30Ap     0.443520    12App    0.450511    31Ap     0.460853  
      13App    0.484232    32Ap     0.493716    33Ap     0.543305  
      34Ap     0.563789    35Ap     0.574445    14App    0.584106  
      15App    0.585885    16App    0.596963    17App    0.622851  
      36Ap     0.626326    37Ap     0.636335    38Ap     0.649103  
      18App    0.654609    39Ap     0.681663    40Ap     0.708380  
      19App    0.739220    41Ap     0.762269    42Ap     0.768667  
      43Ap     0.783831    20App    0.858022    21App    0.861595  
      44Ap     0.883347    45Ap     0.973633    46Ap     1.010706  
      47Ap     1.045212    48Ap     1.105548    49Ap     1.120111  
      50Ap     1.137465    22App    1.137659    23App    1.218770  
      51Ap     1.233130    24App    1.256393    52Ap     1.279041  
      25App    1.289804    26App    1.313539    53Ap     1.331657  
      54Ap     1.341441    27App    1.345469    55Ap     1.387357  
      56Ap     1.393310    28App    1.401072    29App    1.424063  
      57Ap     1.435365    58Ap     1.446279    30App    1.481855  
      31App    1.517490    59Ap     1.524791    60Ap     1.541851  
      61Ap     1.554577    32App    1.581909    33App    1.600930  
      62Ap     1.610261    63Ap     1.629379    34App    1.686631  
      64Ap     1.693207    65Ap     1.701108    35App    1.709246  
      66Ap     1.723750    67Ap     1.840252    36App    1.927535  
      68Ap     1.935184    69Ap     1.976817    37App    1.979824  
      70Ap     2.064013    38App    2.118005    71Ap     2.125977  
      72Ap     2.134804    39App    2.146033    40App    2.152874  
      73Ap     2.159062    74Ap     2.163541    75Ap     2.227018  
      41App    2.248005    76Ap     2.445344    77Ap     2.615879  
      78Ap     2.637143    42App    2.736089    43App    2.750809  
      79Ap     2.836679    80Ap     3.035644    81Ap     3.052591  
      82Ap     3.198074    44App    3.220133    45App    3.225659  
      83Ap     3.239833    46App    3.247299    84Ap     3.305441  
      47App    3.306474    48App    3.314680    85Ap     3.358314  
      86Ap     3.362947    87Ap     3.392117    49App    3.459195  
      50App    3.460359    88Ap     3.473007    89Ap     3.524211  
      90Ap     3.547914    51App    3.558439    52App    3.579448  
      91Ap     3.639346    92Ap     3.640306    53App    3.677502  
      93Ap     3.741157    54App    3.777498    94Ap     3.850752  
      95Ap     3.879046    55App    3.890518    96Ap     3.892008  
      97Ap     3.919264    56App    3.935676    57App    3.949947  
      98Ap     3.989690    99Ap     3.994378    58App    4.007546  
     100Ap     4.033024   101Ap     4.098665   102Ap     4.103511  
      59App    4.119341    60App    4.144675    61App    4.264878  
     103Ap     4.306772    62App    4.327911   104Ap     4.350370  
     105Ap     4.366437    63App    4.372437   106Ap     4.415810  
     107Ap     4.526307   108Ap     4.542557   109Ap     4.592139  
      64App    4.615641   110Ap     4.645692    65App    4.774543  
     111Ap     4.776698   112Ap     4.889990    66App    4.911126  
      67App    4.947529    68App    5.061059   113Ap     5.096822  
      69App    5.193517   114Ap     5.226714   115Ap     5.319000  
     116Ap     5.399304    70App    5.561389   117Ap     5.687103  
     118Ap     5.710867   119Ap     6.077451   120Ap     6.144060  
      71App    6.488096   121Ap     7.358672   122Ap     8.176244  
      72App    8.817710   123Ap     8.834568    73App    9.003559  
     124Ap     9.177702   125Ap     9.888465    74App   10.213656  
     126Ap    10.225214    75App   10.231282   127Ap    10.245528  
     128Ap    10.315688    76App   10.381188    77App   10.388610  
     129Ap    10.392626    78App   10.491551    79App   10.501882  
     130Ap    10.519703    80App   10.528556    81App   10.538873  
     131Ap    10.539512    82App   10.549059   132Ap    10.549888  
     133Ap    10.619586    83App   10.632905   134Ap    10.651938  
     135Ap    10.692642   136Ap    10.707262   137Ap    11.040283  
     138Ap    11.281623   139Ap    11.322445    84App   11.421211  
     140Ap    11.426223   141Ap    11.426999    85App   11.434712  
      86App   11.584466   142Ap    11.608960    87App   11.656381  
     143Ap    11.706631    88App   12.069642   144Ap    12.106357  
      89App   12.117027   145Ap    12.204472   146Ap    12.334506  
     147Ap    12.395090    90App   12.416651    91App   12.495445  
     148Ap    12.592152    92App   12.753275    93App   12.756303  
     149Ap    12.829227   150Ap    12.860713   151Ap    12.893376  
     152Ap    13.447661   153Ap    13.725683   154Ap    23.629573  
     155Ap    41.761572   156Ap    42.062281  

    Final Occupation by Irrep:
             Ap   App 
    DOCC [    13,    3 ]

  @DF-RKS Final Energy:  -548.61046957275812

   => Energetics <=

    Nuclear Repulsion Energy =            107.8770863714056247
    One-Electron Energy =                -969.8238952679195108
    Two-Electron Energy =                 344.8888426886560410
    DFT Exchange-Correlation Energy =     -31.6850904487743463
    Empirical Dispersion Energy =           0.0000000000000000
    VV10 Nonlocal Energy =                  0.1325870838741267
    Total Energy =                       -548.6104695727580065

Computation Completed


Properties will be evaluated at   0.000000,   0.000000,   0.000000 [a0]

Properties computed using the SCF density matrix

  Nuclear Dipole Moment: [e a0]
     X:    -0.0000      Y:     0.0061      Z:     0.0000

  Electronic Dipole Moment: [e a0]
     X:    -0.0016      Y:     0.6727      Z:     0.0000

  Dipole Moment: [e a0]
     X:    -0.0016      Y:     0.6788      Z:     0.0000     Total:     0.6788

  Dipole Moment: [D]
     X:    -0.0041      Y:     1.7253      Z:     0.0000     Total:     1.7253


*** tstop() called on bp1-compute00154.data.bp.acrc.priv at Tue Apr 20 11:16:35 2021
Module time:
	user time   =     124.38 seconds =       2.07 minutes
	system time =       3.52 seconds =       0.06 minutes
	total time  =          6 seconds =       0.10 minutes
Total time:
	user time   =     515.17 seconds =       8.59 minutes
	system time =      18.05 seconds =       0.30 minutes
	total time  =         24 seconds =       0.40 minutes

  //>>>>>>>>>>>>>>>>>>>>>>>>>>>>>>>>>>>//
  //    Loading displacement 5 of 7    //
  //<<<<<<<<<<<<<<<<<<<<<<<<<<<<<<<<<<<//

*** tstart() called on bp1-compute00154.data.bp.acrc.priv
*** at Tue Apr 20 11:16:35 2021

   => Loading Basis Set <=

    Name: AUG-CC-PV(Q+D)Z
    Role: ORBITAL
    Keyword: BASIS
    atoms 1   entry S          line  1148 file /work/zw18965/.conda/envs/p4env/share/psi4/basis/aug-cc-pv_qpd_z.gbs 
    atoms 2-3 entry O          line   439 file /work/zw18965/.conda/envs/p4env/share/psi4/basis/aug-cc-pv_qpd_z.gbs 


         ---------------------------------------------------------
                                   SCF
               by Justin Turney, Rob Parrish, Andy Simmonett
                          and Daniel G. A. Smith
                              RKS Reference
                       24 Threads, 137329 MiB Core
         ---------------------------------------------------------

  ==> Geometry <==

    Molecular point group: cs
    Full point group: Cs

    Geometry (in Angstrom), charge = 0, multiplicity = 1:

       Center              X                  Y                   Z               Mass       
    ------------   -----------------  -----------------  -----------------  -----------------
         S           -0.000862983594     0.365199936826     0.000000000000    31.972071174400
         O            1.240307140149    -0.362065397373     0.000000000000    15.994914619570
         O           -1.238582131074    -0.367929019653     0.000000000000    15.994914619570

  Running in cs symmetry.

  Rotational constants: A =      1.97721  B =      0.34303  C =      0.29231 [cm^-1]
  Rotational constants: A =  59275.22056  B =  10283.68069  C =   8763.32763 [MHz]
  Nuclear repulsion =  107.833123295040537

  Charge       = 0
  Multiplicity = 1
  Electrons    = 32
  Nalpha       = 16
  Nbeta        = 16

  ==> Algorithm <==

  SCF Algorithm Type is DF.
  DIIS enabled.
  MOM disabled.
  Fractional occupation disabled.
  Guess Type is SAD.
  Energy threshold   = 1.00e-08
  Density threshold  = 1.00e-08
  Integral threshold = 0.00e+00

  ==> Primary Basis <==

  Basis Set: AUG-CC-PV(Q+D)Z
    Blend: AUG-CC-PV(Q+D)Z
    Number of shells: 63
    Number of basis function: 249
    Number of Cartesian functions: 325
    Spherical Harmonics?: true
    Max angular momentum: 4

  ==> DFT Potential <==

   => Composite Functional: WB97X-V <= 

    wB97X-V Hyb-GGA Exchange-Correlation Functional

    N. Mardirossian and M. Head-Gordon, Phys. Chem. Chem. Phys. 16, 9904 (2014)

    Deriv               =              1
    GGA                 =           TRUE
    Meta                =          FALSE

    Exchange Hybrid     =           TRUE
    MP2 Hybrid          =          FALSE

   => Exchange-Correlation Functionals <=

    1.0000   wB97X-V range-separated functional

   => Exact (HF) Exchange <=

    0.8330            HF,LR [omega = 0.3000]
    0.1670               HF 

   => VV10 Non-Local Parameters <=

    VV10 B              =     6.0000E+00
    VV10 C              =     1.0000E-02

   => Molecular Quadrature <=

    Radial Scheme          =       TREUTLER
    Pruning Scheme         =           FLAT
    Nuclear Scheme         =       TREUTLER

    BS radius alpha        =              1
    Pruning alpha          =              1
    Radial Points          =             75
    Spherical Points       =            302
    Total Points           =          67950
    Total Blocks           =            579
    Max Points             =            256
    Max Functions          =            249

   => Loading Basis Set <=

    Name: (AUG-CC-PV(Q+D)Z AUX)
    Role: JKFIT
    Keyword: DF_BASIS_SCF
    atoms 1   entry S          line   810 file /work/zw18965/.conda/envs/p4env/share/psi4/basis/aug-cc-pvqz-jkfit.gbs 
    atoms 2-3 entry O          line   318 file /work/zw18965/.conda/envs/p4env/share/psi4/basis/aug-cc-pvqz-jkfit.gbs 

  ==> Pre-Iterations <==

   -------------------------------------------------------
    Irrep   Nso     Nmo     Nalpha   Nbeta   Ndocc  Nsocc
   -------------------------------------------------------
     A'       156     156       0       0       0       0
     A"        93      93       0       0       0       0
   -------------------------------------------------------
    Total     249     249      16      16      16       0
   -------------------------------------------------------

  ==> Integral Setup <==

  ==> DiskDFJK: Density-Fitted J/K Matrices <==

    J tasked:                  Yes
    K tasked:                  Yes
    wK tasked:                 Yes
    Omega:               3.000E-01
    OpenMP threads:             24
    Integrals threads:          24
    Memory [MiB]:           102578
    Algorithm:                Core
    Integral Cache:           NONE
    Schwarz Cutoff:          1E-12
    Fitting Condition:       1E-10

   => Auxiliary Basis Set <=

  Basis Set: (AUG-CC-PV(Q+D)Z AUX)
    Blend: AUG-CC-PVQZ-JKFIT
    Number of shells: 114
    Number of basis function: 468
    Number of Cartesian functions: 643
    Spherical Harmonics?: true
    Max angular momentum: 5

  Cached 100.0% of DFT collocation blocks in 0.409 [GiB].

  Minimum eigenvalue in the overlap matrix is 8.9367689726E-05.
  Using Symmetric Orthogonalization.

  SCF Guess: Superposition of Atomic Densities via on-the-fly atomic UHF.

  ==> Iterations <==

                           Total Energy        Delta E     RMS |[F,P]|

   @DF-RKS iter SAD:  -548.37626270691646   -5.48376e+02   0.00000e+00 
   @DF-RKS iter   1:  -548.42113323069907   -4.48705e-02   4.01593e-03 DIIS
   @DF-RKS iter   2:  -548.30481242555504    1.16321e-01   5.26652e-03 DIIS
   @DF-RKS iter   3:  -548.60978153605038   -3.04969e-01   2.52499e-04 DIIS
   @DF-RKS iter   4:  -548.61036578932942   -5.84253e-04   4.75068e-05 DIIS
   @DF-RKS iter   5:  -548.61042710430524   -6.13150e-05   8.65405e-06 DIIS
   @DF-RKS iter   6:  -548.61043024253775   -3.13823e-06   2.43909e-06 DIIS
   @DF-RKS iter   7:  -548.61043053617186   -2.93634e-07   6.21296e-07 DIIS
   @DF-RKS iter   8:  -548.61043055990899   -2.37371e-08   3.07945e-07 DIIS
   @DF-RKS iter   9:  -548.61043056107758   -1.16859e-09   2.08986e-07 DIIS
   @DF-RKS iter  10:  -548.61043056165806   -5.80485e-10   3.50395e-08 DIIS
   @DF-RKS iter  11:  -548.61043056168478   -2.67164e-11   6.96910e-09 DIIS
  Energy and wave function converged.


  ==> Post-Iterations <==

    Orbital Energies [Eh]
    ---------------------

    Doubly Occupied:                                                      

       1Ap   -89.078250     2Ap   -19.275062     3Ap   -19.275048  
       4Ap    -8.213302     1App   -6.171650     5Ap    -6.167820  
       6Ap    -6.164295     7Ap    -1.282673     8Ap    -1.187238  
       9Ap    -0.763107    10Ap    -0.615461     2App   -0.615146  
      11Ap    -0.611691     3App   -0.485484    12Ap    -0.475315  
      13Ap    -0.445552  

    Virtual:                                                              

       4App   -0.044580    14Ap     0.052444    15Ap     0.060628  
      16Ap     0.063193     5App    0.067490    17Ap     0.123394  
      18Ap     0.133024    19Ap     0.142544     6App    0.150085  
      20Ap     0.158000     7App    0.168387    21Ap     0.170853  
      22Ap     0.201526     8App    0.214546    23Ap     0.234373  
      24Ap     0.265533     9App    0.271225    25Ap     0.283697  
      26Ap     0.299988    27Ap     0.305078    10App    0.327428  
      28Ap     0.364155    11App    0.430620    29Ap     0.442710  
      30Ap     0.443465    12App    0.450430    31Ap     0.460935  
      13App    0.484135    32Ap     0.493669    33Ap     0.543363  
      34Ap     0.563731    35Ap     0.574258    14App    0.584235  
      15App    0.585822    16App    0.596780    17App    0.622835  
      36Ap     0.626180    37Ap     0.636357    38Ap     0.649015  
      18App    0.654491    39Ap     0.681427    40Ap     0.708414  
      19App    0.738943    41Ap     0.762149    42Ap     0.768352  
      43Ap     0.783708    20App    0.858163    21App    0.861707  
      44Ap     0.883415    45Ap     0.973218    46Ap     1.010759  
      47Ap     1.044747    48Ap     1.105639    49Ap     1.119891  
      50Ap     1.137329    22App    1.137642    23App    1.218619  
      51Ap     1.232984    24App    1.256627    52Ap     1.278975  
      25App    1.289781    26App    1.313537    53Ap     1.331519  
      54Ap     1.341016    27App    1.345371    55Ap     1.387568  
      56Ap     1.393231    28App    1.400804    29App    1.423990  
      57Ap     1.435500    58Ap     1.446357    30App    1.481558  
      31App    1.517453    59Ap     1.524575    60Ap     1.541462  
      61Ap     1.554543    32App    1.581519    33App    1.600557  
      62Ap     1.609943    63Ap     1.629271    34App    1.686886  
      64Ap     1.693066    65Ap     1.701082    35App    1.708927  
      66Ap     1.723466    67Ap     1.840585    36App    1.927156  
      68Ap     1.935175    69Ap     1.976447    37App    1.979285  
      70Ap     2.063429    38App    2.118581    71Ap     2.125192  
      72Ap     2.135031    39App    2.145935    40App    2.153171  
      73Ap     2.159482    74Ap     2.162410    75Ap     2.227331  
      41App    2.246891    76Ap     2.445211    77Ap     2.615550  
      78Ap     2.636665    42App    2.735778    43App    2.750584  
      79Ap     2.836055    80Ap     3.035350    81Ap     3.051255  
      82Ap     3.197735    44App    3.219947    45App    3.225079  
      83Ap     3.239758    46App    3.247191    84Ap     3.305018  
      47App    3.306204    48App    3.314284    85Ap     3.358091  
      86Ap     3.362612    87Ap     3.391383    49App    3.459105  
      50App    3.459487    88Ap     3.472967    89Ap     3.524025  
      90Ap     3.547863    51App    3.558202    52App    3.579385  
      91Ap     3.639448    92Ap     3.639670    53App    3.677770  
      93Ap     3.740568    54App    3.777374    94Ap     3.850447  
      95Ap     3.879628    55App    3.889946    96Ap     3.892131  
      97Ap     3.919241    56App    3.935002    57App    3.950038  
      98Ap     3.989510    99Ap     3.994478    58App    4.006832  
     100Ap     4.032455   101Ap     4.098363   102Ap     4.103318  
      59App    4.119194    60App    4.144899    61App    4.264491  
     103Ap     4.306705    62App    4.327233   104Ap     4.350038  
     105Ap     4.364835    63App    4.372123   106Ap     4.415347  
     107Ap     4.524724   108Ap     4.541782   109Ap     4.590869  
      64App    4.614408   110Ap     4.644734    65App    4.773561  
     111Ap     4.776691   112Ap     4.889709    66App    4.910589  
      67App    4.946510    68App    5.060923   113Ap     5.096383  
      69App    5.190299   114Ap     5.225670   115Ap     5.315546  
     116Ap     5.399007    70App    5.560646   117Ap     5.683758  
     118Ap     5.710583   119Ap     6.076137   120Ap     6.141447  
      71App    6.486127   121Ap     7.358148   122Ap     8.173034  
      72App    8.817477   123Ap     8.834516    73App    9.002565  
     124Ap     9.176560   125Ap     9.886668    74App   10.213565  
     126Ap    10.225190    75App   10.231347   127Ap    10.245665  
     128Ap    10.315556    76App   10.380794    77App   10.388833  
     129Ap    10.391811    78App   10.491188    79App   10.501946  
     130Ap    10.519883    80App   10.528434    81App   10.538255  
     131Ap    10.539452    82App   10.548653   132Ap    10.549981  
     133Ap    10.618273    83App   10.631727   134Ap    10.651256  
     135Ap    10.692323   136Ap    10.706540   137Ap    11.040158  
     138Ap    11.281642   139Ap    11.322297    84App   11.421172  
     140Ap    11.426229   141Ap    11.427098    85App   11.434820  
      86App   11.584318   142Ap    11.608295    87App   11.655564  
     143Ap    11.706457    88App   12.068590   144Ap    12.106270  
      89App   12.115396   145Ap    12.203068   146Ap    12.331965  
     147Ap    12.394689    90App   12.416393    91App   12.494248  
     148Ap    12.591574    92App   12.753223    93App   12.756472  
     149Ap    12.829486   150Ap    12.860687   151Ap    12.892854  
     152Ap    13.445709   153Ap    13.721046   154Ap    23.617199  
     155Ap    41.757287   156Ap    42.058453  

    Final Occupation by Irrep:
             Ap   App 
    DOCC [    13,    3 ]

  @DF-RKS Final Energy:  -548.61043056168478

   => Energetics <=

    Nuclear Repulsion Energy =            107.8331232950405365
    One-Electron Energy =                -969.7371607434533871
    Two-Electron Energy =                 344.8452857546353698
    DFT Exchange-Correlation Energy =     -31.6842669699688742
    Empirical Dispersion Energy =           0.0000000000000000
    VV10 Nonlocal Energy =                  0.1325881020615417
    Total Energy =                       -548.6104305616848933

Computation Completed


Properties will be evaluated at   0.000000,   0.000000,   0.000000 [a0]

Properties computed using the SCF density matrix

  Nuclear Dipole Moment: [e a0]
     X:    -0.0000      Y:     0.0061      Z:     0.0000

  Electronic Dipole Moment: [e a0]
     X:    -0.0016      Y:     0.6753      Z:     0.0000

  Dipole Moment: [e a0]
     X:    -0.0016      Y:     0.6814      Z:     0.0000     Total:     0.6814

  Dipole Moment: [D]
     X:    -0.0041      Y:     1.7320      Z:     0.0000     Total:     1.7320


*** tstop() called on bp1-compute00154.data.bp.acrc.priv at Tue Apr 20 11:16:40 2021
Module time:
	user time   =     123.54 seconds =       2.06 minutes
	system time =       3.16 seconds =       0.05 minutes
	total time  =          5 seconds =       0.08 minutes
Total time:
	user time   =     638.86 seconds =      10.65 minutes
	system time =      21.22 seconds =       0.35 minutes
	total time  =         29 seconds =       0.48 minutes

  //>>>>>>>>>>>>>>>>>>>>>>>>>>>>>>>>>>>//
  //    Loading displacement 6 of 7    //
  //<<<<<<<<<<<<<<<<<<<<<<<<<<<<<<<<<<<//

*** tstart() called on bp1-compute00154.data.bp.acrc.priv
*** at Tue Apr 20 11:16:40 2021

   => Loading Basis Set <=

    Name: AUG-CC-PV(Q+D)Z
    Role: ORBITAL
    Keyword: BASIS
    atoms 1   entry S          line  1148 file /work/zw18965/.conda/envs/p4env/share/psi4/basis/aug-cc-pv_qpd_z.gbs 
    atoms 2-3 entry O          line   439 file /work/zw18965/.conda/envs/p4env/share/psi4/basis/aug-cc-pv_qpd_z.gbs 


         ---------------------------------------------------------
                                   SCF
               by Justin Turney, Rob Parrish, Andy Simmonett
                          and Daniel G. A. Smith
                              RKS Reference
                       24 Threads, 137329 MiB Core
         ---------------------------------------------------------

  ==> Geometry <==

    Molecular point group: cs
    Full point group: Cs

    Geometry (in Angstrom), charge = 0, multiplicity = 1:

       Center              X                  Y                   Z               Mass       
    ------------   -----------------  -----------------  -----------------  -----------------
         S           -0.000862983594     0.364869010877     0.000000000000    31.972071174400
         O            1.239839337205    -0.361736221946     0.000000000000    15.994914619570
         O           -1.238114328130    -0.367596710587     0.000000000000    15.994914619570

  Running in cs symmetry.

  Rotational constants: A =      1.98080  B =      0.34329  C =      0.29258 [cm^-1]
  Rotational constants: A =  59382.79064  B =  10291.44783  C =   8771.31786 [MHz]
  Nuclear repulsion =  107.886675441327014

  Charge       = 0
  Multiplicity = 1
  Electrons    = 32
  Nalpha       = 16
  Nbeta        = 16

  ==> Algorithm <==

  SCF Algorithm Type is DF.
  DIIS enabled.
  MOM disabled.
  Fractional occupation disabled.
  Guess Type is SAD.
  Energy threshold   = 1.00e-08
  Density threshold  = 1.00e-08
  Integral threshold = 0.00e+00

  ==> Primary Basis <==

  Basis Set: AUG-CC-PV(Q+D)Z
    Blend: AUG-CC-PV(Q+D)Z
    Number of shells: 63
    Number of basis function: 249
    Number of Cartesian functions: 325
    Spherical Harmonics?: true
    Max angular momentum: 4

  ==> DFT Potential <==

   => Composite Functional: WB97X-V <= 

    wB97X-V Hyb-GGA Exchange-Correlation Functional

    N. Mardirossian and M. Head-Gordon, Phys. Chem. Chem. Phys. 16, 9904 (2014)

    Deriv               =              1
    GGA                 =           TRUE
    Meta                =          FALSE

    Exchange Hybrid     =           TRUE
    MP2 Hybrid          =          FALSE

   => Exchange-Correlation Functionals <=

    1.0000   wB97X-V range-separated functional

   => Exact (HF) Exchange <=

    0.8330            HF,LR [omega = 0.3000]
    0.1670               HF 

   => VV10 Non-Local Parameters <=

    VV10 B              =     6.0000E+00
    VV10 C              =     1.0000E-02

   => Molecular Quadrature <=

    Radial Scheme          =       TREUTLER
    Pruning Scheme         =           FLAT
    Nuclear Scheme         =       TREUTLER

    BS radius alpha        =              1
    Pruning alpha          =              1
    Radial Points          =             75
    Spherical Points       =            302
    Total Points           =          67950
    Total Blocks           =            580
    Max Points             =            256
    Max Functions          =            249

   => Loading Basis Set <=

    Name: (AUG-CC-PV(Q+D)Z AUX)
    Role: JKFIT
    Keyword: DF_BASIS_SCF
    atoms 1   entry S          line   810 file /work/zw18965/.conda/envs/p4env/share/psi4/basis/aug-cc-pvqz-jkfit.gbs 
    atoms 2-3 entry O          line   318 file /work/zw18965/.conda/envs/p4env/share/psi4/basis/aug-cc-pvqz-jkfit.gbs 

  ==> Pre-Iterations <==

   -------------------------------------------------------
    Irrep   Nso     Nmo     Nalpha   Nbeta   Ndocc  Nsocc
   -------------------------------------------------------
     A'       156     156       0       0       0       0
     A"        93      93       0       0       0       0
   -------------------------------------------------------
    Total     249     249      16      16      16       0
   -------------------------------------------------------

  ==> Integral Setup <==

  ==> DiskDFJK: Density-Fitted J/K Matrices <==

    J tasked:                  Yes
    K tasked:                  Yes
    wK tasked:                 Yes
    Omega:               3.000E-01
    OpenMP threads:             24
    Integrals threads:          24
    Memory [MiB]:           102578
    Algorithm:                Core
    Integral Cache:           NONE
    Schwarz Cutoff:          1E-12
    Fitting Condition:       1E-10

   => Auxiliary Basis Set <=

  Basis Set: (AUG-CC-PV(Q+D)Z AUX)
    Blend: AUG-CC-PVQZ-JKFIT
    Number of shells: 114
    Number of basis function: 468
    Number of Cartesian functions: 643
    Spherical Harmonics?: true
    Max angular momentum: 5

  Cached 100.0% of DFT collocation blocks in 0.409 [GiB].

  Minimum eigenvalue in the overlap matrix is 8.9203177188E-05.
  Using Symmetric Orthogonalization.

  SCF Guess: Superposition of Atomic Densities via on-the-fly atomic UHF.

  ==> Iterations <==

                           Total Energy        Delta E     RMS |[F,P]|

   @DF-RKS iter SAD:  -548.37938676782142   -5.48379e+02   0.00000e+00 
   @DF-RKS iter   1:  -548.42137461928417   -4.19879e-02   4.01488e-03 DIIS
   @DF-RKS iter   2:  -548.30581976184362    1.15555e-01   5.25948e-03 DIIS
   @DF-RKS iter   3:  -548.60982663426114   -3.04007e-01   2.52460e-04 DIIS
   @DF-RKS iter   4:  -548.61041093426229   -5.84300e-04   4.74551e-05 DIIS
   @DF-RKS iter   5:  -548.61047219007435   -6.12558e-05   8.64669e-06 DIIS
   @DF-RKS iter   6:  -548.61047532050179   -3.13043e-06   2.44209e-06 DIIS
   @DF-RKS iter   7:  -548.61047561424516   -2.93743e-07   6.13527e-07 DIIS
   @DF-RKS iter   8:  -548.61047563838406   -2.41389e-08   2.25707e-07 DIIS
   @DF-RKS iter   9:  -548.61047563956856   -1.18450e-09   5.24210e-08 DIIS
   @DF-RKS iter  10:  -548.61047563962984   -6.12772e-11   3.17334e-08 DIIS
   @DF-RKS iter  11:  -548.61047563964075   -1.09139e-11   1.40451e-08 DIIS
   @DF-RKS iter  12:  -548.61047563964348   -2.72848e-12   1.29677e-09 DIIS
  Energy and wave function converged.


  ==> Post-Iterations <==

    Orbital Energies [Eh]
    ---------------------

    Doubly Occupied:                                                      

       1Ap   -89.078033     2Ap   -19.274985     3Ap   -19.274971  
       4Ap    -8.213126     1App   -6.171473     5Ap    -6.167642  
       6Ap    -6.164115     7Ap    -1.283042     8Ap    -1.187531  
       9Ap    -0.762909    10Ap    -0.615633     2App   -0.615360  
      11Ap    -0.611755     3App   -0.485656    12Ap    -0.475447  
      13Ap    -0.445509  

    Virtual:                                                              

       4App   -0.044318    14Ap     0.052461    15Ap     0.060657  
      16Ap     0.063218     5App    0.067493    17Ap     0.123479  
      18Ap     0.133063    19Ap     0.142525     6App    0.150058  
      20Ap     0.158193     7App    0.168388    21Ap     0.170941  
      22Ap     0.201518     8App    0.214563    23Ap     0.234391  
      24Ap     0.265603     9App    0.271318    25Ap     0.283831  
      26Ap     0.300061    27Ap     0.305186    10App    0.327410  
      28Ap     0.364152    11App    0.430647    29Ap     0.442746  
      30Ap     0.443598    12App    0.450500    31Ap     0.460944  
      13App    0.484208    32Ap     0.493708    33Ap     0.543378  
      34Ap     0.563790    35Ap     0.574440    14App    0.584238  
      15App    0.585888    16App    0.596937    17App    0.622874  
      36Ap     0.626267    37Ap     0.636447    38Ap     0.649049  
      18App    0.654568    39Ap     0.681594    40Ap     0.708348  
      19App    0.739021    41Ap     0.762234    42Ap     0.768595  
      43Ap     0.783800    20App    0.858023    21App    0.861625  
      44Ap     0.883288    45Ap     0.973524    46Ap     1.010865  
      47Ap     1.045244    48Ap     1.105713    49Ap     1.120010  
[...]
    Number of basis function: 249
    Number of Cartesian functions: 325
    Spherical Harmonics?: true
    Max angular momentum: 4

  ==> DFT Potential <==

   => Composite Functional: WB97X-V <= 

    wB97X-V Hyb-GGA Exchange-Correlation Functional

    N. Mardirossian and M. Head-Gordon, Phys. Chem. Chem. Phys. 16, 9904 (2014)

    Deriv               =              1
    GGA                 =           TRUE
    Meta                =          FALSE

    Exchange Hybrid     =           TRUE
    MP2 Hybrid          =          FALSE

   => Exchange-Correlation Functionals <=

    1.0000   wB97X-V range-separated functional

   => Exact (HF) Exchange <=

    0.8330            HF,LR [omega = 0.3000]
    0.1670               HF 

   => VV10 Non-Local Parameters <=

    VV10 B              =     6.0000E+00
    VV10 C              =     1.0000E-02

   => Molecular Quadrature <=

    Radial Scheme          =       TREUTLER
    Pruning Scheme         =           FLAT
    Nuclear Scheme         =       TREUTLER

    BS radius alpha        =              1
    Pruning alpha          =              1
    Radial Points          =             75
    Spherical Points       =            302
    Total Points           =          67950
    Total Blocks           =            582
    Max Points             =            256
    Max Functions          =            249

   => Loading Basis Set <=

    Name: (AUG-CC-PV(Q+D)Z AUX)
    Role: JKFIT
    Keyword: DF_BASIS_SCF
    atoms 1   entry S          line   810 file /work/zw18965/.conda/envs/p4env/share/psi4/basis/aug-cc-pvqz-jkfit.gbs 
    atoms 2-3 entry O          line   318 file /work/zw18965/.conda/envs/p4env/share/psi4/basis/aug-cc-pvqz-jkfit.gbs 

  ==> Pre-Iterations <==

   -------------------------------------------------------
    Irrep   Nso     Nmo     Nalpha   Nbeta   Ndocc  Nsocc
   -------------------------------------------------------
     A'       156     156       0       0       0       0
     A"        93      93       0       0       0       0
   -------------------------------------------------------
    Total     249     249      16      16      16       0
   -------------------------------------------------------

  ==> Integral Setup <==

  ==> DiskDFJK: Density-Fitted J/K Matrices <==

    J tasked:                  Yes
    K tasked:                  Yes
    wK tasked:                 Yes
    Omega:               3.000E-01
    OpenMP threads:             24
    Integrals threads:          24
    Memory [MiB]:           102577
    Algorithm:                Core
    Integral Cache:           NONE
    Schwarz Cutoff:          1E-12
    Fitting Condition:       1E-10

   => Auxiliary Basis Set <=

  Basis Set: (AUG-CC-PV(Q+D)Z AUX)
    Blend: AUG-CC-PVQZ-JKFIT
    Number of shells: 114
    Number of basis function: 468
    Number of Cartesian functions: 643
    Spherical Harmonics?: true
    Max angular momentum: 5

  Cached 100.0% of DFT collocation blocks in 0.409 [GiB].

  Minimum eigenvalue in the overlap matrix is 8.6564940220E-05.
  Using Symmetric Orthogonalization.

  SCF Guess: Superposition of Atomic Densities via on-the-fly atomic UHF.

  ==> Iterations <==

                           Total Energy        Delta E     RMS |[F,P]|

   @DF-RKS iter SAD:  -548.43290317528727   -5.48433e+02   0.00000e+00 
   @DF-RKS iter   1:  -548.42436547417981    8.53770e-03   4.00336e-03 DIIS
   @DF-RKS iter   2:  -548.32036284460628    1.04003e-01   5.15499e-03 DIIS
   @DF-RKS iter   3:  -548.61018363551034   -2.89821e-01   2.51678e-04 DIIS
   @DF-RKS iter   4:  -548.61076759592004   -5.83960e-04   4.67141e-05 DIIS
   @DF-RKS iter   5:  -548.61082749605259   -5.99001e-05   8.50979e-06 DIIS
   @DF-RKS iter   6:  -548.61083045599923   -2.95995e-06   2.49124e-06 DIIS
   @DF-RKS iter   7:  -548.61083074322539   -2.87226e-07   6.26170e-07 DIIS
   @DF-RKS iter   8:  -548.61083076679665   -2.35713e-08   2.64160e-07 DIIS
   @DF-RKS iter   9:  -548.61083076805721   -1.26056e-09   1.49965e-07 DIIS
   @DF-RKS iter  10:  -548.61083076833290   -2.75691e-10   5.53702e-08 DIIS
   @DF-RKS iter  11:  -548.61083076838156   -4.86580e-11   6.64683e-09 DIIS
   @DF-RKS iter  12:  -548.61083076838270   -1.13687e-12   1.16505e-09 DIIS
   @DF-RKS iter  13:  -548.61083076838293   -2.27374e-13   3.98167e-10 DIIS
   @DF-RKS iter  14:  -548.61083076838258    3.41061e-13   3.23922e-11 DIIS
  Energy and wave function converged.


  ==> Post-Iterations <==

    Orbital Energies [Eh]
    ---------------------

    Doubly Occupied:                                                      

       1Ap   -89.074289     2Ap   -19.273313     3Ap   -19.273299  
       4Ap    -8.210172     1App   -6.168504     5Ap    -6.164664  
       6Ap    -6.161074     7Ap    -1.289326     8Ap    -1.191941  
       9Ap    -0.759684     2App   -0.618936    10Ap    -0.618543  
      11Ap    -0.612495     3App   -0.488162    12Ap    -0.476958  
      13Ap    -0.445241  

    Virtual:                                                              

       4App   -0.040119    14Ap     0.052743    15Ap     0.061146  
      16Ap     0.063491     5App    0.067514    17Ap     0.125241  
      18Ap     0.133411    19Ap     0.142441     6App    0.149799  
      20Ap     0.160640     7App    0.168298    21Ap     0.172365  
      22Ap     0.201429     8App    0.215294    23Ap     0.235345  
      24Ap     0.267142     9App    0.272305    25Ap     0.285529  
      26Ap     0.300991    27Ap     0.307273    10App    0.327331  
      28Ap     0.364171    11App    0.431319    29Ap     0.443255  
      30Ap     0.446346    12App    0.451554    31Ap     0.461812  
      13App    0.485229    32Ap     0.494295    33Ap     0.544057  
      34Ap     0.564827    35Ap     0.577357    14App    0.585136  
      15App    0.586982    16App    0.599360    17App    0.623648  
      36Ap     0.627269    37Ap     0.638716    38Ap     0.649203  
      18App    0.655570    39Ap     0.683713    40Ap     0.707060  
      19App    0.738908    41Ap     0.763286    42Ap     0.772117  
      43Ap     0.785072    20App    0.855765    21App    0.860501  
      44Ap     0.880826    45Ap     0.977816    46Ap     1.012804  
      47Ap     1.054351    48Ap     1.108156    49Ap     1.121310  
      22App    1.138690    50Ap     1.139340    23App    1.218776  
      51Ap     1.233133    24App    1.257376    52Ap     1.279436  
      25App    1.290663    26App    1.315538    53Ap     1.331575  
      54Ap     1.344196    27App    1.348008    55Ap     1.390801  
      56Ap     1.398093    28App    1.402328    29App    1.426828  
      57Ap     1.440799    58Ap     1.446824    30App    1.487485  
      31App    1.518504    59Ap     1.527538    60Ap     1.545802  
      61Ap     1.558780    32App    1.585280    33App    1.601195  
      62Ap     1.614066    63Ap     1.630558    34App    1.693788  
      64Ap     1.698980    65Ap     1.701015    35App    1.714970  
      66Ap     1.729103    67Ap     1.836947    36App    1.932353  
      68Ap     1.944885    69Ap     1.975186    37App    1.987796  
      70Ap     2.071521    38App    2.108606    71Ap     2.130730  
      72Ap     2.134044    39App    2.148041    40App    2.157000  
      73Ap     2.160910    74Ap     2.170922    75Ap     2.221012  
      41App    2.251597    76Ap     2.457372    77Ap     2.615916  
      78Ap     2.648941    42App    2.740017    43App    2.755424  
      79Ap     2.842744    80Ap     3.043682    81Ap     3.062973  
      82Ap     3.203308    44App    3.225929    45App    3.233628  
      83Ap     3.237263    46App    3.246454    84Ap     3.309661  
      47App    3.313484    48App    3.319372    85Ap     3.367499  
      86Ap     3.372609    87Ap     3.407731    49App    3.458328  
      50App    3.470762    88Ap     3.473050    89Ap     3.525343  
      90Ap     3.549746    51App    3.561616    52App    3.584309  
      91Ap     3.648605    92Ap     3.654275    53App    3.687405  
      93Ap     3.753119    54App    3.783559    94Ap     3.852631  
      95Ap     3.866448    96Ap     3.896771    55App    3.898757  
      97Ap     3.918689    56App    3.934631    57App    3.950891  
      98Ap     3.990410    99Ap     4.002333    58App    4.014857  
     100Ap     4.039697   101Ap     4.106726   102Ap     4.107370  
      59App    4.128598    60App    4.154375    61App    4.274717  
     103Ap     4.321594    62App    4.342929   104Ap     4.362641  
      63App    4.380196   105Ap     4.381118   106Ap     4.432825  
     107Ap     4.546347   108Ap     4.565157   109Ap     4.607326  
      64App    4.632446   110Ap     4.638534    65App    4.789755  
     111Ap     4.805984   112Ap     4.903496    66App    4.923805  
      67App    4.970864    68App    5.065089   113Ap     5.105839  
      69App    5.220092   114Ap     5.262740   115Ap     5.370719  
     116Ap     5.412548    70App    5.571681   117Ap     5.714199  
     118Ap     5.723892   119Ap     6.090854   120Ap     6.160486  
      71App    6.522123   121Ap     7.401013   122Ap     8.211957  
      72App    8.827786   123Ap     8.844318    73App    9.018369  
     124Ap     9.190110   125Ap     9.925177    74App   10.212855  
     126Ap    10.224709    75App   10.233429   127Ap    10.246995  
     128Ap    10.322588    76App   10.382949   129Ap    10.396330  
      77App   10.398276    78App   10.496001    79App   10.502349  
     130Ap    10.513727    80App   10.533790   131Ap    10.546045  
      81App   10.546635   132Ap    10.552757    82App   10.561616  
     133Ap    10.629155    83App   10.641254   134Ap    10.656451  
     135Ap    10.704432   136Ap    10.714253   137Ap    11.075744  
     138Ap    11.285307   139Ap    11.322438    84App   11.422754  
     140Ap    11.427911   141Ap    11.428115    85App   11.435908  
      86App   11.592893   142Ap    11.611667    87App   11.665657  
     143Ap    11.724050    88App   12.091283   144Ap    12.110180  
      89App   12.142386   145Ap    12.208533   146Ap    12.366489  
     147Ap    12.407804    90App   12.427493    91App   12.507095  
     148Ap    12.606727    92App   12.754340    93App   12.756243  
     149Ap    12.836185   150Ap    12.861916   151Ap    12.894406  
     152Ap    13.488623   153Ap    13.805925   154Ap    23.878489  
     155Ap    41.824642   156Ap    42.130277  

    Final Occupation by Irrep:
             Ap   App 
    DOCC [    13,    3 ]

  @DF-RKS Final Energy:  -548.61083076838258

   => Energetics <=

    Nuclear Repulsion Energy =            108.8283265780583093
    One-Electron Energy =                -971.7184379177489291
    Two-Electron Energy =                 345.8483214477366801
    DFT Exchange-Correlation Energy =     -31.7015944684873219
    Empirical Dispersion Energy =           0.0000000000000000
    VV10 Nonlocal Energy =                  0.1325535920586698
    Total Energy =                       -548.6108307683825842

Computation Completed


Properties will be evaluated at   0.000000,   0.000000,   0.000000 [a0]

Properties computed using the SCF density matrix

  Nuclear Dipole Moment: [e a0]
     X:    -0.0000      Y:     0.0061      Z:     0.0000

  Electronic Dipole Moment: [e a0]
     X:    -0.0016      Y:     0.6589      Z:     0.0000

  Dipole Moment: [e a0]
     X:    -0.0016      Y:     0.6650      Z:     0.0000     Total:     0.6650

  Dipole Moment: [D]
     X:    -0.0040      Y:     1.6901      Z:     0.0000     Total:     1.6901


*** tstop() called on bp1-compute00154.data.bp.acrc.priv at Tue Apr 20 11:20:12 2021
Module time:
	user time   =     140.15 seconds =       2.34 minutes
	system time =       3.52 seconds =       0.06 minutes
	total time  =          6 seconds =       0.10 minutes
Total time:
	user time   =    5353.41 seconds =      89.22 minutes
	system time =     137.41 seconds =       2.29 minutes
	total time  =        241 seconds =       4.02 minutes

         ----------------------------------------------------------
                                   FINDIF
                     R. A. King and Jonathon Misiewicz
         ---------------------------------------------------------

  Computing second-derivative from energies using projected, 
  symmetry-adapted, cartesian coordinates.

  13 energies passed in, including the reference geometry.
    Using 3-point formula.
    Energy without displacement: -548.6108320960
    Check energies below for precision!
    0: -1        :      -548.6108311077
    0: 1         :      -548.6108311153
    1: -1        :      -548.6108319031
    1: 1         :      -548.6108315067
    2: -1        :      -548.6108315474
    2: 1         :      -548.6108317000
    0: 1, 1: 1   :      -548.6108305168
    0: -1, 1: -1 :      -548.6108309189
    0: 1, 2: 1   :      -548.6108307186
    0: -1, 2: -1 :      -548.6108305689
    1: 1, 2: 1   :      -548.6108305179
    1: -1, 2: -1 :      -548.6108307684

-------------------------------------------------------------


  ==> Harmonic Vibrational Analysis <==

  non-mass-weighted Hessian:       Symmetric? True   Hermitian? True   Lin Dep Dim?  6 (0)
  projection of translations (True) and rotations (True) removed 6 degrees of freedom (6)
  total projector:                 Symmetric? True   Hermitian? True   Lin Dep Dim?  6 (6)
  mass-weighted Hessian:           Symmetric? True   Hermitian? True   Lin Dep Dim?  6 (0)
  pre-proj  low-frequency mode:    0.0000i [cm^-1]
  pre-proj  low-frequency mode:    0.0000i [cm^-1]
  pre-proj  low-frequency mode:    0.0000  [cm^-1]
  pre-proj  low-frequency mode:    0.0000  [cm^-1]
  pre-proj  low-frequency mode:    0.0000  [cm^-1]
  pre-proj  low-frequency mode:    0.0000  [cm^-1]
  pre-proj  all modes:['0.0000i' '0.0000i' '0.0000' '0.0000' '0.0000' '0.0000' '532.6956'
 '1241.5920' '1442.6706']
  projected mass-weighted Hessian: Symmetric? True   Hermitian? True   Lin Dep Dim?  6 (6)
  post-proj low-frequency mode:    0.0000i [cm^-1] (TR)
  post-proj low-frequency mode:    0.0000i [cm^-1] (TR)
  post-proj low-frequency mode:    0.0000  [cm^-1] (TR)
  post-proj low-frequency mode:    0.0000  [cm^-1] (TR)
  post-proj low-frequency mode:    0.0000  [cm^-1] (TR)
  post-proj low-frequency mode:    0.0000  [cm^-1] (TR)
  post-proj  all modes:['0.0000i' '0.0000i' '0.0000' '0.0000' '0.0000' '0.0000' '532.6956'
 '1241.5920' '1442.6706']

  Vibration                       7                   8                   9           
  Freq [cm^-1]                 532.6956           1241.5920           1442.6706       
  Irrep                           Ap                  Ap                  Ap          
  Reduced mass [u]             18.6424             17.9299             20.3228        
  Force const [mDyne/A]         3.1168             16.2849             24.9211        
  Turning point v=0 [a0]        0.1101              0.0735              0.0641        
  RMS dev v=0 [a0 u^1/2]        0.3362              0.2202              0.2043        
  Char temp [K]                766.4303           1786.3745           2075.6818       
  ----------------------------------------------------------------------------------
      1   S               -0.00  0.41  0.00    0.00  0.35  0.00    0.52 -0.00 -0.00   
      2   O               -0.50 -0.41 -0.00    0.56 -0.34  0.00   -0.52  0.31  0.00   
      3   O                0.50 -0.41 -0.00   -0.57 -0.35 -0.00   -0.52 -0.31 -0.00   

  ==> Thermochemistry Components <==

  Entropy, S
    Electronic S            0.000 [cal/(mol K)]        0.000 [J/(mol K)]       0.00000000 [mEh/K] (multiplicity = 1)
    Translational S        38.386 [cal/(mol K)]      160.607 [J/(mol K)]       0.06117186 [mEh/K] (mol. weight = 63.9619 [u], P = 101325.00 [Pa])
    Rotational S           21.574 [cal/(mol K)]       90.264 [J/(mol K)]       0.03437970 [mEh/K] (symmetry no. = 1)
    Vibrational S           0.631 [cal/(mol K)]        2.640 [J/(mol K)]       0.00100561 [mEh/K]
  Total S                  60.591 [cal/(mol K)]      253.511 [J/(mol K)]       0.09655717 [mEh/K]
  Correction S              0.000 [cal/(mol K)]        0.000 [J/(mol K)]       0.00000000 [mEh/K]

  Constant volume heat capacity, Cv
    Electronic Cv           0.000 [cal/(mol K)]        0.000 [J/(mol K)]       0.00000000 [mEh/K]
    Translational Cv        2.981 [cal/(mol K)]       12.472 [J/(mol K)]       0.00475022 [mEh/K]
    Rotational Cv           2.981 [cal/(mol K)]       12.472 [J/(mol K)]       0.00475022 [mEh/K]
    Vibrational Cv          1.448 [cal/(mol K)]        6.060 [J/(mol K)]       0.00230805 [mEh/K]
  Total Cv                  7.410 [cal/(mol K)]       31.003 [J/(mol K)]       0.01180848 [mEh/K]
  Correction Cv             0.000 [cal/(mol K)]        0.000 [J/(mol K)]       0.00000000 [mEh/K]

  Constant pressure heat capacity, Cp
    Electronic Cp           0.000 [cal/(mol K)]        0.000 [J/(mol K)]       0.00000000 [mEh/K]
    Translational Cp        4.968 [cal/(mol K)]       20.786 [J/(mol K)]       0.00791703 [mEh/K]
    Rotational Cp           2.981 [cal/(mol K)]       12.472 [J/(mol K)]       0.00475022 [mEh/K]
    Vibrational Cp          1.448 [cal/(mol K)]        6.060 [J/(mol K)]       0.00230805 [mEh/K]
  Total Cp                  9.397 [cal/(mol K)]       39.318 [J/(mol K)]       0.01497529 [mEh/K]
  Correction Cp             0.000 [cal/(mol K)]        0.000 [J/(mol K)]       0.00000000 [mEh/K]

  ==> Thermochemistry Energy Analysis <==

  Raw electronic energy, E0
  Total E0, Electronic energy at well bottom at 0 [K]                 -548.61083210 [Eh]

  Zero-point energy, ZPE_vib = Sum_i nu_i / 2
    Electronic ZPE          0.000 [kcal/mol]        0.000 [kJ/mol]       0.00000000 [Eh]
    Translational ZPE       0.000 [kcal/mol]        0.000 [kJ/mol]       0.00000000 [Eh]
    Rotational ZPE          0.000 [kcal/mol]        0.000 [kJ/mol]       0.00000000 [Eh]
    Vibrational ZPE         4.599 [kcal/mol]       19.242 [kJ/mol]       0.00732877 [Eh]        1608.479 [cm^-1]
  Correction ZPE            4.599 [kcal/mol]       19.242 [kJ/mol]       0.00732877 [Eh]        1608.479 [cm^-1]
  Total ZPE, Electronic energy at 0 [K]                               -548.60350333 [Eh]

  Thermal Energy, E (includes ZPE)
    Electronic E            0.000 [kcal/mol]        0.000 [kJ/mol]       0.00000000 [Eh]
    Translational E         0.889 [kcal/mol]        3.718 [kJ/mol]       0.00141628 [Eh]
    Rotational E            0.889 [kcal/mol]        3.718 [kJ/mol]       0.00141628 [Eh]
    Vibrational E           4.738 [kcal/mol]       19.823 [kJ/mol]       0.00755020 [Eh]
  Correction E              6.515 [kcal/mol]       27.260 [kJ/mol]       0.01038276 [Eh]
  Total E, Electronic energy at  298.15 [K]                           -548.60044934 [Eh]

  Enthalpy, H_trans = E_trans + k_B * T
    Electronic H            0.000 [kcal/mol]        0.000 [kJ/mol]       0.00000000 [Eh]
    Translational H         1.481 [kcal/mol]        6.197 [kJ/mol]       0.00236046 [Eh]
    Rotational H            0.889 [kcal/mol]        3.718 [kJ/mol]       0.00141628 [Eh]
    Vibrational H           4.738 [kcal/mol]       19.823 [kJ/mol]       0.00755020 [Eh]
  Correction H              7.108 [kcal/mol]       29.739 [kJ/mol]       0.01132694 [Eh]
  Total H, Enthalpy at  298.15 [K]                                    -548.59950515 [Eh]

  Gibbs free energy, G = H - T * S
    Electronic G            0.000 [kcal/mol]        0.000 [kJ/mol]       0.00000000 [Eh]
    Translational G        -9.964 [kcal/mol]      -41.687 [kJ/mol]      -0.01587793 [Eh]
    Rotational G           -5.543 [kcal/mol]      -23.194 [kJ/mol]      -0.00883403 [Eh]
    Vibrational G           4.550 [kcal/mol]       19.036 [kJ/mol]       0.00725038 [Eh]
  Correction G            -10.957 [kcal/mol]      -45.845 [kJ/mol]      -0.01746158 [Eh]
  Total G, Free enthalpy at  298.15 [K]                               -548.62829367 [Eh]

    Psi4 stopped on: Tuesday, 20 April 2021 11:20AM
    Psi4 wall time for execution: 0:04:01.27

*** Psi4 exiting successfully. Buy a developer a beer!
