
    -----------------------------------------------------------------------
          Psi4: An Open-Source Ab Initio Electronic Structure Package
                               Psi4 1.3.2 release

                         Git: Rev {HEAD} ecbda83 


    R. M. Parrish, L. A. Burns, D. G. A. Smith, A. C. Simmonett,
    A. E. DePrince III, E. G. Hohenstein, U. Bozkaya, A. Yu. Sokolov,
    R. Di Remigio, R. M. Richard, J. F. Gonthier, A. M. James,
    H. R. McAlexander, A. Kumar, M. Saitow, X. Wang, B. P. Pritchard,
    P. Verma, H. F. Schaefer III, K. Patkowski, R. A. King, E. F. Valeev,
    F. A. Evangelista, J. M. Turney, T. D. Crawford, and C. D. Sherrill,
    J. Chem. Theory Comput. 13(7) pp 3185--3197 (2017).
    (doi: 10.1021/acs.jctc.7b00174)


                         Additional Contributions by
    P. Kraus, H. Kruse, M. H. Lechner, M. C. Schieber, R. A. Shaw,
    A. Alenaizan, R. Galvelis, Z. L. Glick, S. Lehtola, and J. P. Misiewicz

    -----------------------------------------------------------------------


    Psi4 started on: Tuesday, 27 April 2021 06:03PM

    Process ID: 214278
    Host:       bp1-compute00099.data.bp.acrc.priv
    PSIDATADIR: /work/zw18965/.conda/envs/p4env/share/psi4
    Memory:     500.0 MiB
    Threads:    24
    
  ==> Input File <==

--------------------------------------------------------------------------
memory 144 GB

molecule {
0 1
C 0.0000000000 0.0000000000 0.0000000000
C 0.0000000000 0.0000000000 1.3342000000
H 0.9234041342 0.0000000000 1.8987335198
H -0.9234041342 0.0000000000 1.8987335198
H 0.9234041342 0.0000000000 -0.5645335198
H -0.9234041342 -0.0000000000 -0.5645335198
}

set dynamic_level 1
set basis cc-pV(D+d)Z
 
optimize("wB97X-V")
frequencies("wB97X-V")
--------------------------------------------------------------------------

  Memory set to 134.110 GiB by Python driver.
gradient() will perform gradient computation by finite difference of analytic energies.

         ----------------------------------------------------------
                                   FINDIF
                     R. A. King and Jonathon Misiewicz
         ---------------------------------------------------------

  Using finite-differences of energies to determine gradients.
    Generating geometries for use with 3-point formula.
    Displacement size will be 5.00e-03.
    Number of atoms is 6.
    Number of symmetric SALCs is 3.
    Translations projected? 1. Rotations projected? 1.
    Number of geometries (including reference) is 7.

  //>>>>>>>>>>>>>>>>>>>>>>>>>>>>>>>>>>>//
  //    Loading displacement 1 of 7    //
  //<<<<<<<<<<<<<<<<<<<<<<<<<<<<<<<<<<<//

*** tstart() called on bp1-compute00099.data.bp.acrc.priv
*** at Tue Apr 27 18:03:20 2021

   => Loading Basis Set <=

    Name: CC-PV(D+D)Z
    Role: ORBITAL
    Keyword: BASIS
    atoms 1-2 entry C          line   147 file /work/zw18965/.conda/envs/p4env/share/psi4/basis/cc-pv_dpd_z.gbs 
    atoms 3-6 entry H          line    31 file /work/zw18965/.conda/envs/p4env/share/psi4/basis/cc-pv_dpd_z.gbs 


         ---------------------------------------------------------
                                   SCF
               by Justin Turney, Rob Parrish, Andy Simmonett
                          and Daniel G. A. Smith
                              RKS Reference
                       24 Threads, 137329 MiB Core
         ---------------------------------------------------------

  ==> Geometry <==

    Molecular point group: d2h
    Full point group: D2h

    Geometry (in Angstrom), charge = 0, multiplicity = 1:

       Center              X                  Y                   Z               Mass       
    ------------   -----------------  -----------------  -----------------  -----------------
         C            0.000000000000    -0.000000000000    -0.667100000000    12.000000000000
         C            0.000000000000    -0.000000000000     0.667100000000    12.000000000000
         H            0.923404134200     0.000000000000     1.231633519800     1.007825032230
         H           -0.923404134200    -0.000000000000     1.231633519800     1.007825032230
         H            0.923404134200     0.000000000000    -1.231633519800     1.007825032230
         H           -0.923404134200    -0.000000000000    -1.231633519800     1.007825032230

  Running in d2h symmetry.

  Rotational constants: A =      4.90420  B =      1.00369  C =      0.83317 [cm^-1]
  Rotational constants: A = 147024.06889  B =  30089.78152  C =  24977.84391 [MHz]
  Nuclear repulsion =   33.374685413937769

  Charge       = 0
  Multiplicity = 1
  Electrons    = 16
  Nalpha       = 8
  Nbeta        = 8

  ==> Algorithm <==

  SCF Algorithm Type is DF.
  DIIS enabled.
  MOM disabled.
  Fractional occupation disabled.
  Guess Type is SAD.
  Energy threshold   = 1.00e-08
  Density threshold  = 1.00e-08
  Integral threshold = 0.00e+00

  ==> Primary Basis <==

  Basis Set: CC-PV(D+D)Z
    Blend: CC-PV(D+D)Z
    Number of shells: 24
    Number of basis function: 48
    Number of Cartesian functions: 50
    Spherical Harmonics?: true
    Max angular momentum: 2

  ==> DFT Potential <==

   => Composite Functional: WB97X-V <= 

    wB97X-V Hyb-GGA Exchange-Correlation Functional

    N. Mardirossian and M. Head-Gordon, Phys. Chem. Chem. Phys. 16, 9904 (2014)

    Deriv               =              1
    GGA                 =           TRUE
    Meta                =          FALSE

    Exchange Hybrid     =           TRUE
    MP2 Hybrid          =          FALSE

   => Exchange-Correlation Functionals <=

    1.0000   wB97X-V range-separated functional

   => Exact (HF) Exchange <=

    0.8330            HF,LR [omega = 0.3000]
    0.1670               HF 

   => VV10 Non-Local Parameters <=

    VV10 B              =     6.0000E+00
    VV10 C              =     1.0000E-02

   => Molecular Quadrature <=

    Radial Scheme          =       TREUTLER
    Pruning Scheme         =           FLAT
    Nuclear Scheme         =       TREUTLER

    BS radius alpha        =              1
    Pruning alpha          =              1
    Radial Points          =             75
    Spherical Points       =            302
    Total Points           =         133224
    Total Blocks           =           1098
    Max Points             =            254
    Max Functions          =             48

   => Loading Basis Set <=

    Name: (CC-PV(D+D)Z AUX)
    Role: JKFIT
    Keyword: DF_BASIS_SCF
    atoms 1-2 entry C          line   121 file /work/zw18965/.conda/envs/p4env/share/psi4/basis/cc-pvdz-jkfit.gbs 
    atoms 3-6 entry H          line    51 file /work/zw18965/.conda/envs/p4env/share/psi4/basis/cc-pvdz-jkfit.gbs 

  ==> Pre-Iterations <==

   -------------------------------------------------------
    Irrep   Nso     Nmo     Nalpha   Nbeta   Ndocc  Nsocc
   -------------------------------------------------------
     Ag        11      11       0       0       0       0
     B1g        2       2       0       0       0       0
     B2g        7       7       0       0       0       0
     B3g        4       4       0       0       0       0
     Au         2       2       0       0       0       0
     B1u       11      11       0       0       0       0
     B2u        4       4       0       0       0       0
     B3u        7       7       0       0       0       0
   -------------------------------------------------------
    Total      48      48       8       8       8       0
   -------------------------------------------------------

  ==> Integral Setup <==

  ==> DiskDFJK: Density-Fitted J/K Matrices <==

    J tasked:                  Yes
    K tasked:                  Yes
    wK tasked:                 Yes
    Omega:               3.000E-01
    OpenMP threads:             24
    Integrals threads:          24
    Memory [MiB]:           102813
    Algorithm:                Core
    Integral Cache:           NONE
    Schwarz Cutoff:          1E-12
    Fitting Condition:       1E-10

   => Auxiliary Basis Set <=

  Basis Set: (CC-PV(D+D)Z AUX)
    Blend: CC-PVDZ-JKFIT
    Number of shells: 84
    Number of basis function: 232
    Number of Cartesian functions: 262
    Spherical Harmonics?: true
    Max angular momentum: 3

  Cached 100.0% of DFT collocation blocks in 0.179 [GiB].

  Minimum eigenvalue in the overlap matrix is 4.8189550156E-03.
  Using Symmetric Orthogonalization.

  SCF Guess: Superposition of Atomic Densities via on-the-fly atomic UHF.

  ==> Iterations <==

                           Total Energy        Delta E     RMS |[F,P]|

   @DF-RKS iter SAD:   -77.89776529113125   -7.78978e+01   0.00000e+00 
   @DF-RKS iter   1:   -78.47992719721407   -5.82162e-01   1.91568e-02 DIIS
   @DF-RKS iter   2:   -78.53369690763495   -5.37697e-02   1.16121e-02 DIIS
   @DF-RKS iter   3:   -78.56083472565322   -2.71378e-02   5.26436e-04 DIIS
   @DF-RKS iter   4:   -78.56095697690706   -1.22251e-04   5.41181e-05 DIIS
   @DF-RKS iter   5:   -78.56095808544551   -1.10854e-06   8.85240e-06 DIIS
   @DF-RKS iter   6:   -78.56095811929684   -3.38513e-08   1.05353e-06 DIIS
   @DF-RKS iter   7:   -78.56095811979459   -4.97749e-10   1.13379e-07 DIIS
   @DF-RKS iter   8:   -78.56095811979966   -5.07328e-12   1.09232e-08 DIIS
   @DF-RKS iter   9:   -78.56095811979976   -9.94760e-14   1.31315e-09 DIIS
  Energy and wave function converged.


  ==> Post-Iterations <==

    Orbital Energies [Eh]
    ---------------------

    Doubly Occupied:                                                      

       1Ag   -10.282573     1B1u  -10.281774     2Ag    -0.890898  
       2B1u   -0.699253     1B3u   -0.579895     3Ag    -0.523012  
       1B2g   -0.456780     1B2u   -0.372009  

    Virtual:                                                              

       1B3g    0.103537     4Ag     0.171837     2B3u    0.197158  
       3B1u    0.205906     2B2g    0.276897     4B1u    0.407657  
       5Ag     0.510456     3B3u    0.529133     2B2u    0.589724  
       6Ag     0.606787     5B1u    0.665065     2B3g    0.685571  
       4B3u    0.757724     3B2g    0.800627     6B1u    0.841638  
       7Ag     0.910430     1B1g    1.007383     3B2u    1.128866  
       7B1u    1.131493     4B2g    1.132672     1Au     1.159120  
       8Ag     1.451326     5B2g    1.585366     5B3u    1.599835  
       3B3g    1.663115     9Ag     1.700514     8B1u    1.700810  
       6B3u    1.752796     2B1g    1.816941     4B2u    1.818837  
       4B3g    2.049320     9B1u    2.060834     2Au     2.196663  
       6B2g    2.247142    10Ag     2.325575    10B1u    2.447620  
      11Ag     2.509657     7B3u    2.593371    11B1u    2.909040  
       7B2g    3.168136  

    Final Occupation by Irrep:
             Ag   B1g   B2g   B3g    Au   B1u   B2u   B3u 
    DOCC [     3,    0,    1,    0,    0,    2,    1,    1 ]

  @DF-RKS Final Energy:   -78.56095811979976

   => Energetics <=

    Nuclear Repulsion Energy =             33.3746854139377689
    One-Electron Energy =                -170.2362836954652039
    Two-Electron Energy =                  66.5412399433676001
    DFT Exchange-Correlation Energy =      -8.3056153982710583
    Empirical Dispersion Energy =           0.0000000000000000
    VV10 Nonlocal Energy =                  0.0650156166311437
    Total Energy =                        -78.5609581197997642

Computation Completed


Properties will be evaluated at   0.000000,   0.000000,   0.000000 [a0]

Properties computed using the SCF density matrix

  Nuclear Dipole Moment: [e a0]
     X:     0.0000      Y:     0.0000      Z:     0.0000

  Electronic Dipole Moment: [e a0]
     X:     0.0000      Y:     0.0000      Z:     0.0000

  Dipole Moment: [e a0]
     X:     0.0000      Y:     0.0000      Z:     0.0000     Total:     0.0000

  Dipole Moment: [D]
     X:     0.0000      Y:     0.0000      Z:     0.0000     Total:     0.0000


*** tstop() called on bp1-compute00099.data.bp.acrc.priv at Tue Apr 27 18:03:24 2021
Module time:
	user time   =      93.72 seconds =       1.56 minutes
	system time =       3.35 seconds =       0.06 minutes
	total time  =          4 seconds =       0.07 minutes
Total time:
	user time   =      93.72 seconds =       1.56 minutes
	system time =       3.35 seconds =       0.06 minutes
	total time  =          4 seconds =       0.07 minutes

  //>>>>>>>>>>>>>>>>>>>>>>>>>>>>>>>>>>>//
  //    Loading displacement 2 of 7    //
  //<<<<<<<<<<<<<<<<<<<<<<<<<<<<<<<<<<<//

*** tstart() called on bp1-compute00099.data.bp.acrc.priv
*** at Tue Apr 27 18:03:24 2021

   => Loading Basis Set <=

    Name: CC-PV(D+D)Z
    Role: ORBITAL
    Keyword: BASIS
    atoms 1-2 entry C          line   147 file /work/zw18965/.conda/envs/p4env/share/psi4/basis/cc-pv_dpd_z.gbs 
    atoms 3-6 entry H          line    31 file /work/zw18965/.conda/envs/p4env/share/psi4/basis/cc-pv_dpd_z.gbs 


         ---------------------------------------------------------
                                   SCF
               by Justin Turney, Rob Parrish, Andy Simmonett
                          and Daniel G. A. Smith
                              RKS Reference
                       24 Threads, 137329 MiB Core
         ---------------------------------------------------------

  ==> Geometry <==

    Molecular point group: d2h
    Full point group: D2h

    Geometry (in Angstrom), charge = 0, multiplicity = 1:

       Center              X                  Y                   Z               Mass       
    ------------   -----------------  -----------------  -----------------  -----------------
         C            0.000000000000    -0.000000000000    -0.667640089229    12.000000000000
         C            0.000000000000    -0.000000000000     0.667640089229    12.000000000000
         H            0.923404134200     0.000000000000     1.231633519800     1.007825032230
         H           -0.923404134200    -0.000000000000     1.231633519800     1.007825032230
         H            0.923404134200     0.000000000000    -1.231633519800     1.007825032230
         H           -0.923404134200    -0.000000000000    -1.231633519800     1.007825032230

  Running in d2h symmetry.

  Rotational constants: A =      4.90420  B =      1.00265  C =      0.83246 [cm^-1]
  Rotational constants: A = 147024.06889  B =  30058.81822  C =  24956.50389 [MHz]
  Nuclear repulsion =   33.364805451995331

  Charge       = 0
  Multiplicity = 1
  Electrons    = 16
  Nalpha       = 8
  Nbeta        = 8

  ==> Algorithm <==

  SCF Algorithm Type is DF.
  DIIS enabled.
  MOM disabled.
  Fractional occupation disabled.
  Guess Type is SAD.
  Energy threshold   = 1.00e-08
  Density threshold  = 1.00e-08
  Integral threshold = 0.00e+00

  ==> Primary Basis <==

  Basis Set: CC-PV(D+D)Z
    Blend: CC-PV(D+D)Z
    Number of shells: 24
    Number of basis function: 48
    Number of Cartesian functions: 50
    Spherical Harmonics?: true
    Max angular momentum: 2

  ==> DFT Potential <==

   => Composite Functional: WB97X-V <= 

    wB97X-V Hyb-GGA Exchange-Correlation Functional

    N. Mardirossian and M. Head-Gordon, Phys. Chem. Chem. Phys. 16, 9904 (2014)

    Deriv               =              1
    GGA                 =           TRUE
    Meta                =          FALSE

    Exchange Hybrid     =           TRUE
    MP2 Hybrid          =          FALSE

   => Exchange-Correlation Functionals <=

    1.0000   wB97X-V range-separated functional

   => Exact (HF) Exchange <=

    0.8330            HF,LR [omega = 0.3000]
    0.1670               HF 

   => VV10 Non-Local Parameters <=

    VV10 B              =     6.0000E+00
    VV10 C              =     1.0000E-02

   => Molecular Quadrature <=

    Radial Scheme          =       TREUTLER
    Pruning Scheme         =           FLAT
    Nuclear Scheme         =       TREUTLER

    BS radius alpha        =              1
    Pruning alpha          =              1
    Radial Points          =             75
    Spherical Points       =            302
    Total Points           =         133224
    Total Blocks           =           1098
    Max Points             =            254
    Max Functions          =             48

   => Loading Basis Set <=

    Name: (CC-PV(D+D)Z AUX)
    Role: JKFIT
    Keyword: DF_BASIS_SCF
    atoms 1-2 entry C          line   121 file /work/zw18965/.conda/envs/p4env/share/psi4/basis/cc-pvdz-jkfit.gbs 
    atoms 3-6 entry H          line    51 file /work/zw18965/.conda/envs/p4env/share/psi4/basis/cc-pvdz-jkfit.gbs 

  ==> Pre-Iterations <==

   -------------------------------------------------------
    Irrep   Nso     Nmo     Nalpha   Nbeta   Ndocc  Nsocc
   -------------------------------------------------------
     Ag        11      11       0       0       0       0
     B1g        2       2       0       0       0       0
     B2g        7       7       0       0       0       0
     B3g        4       4       0       0       0       0
     Au         2       2       0       0       0       0
     B1u       11      11       0       0       0       0
     B2u        4       4       0       0       0       0
     B3u        7       7       0       0       0       0
   -------------------------------------------------------
    Total      48      48       8       8       8       0
   -------------------------------------------------------

  ==> Integral Setup <==

  ==> DiskDFJK: Density-Fitted J/K Matrices <==

    J tasked:                  Yes
    K tasked:                  Yes
    wK tasked:                 Yes
    Omega:               3.000E-01
    OpenMP threads:             24
    Integrals threads:          24
    Memory [MiB]:           102813
    Algorithm:                Core
    Integral Cache:           NONE
    Schwarz Cutoff:          1E-12
    Fitting Condition:       1E-10

   => Auxiliary Basis Set <=

  Basis Set: (CC-PV(D+D)Z AUX)
    Blend: CC-PVDZ-JKFIT
    Number of shells: 84
    Number of basis function: 232
    Number of Cartesian functions: 262
    Spherical Harmonics?: true
    Max angular momentum: 3

  Cached 100.0% of DFT collocation blocks in 0.179 [GiB].

  Minimum eigenvalue in the overlap matrix is 4.8374601135E-03.
  Using Symmetric Orthogonalization.

  SCF Guess: Superposition of Atomic Densities via on-the-fly atomic UHF.

  ==> Iterations <==

                           Total Energy        Delta E     RMS |[F,P]|

   @DF-RKS iter SAD:   -77.89671764831810   -7.78967e+01   0.00000e+00 
   @DF-RKS iter   1:   -78.48009891795425   -5.83381e-01   1.91313e-02 DIIS
   @DF-RKS iter   2:   -78.53378303071943   -5.36841e-02   1.15884e-02 DIIS
   @DF-RKS iter   3:   -78.56080972153826   -2.70267e-02   5.26449e-04 DIIS
   @DF-RKS iter   4:   -78.56093197975285   -1.22258e-04   5.41585e-05 DIIS
   @DF-RKS iter   5:   -78.56093308790027   -1.10815e-06   8.86579e-06 DIIS
   @DF-RKS iter   6:   -78.56093312180886   -3.39086e-08   1.05246e-06 DIIS
   @DF-RKS iter   7:   -78.56093312230666   -4.97806e-10   1.13153e-07 DIIS
   @DF-RKS iter   8:   -78.56093312231170   -5.03064e-12   1.08557e-08 DIIS
   @DF-RKS iter   9:   -78.56093312231172   -2.84217e-14   1.30422e-09 DIIS
  Energy and wave function converged.


  ==> Post-Iterations <==

    Orbital Energies [Eh]
    ---------------------

    Doubly Occupied:                                                      

       1Ag   -10.282662     1B1u  -10.281870     2Ag    -0.890700  
       2B1u   -0.699391     1B3u   -0.579918     3Ag    -0.522817  
       1B2g   -0.457041     1B2u   -0.371807  

    Virtual:                                                              

       1B3g    0.103297     4Ag     0.171835     2B3u    0.197282  
       3B1u    0.205942     2B2g    0.276844     4B1u    0.407360  
       5Ag     0.510589     3B3u    0.529174     2B2u    0.589893  
       6Ag     0.606866     5B1u    0.664820     2B3g    0.685482  
       4B3u    0.757917     3B2g    0.800644     6B1u    0.841140  
       7Ag     0.910491     1B1g    1.007482     3B2u    1.128540  
       7B1u    1.131184     4B2g    1.132724     1Au     1.158971  
       8Ag     1.451734     5B2g    1.585085     5B3u    1.599663  
       3B3g    1.663047     9Ag     1.700163     8B1u    1.700597  
       6B3u    1.752842     2B1g    1.817425     4B2u    1.818645  
       4B3g    2.048688     9B1u    2.060279     2Au     2.196726  
       6B2g    2.247520    10Ag     2.325316    10B1u    2.446828  
      11Ag     2.510649     7B3u    2.593448    11B1u    2.909517  
       7B2g    3.167287  

    Final Occupation by Irrep:
             Ag   B1g   B2g   B3g    Au   B1u   B2u   B3u 
    DOCC [     3,    0,    1,    0,    0,    2,    1,    1 ]

  @DF-RKS Final Energy:   -78.56093312231172

   => Energetics <=

    Nuclear Repulsion Energy =             33.3648054519953305
    One-Electron Energy =                -170.2165934650180645
    Two-Electron Energy =                  66.5312149165695672
    DFT Exchange-Correlation Energy =      -8.3053762646710396
    Empirical Dispersion Energy =           0.0000000000000000
    VV10 Nonlocal Energy =                  0.0650162388124818
    Total Energy =                        -78.5609331223117380

Computation Completed


Properties will be evaluated at   0.000000,   0.000000,   0.000000 [a0]

Properties computed using the SCF density matrix

  Nuclear Dipole Moment: [e a0]
     X:     0.0000      Y:     0.0000      Z:    -0.0000

  Electronic Dipole Moment: [e a0]
     X:     0.0000      Y:     0.0000      Z:     0.0000

  Dipole Moment: [e a0]
     X:     0.0000      Y:     0.0000      Z:    -0.0000     Total:     0.0000

  Dipole Moment: [D]
     X:     0.0000      Y:     0.0000      Z:    -0.0000     Total:     0.0000


*** tstop() called on bp1-compute00099.data.bp.acrc.priv at Tue Apr 27 18:03:28 2021
Module time:
	user time   =      94.90 seconds =       1.58 minutes
	system time =       2.83 seconds =       0.05 minutes
	total time  =          4 seconds =       0.07 minutes
Total time:
	user time   =     188.80 seconds =       3.15 minutes
	system time =       6.19 seconds =       0.10 minutes
	total time  =          8 seconds =       0.13 minutes

  //>>>>>>>>>>>>>>>>>>>>>>>>>>>>>>>>>>>//
  //    Loading displacement 3 of 7    //
  //<<<<<<<<<<<<<<<<<<<<<<<<<<<<<<<<<<<//

*** tstart() called on bp1-compute00099.data.bp.acrc.priv
*** at Tue Apr 27 18:03:28 2021

   => Loading Basis Set <=

    Name: CC-PV(D+D)Z
    Role: ORBITAL
    Keyword: BASIS
    atoms 1-2 entry C          line   147 file /work/zw18965/.conda/envs/p4env/share/psi4/basis/cc-pv_dpd_z.gbs 
    atoms 3-6 entry H          line    31 file /work/zw18965/.conda/envs/p4env/share/psi4/basis/cc-pv_dpd_z.gbs 


         ---------------------------------------------------------
                                   SCF
               by Justin Turney, Rob Parrish, Andy Simmonett
                          and Daniel G. A. Smith
                              RKS Reference
                       24 Threads, 137329 MiB Core
         ---------------------------------------------------------

  ==> Geometry <==

    Molecular point group: d2h
    Full point group: D2h

    Geometry (in Angstrom), charge = 0, multiplicity = 1:

       Center              X                  Y                   Z               Mass       
    ------------   -----------------  -----------------  -----------------  -----------------
         C            0.000000000000    -0.000000000000    -0.666559910771    12.000000000000
         C            0.000000000000    -0.000000000000     0.666559910771    12.000000000000
         H            0.923404134200     0.000000000000     1.231633519800     1.007825032230
         H           -0.923404134200    -0.000000000000     1.231633519800     1.007825032230
         H            0.923404134200     0.000000000000    -1.231633519800     1.007825032230
         H           -0.923404134200    -0.000000000000    -1.231633519800     1.007825032230

  Running in d2h symmetry.

  Rotational constants: A =      4.90420  B =      1.00472  C =      0.83388 [cm^-1]
  Rotational constants: A = 147024.06889  B =  30120.78353  C =  24999.20315 [MHz]
  Nuclear repulsion =   33.384584118296033

  Charge       = 0
  Multiplicity = 1
  Electrons    = 16
  Nalpha       = 8
  Nbeta        = 8

  ==> Algorithm <==

  SCF Algorithm Type is DF.
  DIIS enabled.
  MOM disabled.
  Fractional occupation disabled.
  Guess Type is SAD.
  Energy threshold   = 1.00e-08
  Density threshold  = 1.00e-08
  Integral threshold = 0.00e+00

  ==> Primary Basis <==

  Basis Set: CC-PV(D+D)Z
    Blend: CC-PV(D+D)Z
    Number of shells: 24
    Number of basis function: 48
    Number of Cartesian functions: 50
    Spherical Harmonics?: true
    Max angular momentum: 2

  ==> DFT Potential <==

   => Composite Functional: WB97X-V <= 

    wB97X-V Hyb-GGA Exchange-Correlation Functional

    N. Mardirossian and M. Head-Gordon, Phys. Chem. Chem. Phys. 16, 9904 (2014)

    Deriv               =              1
    GGA                 =           TRUE
    Meta                =          FALSE

    Exchange Hybrid     =           TRUE
    MP2 Hybrid          =          FALSE

   => Exchange-Correlation Functionals <=

    1.0000   wB97X-V range-separated functional

   => Exact (HF) Exchange <=

    0.8330            HF,LR [omega = 0.3000]
    0.1670               HF 

   => VV10 Non-Local Parameters <=

    VV10 B              =     6.0000E+00
    VV10 C              =     1.0000E-02

   => Molecular Quadrature <=

    Radial Scheme          =       TREUTLER
    Pruning Scheme         =           FLAT
    Nuclear Scheme         =       TREUTLER

    BS radius alpha        =              1
    Pruning alpha          =              1
    Radial Points          =             75
    Spherical Points       =            302
    Total Points           =         133224
    Total Blocks           =           1098
    Max Points             =            254
    Max Functions          =             48

   => Loading Basis Set <=

    Name: (CC-PV(D+D)Z AUX)
    Role: JKFIT
    Keyword: DF_BASIS_SCF
    atoms 1-2 entry C          line   121 file /work/zw18965/.conda/envs/p4env/share/psi4/basis/cc-pvdz-jkfit.gbs 
    atoms 3-6 entry H          line    51 file /work/zw18965/.conda/envs/p4env/share/psi4/basis/cc-pvdz-jkfit.gbs 

  ==> Pre-Iterations <==

   -------------------------------------------------------
    Irrep   Nso     Nmo     Nalpha   Nbeta   Ndocc  Nsocc
   -------------------------------------------------------
     Ag        11      11       0       0       0       0
     B1g        2       2       0       0       0       0
     B2g        7       7       0       0       0       0
     B3g        4       4       0       0       0       0
     Au         2       2       0       0       0       0
     B1u       11      11       0       0       0       0
     B2u        4       4       0       0       0       0
     B3u        7       7       0       0       0       0
   -------------------------------------------------------
    Total      48      48       8       8       8       0
   -------------------------------------------------------

  ==> Integral Setup <==

  ==> DiskDFJK: Density-Fitted J/K Matrices <==

    J tasked:                  Yes
    K tasked:                  Yes
    wK tasked:                 Yes
    Omega:               3.000E-01
    OpenMP threads:             24
    Integrals threads:          24
    Memory [MiB]:           102813
    Algorithm:                Core
    Integral Cache:           NONE
    Schwarz Cutoff:          1E-12
    Fitting Condition:       1E-10

   => Auxiliary Basis Set <=

  Basis Set: (CC-PV(D+D)Z AUX)
    Blend: CC-PVDZ-JKFIT
    Number of shells: 84
    Number of basis function: 232
    Number of Cartesian functions: 262
    Spherical Harmonics?: true
    Max angular momentum: 3

  Cached 100.0% of DFT collocation blocks in 0.179 [GiB].

  Minimum eigenvalue in the overlap matrix is 4.8004910852E-03.
  Using Symmetric Orthogonalization.

  SCF Guess: Superposition of Atomic Densities via on-the-fly atomic UHF.

  ==> Iterations <==

                           Total Energy        Delta E     RMS |[F,P]|

   @DF-RKS iter SAD:   -77.89881303046650   -7.78988e+01   0.00000e+00 
   @DF-RKS iter   1:   -78.47975144491654   -5.80938e-01   1.91823e-02 DIIS
   @DF-RKS iter   2:   -78.53360703672190   -5.38556e-02   1.16359e-02 DIIS
   @DF-RKS iter   3:   -78.56085655887301   -2.72495e-02   5.26424e-04 DIIS
   @DF-RKS iter   4:   -78.56097880376308   -1.22245e-04   5.40791e-05 DIIS
   @DF-RKS iter   5:   -78.56097991275743   -1.10899e-06   8.83890e-06 DIIS
   @DF-RKS iter   6:   -78.56097994655151   -3.37941e-08   1.05457e-06 DIIS
   @DF-RKS iter   7:   -78.56097994704911   -4.97593e-10   1.13608e-07 DIIS
   @DF-RKS iter   8:   -78.56097994705424   -5.13012e-12   1.09917e-08 DIIS
   @DF-RKS iter   9:   -78.56097994705431   -7.10543e-14   1.32210e-09 DIIS
  Energy and wave function converged.


  ==> Post-Iterations <==

    Orbital Energies [Eh]
    ---------------------

    Doubly Occupied:                                                      

       1Ag   -10.282484     1B1u  -10.281678     2Ag    -0.891097  
       2B1u   -0.699114     1B3u   -0.579871     3Ag    -0.523207  
       1B2g   -0.456519     1B2u   -0.372211  

    Virtual:                                                              

       1B3g    0.103777     4Ag     0.171838     2B3u    0.197033  
       3B1u    0.205870     2B2g    0.276950     4B1u    0.407953  
       5Ag     0.510321     3B3u    0.529093     2B2u    0.589555  
       6Ag     0.606709     5B1u    0.665307     2B3g    0.685661  
       4B3u    0.757531     3B2g    0.800609     6B1u    0.842139  
       7Ag     0.910370     1B1g    1.007284     3B2u    1.129192  
       7B1u    1.131804     4B2g    1.132620     1Au     1.159269  
       8Ag     1.450918     5B2g    1.585646     5B3u    1.600008  
       3B3g    1.663182     9Ag     1.700862     8B1u    1.701024  
       6B3u    1.752751     2B1g    1.816458     4B2u    1.819030  
       4B3g    2.049952     9B1u    2.061390     2Au     2.196601  
       6B2g    2.246764    10Ag     2.325831    10B1u    2.448418  
      11Ag     2.508667     7B3u    2.593297    11B1u    2.908566  
       7B2g    3.168987  

    Final Occupation by Irrep:
             Ag   B1g   B2g   B3g    Au   B1u   B2u   B3u 
    DOCC [     3,    0,    1,    0,    0,    2,    1,    1 ]

  @DF-RKS Final Energy:   -78.56097994705431

   => Energetics <=

    Nuclear Repulsion Energy =             33.3845841182960328
    One-Electron Energy =                -170.2560037403585795
    Two-Electron Energy =                  66.5512802562322463
    DFT Exchange-Correlation Energy =      -8.3058555778878400
    Empirical Dispersion Energy =           0.0000000000000000
    VV10 Nonlocal Energy =                  0.0650149966638355
    Total Energy =                        -78.5609799470543066

Computation Completed


Properties will be evaluated at   0.000000,   0.000000,   0.000000 [a0]

Properties computed using the SCF density matrix

  Nuclear Dipole Moment: [e a0]
     X:     0.0000      Y:     0.0000      Z:     0.0000

  Electronic Dipole Moment: [e a0]
     X:     0.0000      Y:     0.0000      Z:     0.0000

  Dipole Moment: [e a0]
     X:     0.0000      Y:     0.0000      Z:     0.0000     Total:     0.0000

  Dipole Moment: [D]
     X:     0.0000      Y:     0.0000      Z:     0.0000     Total:     0.0000


*** tstop() called on bp1-compute00099.data.bp.acrc.priv at Tue Apr 27 18:03:32 2021
Module time:
	user time   =      93.83 seconds =       1.56 minutes
	system time =       2.32 seconds =       0.04 minutes
	total time  =          4 seconds =       0.07 minutes
Total time:
	user time   =     282.76 seconds =       4.71 minutes
	system time =       8.52 seconds =       0.14 minutes
	total time  =         12 seconds =       0.20 minutes

  //>>>>>>>>>>>>>>>>>>>>>>>>>>>>>>>>>>>//
  //    Loading displacement 4 of 7    //
  //<<<<<<<<<<<<<<<<<<<<<<<<<<<<<<<<<<<//

*** tstart() called on bp1-compute00099.data.bp.acrc.priv
*** at Tue Apr 27 18:03:32 2021

   => Loading Basis Set <=

    Name: CC-PV(D+D)Z
    Role: ORBITAL
    Keyword: BASIS
    atoms 1-2 entry C          line   147 file /work/zw18965/.conda/envs/p4env/share/psi4/basis/cc-pv_dpd_z.gbs 
    atoms 3-6 entry H          line    31 file /work/zw18965/.conda/envs/p4env/share/psi4/basis/cc-pv_dpd_z.gbs 


         ---------------------------------------------------------
                                   SCF
               by Justin Turney, Rob Parrish, Andy Simmonett
                          and Daniel G. A. Smith
                              RKS Reference
                       24 Threads, 137329 MiB Core
         ---------------------------------------------------------

  ==> Geometry <==

    Molecular point group: d2h
    Full point group: D2h

    Geometry (in Angstrom), charge = 0, multiplicity = 1:

       Center              X                  Y                   Z               Mass       
    ------------   -----------------  -----------------  -----------------  -----------------
         C            0.000000000000    -0.000000000000    -0.667100000000    12.000000000000
         C            0.000000000000    -0.000000000000     0.667100000000    12.000000000000
         H            0.922086337029     0.000000000000     1.231633519800     1.007825032230
         H           -0.922086337029    -0.000000000000     1.231633519800     1.007825032230
         H            0.922086337029     0.000000000000    -1.231633519800     1.007825032230
         H           -0.922086337029    -0.000000000000    -1.231633519800     1.007825032230

  Running in d2h symmetry.

  Rotational constants: A =      4.91822  B =      1.00369  C =      0.83358 [cm^-1]
  Rotational constants: A = 147444.60727  B =  30089.78152  C =  24989.95293 [MHz]
  Nuclear repulsion =   33.389522896215389

  Charge       = 0
  Multiplicity = 1
  Electrons    = 16
  Nalpha       = 8
  Nbeta        = 8

  ==> Algorithm <==

  SCF Algorithm Type is DF.
  DIIS enabled.
  MOM disabled.
  Fractional occupation disabled.
  Guess Type is SAD.
  Energy threshold   = 1.00e-08
  Density threshold  = 1.00e-08
  Integral threshold = 0.00e+00

  ==> Primary Basis <==

  Basis Set: CC-PV(D+D)Z
    Blend: CC-PV(D+D)Z
    Number of shells: 24
    Number of basis function: 48
    Number of Cartesian functions: 50
    Spherical Harmonics?: true
    Max angular momentum: 2

  ==> DFT Potential <==

   => Composite Functional: WB97X-V <= 

    wB97X-V Hyb-GGA Exchange-Correlation Functional

    N. Mardirossian and M. Head-Gordon, Phys. Chem. Chem. Phys. 16, 9904 (2014)

    Deriv               =              1
    GGA                 =           TRUE
    Meta                =          FALSE

    Exchange Hybrid     =           TRUE
    MP2 Hybrid          =          FALSE

   => Exchange-Correlation Functionals <=

    1.0000   wB97X-V range-separated functional

   => Exact (HF) Exchange <=

    0.8330            HF,LR [omega = 0.3000]
    0.1670               HF 

   => VV10 Non-Local Parameters <=

    VV10 B              =     6.0000E+00
    VV10 C              =     1.0000E-02

   => Molecular Quadrature <=

    Radial Scheme          =       TREUTLER
    Pruning Scheme         =           FLAT
    Nuclear Scheme         =       TREUTLER

    BS radius alpha        =              1
    Pruning alpha          =              1
    Radial Points          =             75
    Spherical Points       =            302
    Total Points           =         133224
    Total Blocks           =           1098
    Max Points             =            255
    Max Functions          =             48

   => Loading Basis Set <=

    Name: (CC-PV(D+D)Z AUX)
    Role: JKFIT
    Keyword: DF_BASIS_SCF
    atoms 1-2 entry C          line   121 file /work/zw18965/.conda/envs/p4env/share/psi4/basis/cc-pvdz-jkfit.gbs 
    atoms 3-6 entry H          line    51 file /work/zw18965/.conda/envs/p4env/share/psi4/basis/cc-pvdz-jkfit.gbs 

  ==> Pre-Iterations <==

   -------------------------------------------------------
    Irrep   Nso     Nmo     Nalpha   Nbeta   Ndocc  Nsocc
   -------------------------------------------------------
     Ag        11      11       0       0       0       0
     B1g        2       2       0       0       0       0
     B2g        7       7       0       0       0       0
     B3g        4       4       0       0       0       0
     Au         2       2       0       0       0       0
     B1u       11      11       0       0       0       0
     B2u        4       4       0       0       0       0
     B3u        7       7       0       0       0       0
   -------------------------------------------------------
    Total      48      48       8       8       8       0
   -------------------------------------------------------

  ==> Integral Setup <==

  ==> DiskDFJK: Density-Fitted J/K Matrices <==

    J tasked:                  Yes
    K tasked:                  Yes
    wK tasked:                 Yes
    Omega:               3.000E-01
    OpenMP threads:             24
    Integrals threads:          24
    Memory [MiB]:           102813
    Algorithm:                Core
    Integral Cache:           NONE
    Schwarz Cutoff:          1E-12
    Fitting Condition:       1E-10

   => Auxiliary Basis Set <=

  Basis Set: (CC-PV(D+D)Z AUX)
    Blend: CC-PVDZ-JKFIT
    Number of shells: 84
    Number of basis function: 232
    Number of Cartesian functions: 262
    Spherical Harmonics?: true
    Max angular momentum: 3

  Cached 100.0% of DFT collocation blocks in 0.179 [GiB].

  Minimum eigenvalue in the overlap matrix is 4.8196197273E-03.
  Using Symmetric Orthogonalization.

  SCF Guess: Superposition of Atomic Densities via on-the-fly atomic UHF.

  ==> Iterations <==

                           Total Energy        Delta E     RMS |[F,P]|

   @DF-RKS iter SAD:   -77.89925926073336   -7.78993e+01   0.00000e+00 
   @DF-RKS iter   1:   -78.47983286425367   -5.80574e-01   1.91617e-02 DIIS
   @DF-RKS iter   2:   -78.53366213671565   -5.38293e-02   1.16053e-02 DIIS
   @DF-RKS iter   3:   -78.56075331076806   -2.70912e-02   5.26592e-04 DIIS
   @DF-RKS iter   4:   -78.56087557310560   -1.22262e-04   5.42995e-05 DIIS
   @DF-RKS iter   5:   -78.56087668563140   -1.11253e-06   8.87681e-06 DIIS
   @DF-RKS iter   6:   -78.56087671962844   -3.39970e-08   1.05496e-06 DIIS
   @DF-RKS iter   7:   -78.56087672012798   -4.99540e-10   1.13213e-07 DIIS
   @DF-RKS iter   8:   -78.56087672013308   -5.10170e-12   1.08921e-08 DIIS
   @DF-RKS iter   9:   -78.56087672013314   -5.68434e-14   1.31025e-09 DIIS
  Energy and wave function converged.


  ==> Post-Iterations <==

    Orbital Energies [Eh]
    ---------------------

    Doubly Occupied:                                                      

       1Ag   -10.282349     1B1u  -10.281550     2Ag    -0.890991  
       2B1u   -0.699671     1B3u   -0.580018     3Ag    -0.523270  
       1B2g   -0.456940     1B2u   -0.371990  

    Virtual:                                                              

       1B3g    0.103519     4Ag     0.172039     2B3u    0.197419  
       3B1u    0.206073     2B2g    0.276983     4B1u    0.407888  
       5Ag     0.510565     3B3u    0.529036     2B2u    0.589759  
       6Ag     0.607397     5B1u    0.665562     2B3g    0.685598  
       4B3u    0.757992     3B2g    0.801227     6B1u    0.841947  
       7Ag     0.910805     1B1g    1.007615     3B2u    1.128745  
       7B1u    1.131315     4B2g    1.132120     1Au     1.159406  
       8Ag     1.452003     5B2g    1.587301     5B3u    1.601348  
       3B3g    1.663438     9Ag     1.699953     8B1u    1.701576  
       6B3u    1.753168     2B1g    1.817221     4B2u    1.820036  
       4B3g    2.050270     9B1u    2.061311     2Au     2.197491  
       6B2g    2.248866    10Ag     2.328043    10B1u    2.450500  
      11Ag     2.512077     7B3u    2.595979    11B1u    2.910649  
       7B2g    3.171526  

    Final Occupation by Irrep:
             Ag   B1g   B2g   B3g    Au   B1u   B2u   B3u 
    DOCC [     3,    0,    1,    0,    0,    2,    1,    1 ]

  @DF-RKS Final Energy:   -78.56087672013314

   => Energetics <=

    Nuclear Repulsion Energy =             33.3895228962153894
    One-Electron Energy =                -170.2638179532745824
    Two-Electron Energy =                  66.5552605944571098
    DFT Exchange-Correlation Energy =      -8.3068607369375993
    Empirical Dispersion Energy =           0.0000000000000000
    VV10 Nonlocal Energy =                  0.0650184794065225
    Total Energy =                        -78.5608767201331517

Computation Completed


Properties will be evaluated at   0.000000,   0.000000,   0.000000 [a0]

Properties computed using the SCF density matrix

  Nuclear Dipole Moment: [e a0]
     X:     0.0000      Y:     0.0000      Z:     0.0000

  Electronic Dipole Moment: [e a0]
     X:     0.0000      Y:     0.0000      Z:     0.0000

  Dipole Moment: [e a0]
     X:     0.0000      Y:     0.0000      Z:     0.0000     Total:     0.0000

  Dipole Moment: [D]
     X:     0.0000      Y:     0.0000      Z:     0.0000     Total:     0.0000


*** tstop() called on bp1-compute00099.data.bp.acrc.priv at Tue Apr 27 18:03:36 2021
Module time:
	user time   =      91.57 seconds =       1.53 minutes
	system time =       2.27 seconds =       0.04 minutes
	total time  =          4 seconds =       0.07 minutes
Total time:
	user time   =     374.46 seconds =       6.24 minutes
	system time =      10.80 seconds =       0.18 minutes
	total time  =         16 seconds =       0.27 minutes

  //>>>>>>>>>>>>>>>>>>>>>>>>>>>>>>>>>>>//
  //    Loading displacement 5 of 7    //
  //<<<<<<<<<<<<<<<<<<<<<<<<<<<<<<<<<<<//

*** tstart() called on bp1-compute00099.data.bp.acrc.priv
*** at Tue Apr 27 18:03:36 2021

   => Loading Basis Set <=

    Name: CC-PV(D+D)Z
    Role: ORBITAL
    Keyword: BASIS
    atoms 1-2 entry C          line   147 file /work/zw18965/.conda/envs/p4env/share/psi4/basis/cc-pv_dpd_z.gbs 
    atoms 3-6 entry H          line    31 file /work/zw18965/.conda/envs/p4env/share/psi4/basis/cc-pv_dpd_z.gbs 


         ---------------------------------------------------------
                                   SCF
               by Justin Turney, Rob Parrish, Andy Simmonett
                          and Daniel G. A. Smith
                              RKS Reference
                       24 Threads, 137329 MiB Core
         ---------------------------------------------------------

  ==> Geometry <==

    Molecular point group: d2h
    Full point group: D2h

    Geometry (in Angstrom), charge = 0, multiplicity = 1:

       Center              X                  Y                   Z               Mass       
    ------------   -----------------  -----------------  -----------------  -----------------
         C            0.000000000000     0.000000000000    -0.667100000000    12.000000000000
         C            0.000000000000     0.000000000000     0.667100000000    12.000000000000
         H            0.924721931371     0.000000000000     1.231633519800     1.007825032230
         H           -0.924721931371    -0.000000000000     1.231633519800     1.007825032230
         H            0.924721931371     0.000000000000    -1.231633519800     1.007825032230
         H           -0.924721931371    -0.000000000000    -1.231633519800     1.007825032230

  Running in d2h symmetry.

  Rotational constants: A =      4.89023  B =      1.00369  C =      0.83277 [cm^-1]
  Rotational constants: A = 146605.32712  B =  30089.78152  C =  24965.72936 [MHz]
  Nuclear repulsion =   33.359869881244570

  Charge       = 0
  Multiplicity = 1
  Electrons    = 16
  Nalpha       = 8
  Nbeta        = 8

  ==> Algorithm <==

  SCF Algorithm Type is DF.
  DIIS enabled.
  MOM disabled.
  Fractional occupation disabled.
  Guess Type is SAD.
  Energy threshold   = 1.00e-08
  Density threshold  = 1.00e-08
  Integral threshold = 0.00e+00

  ==> Primary Basis <==

  Basis Set: CC-PV(D+D)Z
    Blend: CC-PV(D+D)Z
    Number of shells: 24
    Number of basis function: 48
    Number of Cartesian functions: 50
    Spherical Harmonics?: true
    Max angular momentum: 2

  ==> DFT Potential <==

   => Composite Functional: WB97X-V <= 

    wB97X-V Hyb-GGA Exchange-Correlation Functional

    N. Mardirossian and M. Head-Gordon, Phys. Chem. Chem. Phys. 16, 9904 (2014)

    Deriv               =              1
    GGA                 =           TRUE
    Meta                =          FALSE

    Exchange Hybrid     =           TRUE
    MP2 Hybrid          =          FALSE

   => Exchange-Correlation Functionals <=

    1.0000   wB97X-V range-separated functional

   => Exact (HF) Exchange <=

    0.8330            HF,LR [omega = 0.3000]
    0.1670               HF 

   => VV10 Non-Local Parameters <=

    VV10 B              =     6.0000E+00
    VV10 C              =     1.0000E-02

   => Molecular Quadrature <=

    Radial Scheme          =       TREUTLER
    Pruning Scheme         =           FLAT
    Nuclear Scheme         =       TREUTLER

    BS radius alpha        =              1
    Pruning alpha          =              1
    Radial Points          =             75
    Spherical Points       =            302
    Total Points           =         133224
    Total Blocks           =           1084
    Max Points             =            254
    Max Functions          =             48

   => Loading Basis Set <=

    Name: (CC-PV(D+D)Z AUX)
    Role: JKFIT
    Keyword: DF_BASIS_SCF
    atoms 1-2 entry C          line   121 file /work/zw18965/.conda/envs/p4env/share/psi4/basis/cc-pvdz-jkfit.gbs 
    atoms 3-6 entry H          line    51 file /work/zw18965/.conda/envs/p4env/share/psi4/basis/cc-pvdz-jkfit.gbs 

  ==> Pre-Iterations <==

   -------------------------------------------------------
    Irrep   Nso     Nmo     Nalpha   Nbeta   Ndocc  Nsocc
   -------------------------------------------------------
     Ag        11      11       0       0       0       0
     B1g        2       2       0       0       0       0
     B2g        7       7       0       0       0       0
     B3g        4       4       0       0       0       0
     Au         2       2       0       0       0       0
     B1u       11      11       0       0       0       0
     B2u        4       4       0       0       0       0
     B3u        7       7       0       0       0       0
   -------------------------------------------------------
    Total      48      48       8       8       8       0
   -------------------------------------------------------

  ==> Integral Setup <==

  ==> DiskDFJK: Density-Fitted J/K Matrices <==

    J tasked:                  Yes
    K tasked:                  Yes
    wK tasked:                 Yes
    Omega:               3.000E-01
    OpenMP threads:             24
    Integrals threads:          24
    Memory [MiB]:           102813
    Algorithm:                Core
    Integral Cache:           NONE
    Schwarz Cutoff:          1E-12
    Fitting Condition:       1E-10

   => Auxiliary Basis Set <=

  Basis Set: (CC-PV(D+D)Z AUX)
    Blend: CC-PVDZ-JKFIT
    Number of shells: 84
    Number of basis function: 232
    Number of Cartesian functions: 262
    Spherical Harmonics?: true
    Max angular momentum: 3

  Cached 100.0% of DFT collocation blocks in 0.179 [GiB].

  Minimum eigenvalue in the overlap matrix is 4.8183011929E-03.
  Using Symmetric Orthogonalization.

  SCF Guess: Superposition of Atomic Densities via on-the-fly atomic UHF.

  ==> Iterations <==

                           Total Energy        Delta E     RMS |[F,P]|

   @DF-RKS iter SAD:   -77.89626703403694   -7.78963e+01   0.00000e+00 
   @DF-RKS iter   1:   -78.48001338594841   -5.83746e-01   1.91518e-02 DIIS
   @DF-RKS iter   2:   -78.53372369548995   -5.37103e-02   1.16190e-02 DIIS
   @DF-RKS iter   3:   -78.56090835864126   -2.71847e-02   5.26283e-04 DIIS
   @DF-RKS iter   4:   -78.56103059981031   -1.22241e-04   5.39398e-05 DIIS
   @DF-RKS iter   5:   -78.56103170448806   -1.10468e-06   8.82753e-06 DIIS
   @DF-RKS iter   6:   -78.56103173819155   -3.37035e-08   1.05204e-06 DIIS
   @DF-RKS iter   7:   -78.56103173868736   -4.95817e-10   1.13547e-07 DIIS
   @DF-RKS iter   8:   -78.56103173869245   -5.08749e-12   1.09548e-08 DIIS
   @DF-RKS iter   9:   -78.56103173869253   -8.52651e-14   1.31608e-09 DIIS
  Energy and wave function converged.


  ==> Post-Iterations <==

    Orbital Energies [Eh]
    ---------------------

    Doubly Occupied:                                                      

       1Ag   -10.282797     1B1u  -10.281998     2Ag    -0.890805  
       2B1u   -0.698835     1B3u   -0.579771     3Ag    -0.522755  
       1B2g   -0.456619     1B2u   -0.372027  

    Virtual:                                                              

       1B3g    0.103556     4Ag     0.171633     2B3u    0.196896  
       3B1u    0.205738     2B2g    0.276811     4B1u    0.407425  
       5Ag     0.510347     3B3u    0.529230     2B2u    0.589689  
       6Ag     0.606179     5B1u    0.664568     2B3g    0.685545  
       4B3u    0.757457     3B2g    0.800026     6B1u    0.841331  
       7Ag     0.910057     1B1g    1.007152     3B2u    1.128987  
       7B1u    1.131671     4B2g    1.133224     1Au     1.158836  
       8Ag     1.450650     5B2g    1.583436     5B3u    1.598327  
       3B3g    1.662790     8B1u    1.700043     9Ag     1.701072  
       6B3u    1.752425     2B1g    1.816660     4B2u    1.817641  
       4B3g    2.048375     9B1u    2.060355     2Au     2.195833  
       6B2g    2.245419    10Ag     2.323107    10B1u    2.444751  
      11Ag     2.507253     7B3u    2.590775    11B1u    2.907440  
       7B2g    3.164758  

    Final Occupation by Irrep:
             Ag   B1g   B2g   B3g    Au   B1u   B2u   B3u 
    DOCC [     3,    0,    1,    0,    0,    2,    1,    1 ]

  @DF-RKS Final Energy:   -78.56103173869253

   => Energetics <=

    Nuclear Repulsion Energy =             33.3598698812445704
    One-Electron Energy =                -170.2087747685245631
    Two-Electron Energy =                  66.5272320517812688
    DFT Exchange-Correlation Energy =      -8.3043716588004557
    Empirical Dispersion Energy =           0.0000000000000000
    VV10 Nonlocal Energy =                  0.0650127556066466
    Total Energy =                        -78.5610317386925345

Computation Completed


Properties will be evaluated at   0.000000,   0.000000,   0.000000 [a0]

Properties computed using the SCF density matrix

  Nuclear Dipole Moment: [e a0]
     X:     0.0000      Y:     0.0000      Z:     0.0000

  Electronic Dipole Moment: [e a0]
     X:     0.0000      Y:     0.0000      Z:     0.0000

  Dipole Moment: [e a0]
     X:     0.0000      Y:     0.0000      Z:     0.0000     Total:     0.0000

  Dipole Moment: [D]
     X:     0.0000      Y:     0.0000      Z:     0.0000     Total:     0.0000


*** tstop() called on bp1-compute00099.data.bp.acrc.priv at Tue Apr 27 18:03:40 2021
Module time:
	user time   =      91.59 seconds =       1.53 minutes
	system time =       2.21 seconds =       0.04 minutes
	total time  =          4 seconds =       0.07 minutes
Total time:
	user time   =     466.19 seconds =       7.77 minutes
	system time =      13.02 seconds =       0.22 minutes
	total time  =         20 seconds =       0.33 minutes

  //>>>>>>>>>>>>>>>>>>>>>>>>>>>>>>>>>>>//
  //    Loading displacement 6 of 7    //
  //<<<<<<<<<<<<<<<<<<<<<<<<<<<<<<<<<<<//

*** tstart() called on bp1-compute00099.data.bp.acrc.priv
*** at Tue Apr 27 18:03:40 2021

   => Loading Basis Set <=

    Name: CC-PV(D+D)Z
    Role: ORBITAL
    Keyword: BASIS
    atoms 1-2 entry C          line   147 file /work/zw18965/.conda/envs/p4env/share/psi4/basis/cc-pv_dpd_z.gbs 
    atoms 3-6 entry H          line    31 file /work/zw18965/.conda/envs/p4env/share/psi4/basis/cc-pv_dpd_z.gbs 


         ---------------------------------------------------------
                                   SCF
               by Justin Turney, Rob Parrish, Andy Simmonett
                          and Daniel G. A. Smith
                              RKS Reference
                       24 Threads, 137329 MiB Core
         ---------------------------------------------------------

  ==> Geometry <==

    Molecular point group: d2h
    Full point group: D2h

    Geometry (in Angstrom), charge = 0, multiplicity = 1:

       Center              X                  Y                   Z               Mass       
    ------------   -----------------  -----------------  -----------------  -----------------
         C            0.000000000000    -0.000000000000    -0.667100000000    12.000000000000
         C            0.000000000000    -0.000000000000     0.667100000000    12.000000000000
         H            0.923404134200     0.000000000000     1.230315722629     1.007825032230
         H           -0.923404134200    -0.000000000000     1.230315722629     1.007825032230
         H            0.923404134200     0.000000000000    -1.230315722629     1.007825032230
         H           -0.923404134200    -0.000000000000    -1.230315722629     1.007825032230

  Running in d2h symmetry.

  Rotational constants: A =      4.90420  B =      1.00447  C =      0.83371 [cm^-1]
  Rotational constants: A = 147024.06889  B =  30113.23093  C =  24994.00038 [MHz]
  Nuclear repulsion =   33.386210109592625

  Charge       = 0
  Multiplicity = 1
  Electrons    = 16
  Nalpha       = 8
  Nbeta        = 8

  ==> Algorithm <==

  SCF Algorithm Type is DF.
  DIIS enabled.
  MOM disabled.
  Fractional occupation disabled.
  Guess Type is SAD.
  Energy threshold   = 1.00e-08
  Density threshold  = 1.00e-08
  Integral threshold = 0.00e+00

  ==> Primary Basis <==

  Basis Set: CC-PV(D+D)Z
    Blend: CC-PV(D+D)Z
    Number of shells: 24
    Number of basis function: 48
    Number of Cartesian functions: 50
    Spherical Harmonics?: true
    Max angular momentum: 2

  ==> DFT Potential <==

   => Composite Functional: WB97X-V <= 

    wB97X-V Hyb-GGA Exchange-Correlation Functional

    N. Mardirossian and M. Head-Gordon, Phys. Chem. Chem. Phys. 16, 9904 (2014)

    Deriv               =              1
    GGA                 =           TRUE
    Meta                =          FALSE

    Exchange Hybrid     =           TRUE
    MP2 Hybrid          =          FALSE

   => Exchange-Correlation Functionals <=

    1.0000   wB97X-V range-separated functional

   => Exact (HF) Exchange <=

    0.8330            HF,LR [omega = 0.3000]
    0.1670               HF 

   => VV10 Non-Local Parameters <=

    VV10 B              =     6.0000E+00
    VV10 C              =     1.0000E-02

   => Molecular Quadrature <=

    Radial Scheme          =       TREUTLER
    Pruning Scheme         =           FLAT
    Nuclear Scheme         =       TREUTLER

    BS radius alpha        =              1
    Pruning alpha          =              1
    Radial Points          =             75
    Spherical Points       =            302
    Total Points           =         133224
    Total Blocks           =           1098
    Max Points             =            253
    Max Functions          =             48

   => Loading Basis Set <=

    Name: (CC-PV(D+D)Z AUX)
    Role: JKFIT
    Keyword: DF_BASIS_SCF
    atoms 1-2 entry C          line   121 file /work/zw18965/.conda/envs/p4env/share/psi4/basis/cc-pvdz-jkfit.gbs 
    atoms 3-6 entry H          line    51 file /work/zw18965/.conda/envs/p4env/share/psi4/basis/cc-pvdz-jkfit.gbs 

  ==> Pre-Iterations <==

   -------------------------------------------------------
    Irrep   Nso     Nmo     Nalpha   Nbeta   Ndocc  Nsocc
   -------------------------------------------------------
     Ag        11      11       0       0       0       0
     B1g        2       2       0       0       0       0
     B2g        7       7       0       0       0       0
     B3g        4       4       0       0       0       0
     Au         2       2       0       0       0       0
     B1u       11      11       0       0       0       0
     B2u        4       4       0       0       0       0
     B3u        7       7       0       0       0       0
   -------------------------------------------------------
    Total      48      48       8       8       8       0
   -------------------------------------------------------

  ==> Integral Setup <==

  ==> DiskDFJK: Density-Fitted J/K Matrices <==

    J tasked:                  Yes
    K tasked:                  Yes
    wK tasked:                 Yes
    Omega:               3.000E-01
    OpenMP threads:             24
    Integrals threads:          24
    Memory [MiB]:           102813
    Algorithm:                Core
    Integral Cache:           NONE
    Schwarz Cutoff:          1E-12
    Fitting Condition:       1E-10

   => Auxiliary Basis Set <=

  Basis Set: (CC-PV(D+D)Z AUX)
    Blend: CC-PVDZ-JKFIT
    Number of shells: 84
    Number of basis function: 232
    Number of Cartesian functions: 262
    Spherical Harmonics?: true
    Max angular momentum: 3

  Cached 100.0% of DFT collocation blocks in 0.179 [GiB].

  Minimum eigenvalue in the overlap matrix is 4.8191170279E-03.
  Using Symmetric Orthogonalization.

  SCF Guess: Superposition of Atomic Densities via on-the-fly atomic UHF.

  ==> Iterations <==

                           Total Energy        Delta E     RMS |[F,P]|

   @DF-RKS iter SAD:   -77.89890619198937   -7.78989e+01   0.00000e+00 
   @DF-RKS iter   1:   -78.47985879140043   -5.80953e-01   1.91627e-02 DIIS
   @DF-RKS iter   2:   -78.53368519308171   -5.38264e-02   1.16059e-02 DIIS
   @DF-RKS iter   3:   -78.56078447968619   -2.70993e-02   5.26299e-04 DIIS
   @DF-RKS iter   4:   -78.56090656662654   -1.22087e-04   5.41039e-05 DIIS
   @DF-RKS iter   5:   -78.56090767314505   -1.10652e-06   8.85428e-06 DIIS
   @DF-RKS iter   6:   -78.56090770696082   -3.38158e-08   1.05206e-06 DIIS
   @DF-RKS iter   7:   -78.56090770745799   -4.97167e-10   1.13034e-07 DIIS
   @DF-RKS iter   8:   -78.56090770746296   -4.97380e-12   1.08100e-08 DIIS
   @DF-RKS iter   9:   -78.56090770746300   -4.26326e-14   1.29716e-09 DIIS
  Energy and wave function converged.


  ==> Post-Iterations <==

    Orbital Energies [Eh]
    ---------------------

    Doubly Occupied:                                                      

       1Ag   -10.282382     1B1u  -10.281583     2Ag    -0.891004  
       2B1u   -0.699313     1B3u   -0.580241     3Ag    -0.522814  
       1B2g   -0.457047     1B2u   -0.371988  

    Virtual:                                                              

       1B3g    0.103565     4Ag     0.171862     2B3u    0.197303  
       3B1u    0.206143     2B2g    0.276936     4B1u    0.407498  
       5Ag     0.510257     3B3u    0.529666     2B2u    0.589754  
       6Ag     0.606888     5B1u    0.665497     2B3g    0.685611  
       4B3u    0.757938     3B2g    0.801135     6B1u    0.841662  
       7Ag     0.910582     1B1g    1.007293     3B2u    1.129151  
       7B1u    1.131437     4B2g    1.133947     1Au     1.159146  
       8Ag     1.451727     5B2g    1.584302     5B3u    1.599631  
       3B3g    1.663647     9Ag     1.701360     8B1u    1.701476  
       6B3u    1.754279     2B1g    1.817941     4B2u    1.818757  
       4B3g    2.048653     9B1u    2.061339     2Au     2.198019  
       6B2g    2.248912    10Ag     2.325559    10B1u    2.447232  
      11Ag     2.512210     7B3u    2.594355    11B1u    2.911779  
       7B2g    3.169115  

    Final Occupation by Irrep:
             Ag   B1g   B2g   B3g    Au   B1u   B2u   B3u 
    DOCC [     3,    0,    1,    0,    0,    2,    1,    1 ]

  @DF-RKS Final Energy:   -78.56090770746300

   => Energetics <=

    Nuclear Repulsion Energy =             33.3862101095926249
    One-Electron Energy =                -170.2583576714873175
    Two-Electron Energy =                  66.5526409836820392
    DFT Exchange-Correlation Energy =      -8.3064175604386215
    Empirical Dispersion Energy =           0.0000000000000000
    VV10 Nonlocal Energy =                  0.0650164311882415
    Total Energy =                        -78.5609077074630164

Computation Completed


Properties will be evaluated at   0.000000,   0.000000,   0.000000 [a0]

Properties computed using the SCF density matrix

  Nuclear Dipole Moment: [e a0]
     X:     0.0000      Y:     0.0000      Z:     0.0000

  Electronic Dipole Moment: [e a0]
     X:     0.0000      Y:     0.0000      Z:     0.0000

  Dipole Moment: [e a0]
     X:     0.0000      Y:     0.0000      Z:     0.0000     Total:     0.0000

  Dipole Moment: [D]
     X:     0.0000      Y:     0.0000      Z:     0.0000     Total:     0.0000


*** tstop() called on bp1-compute00099.data.bp.acrc.priv at Tue Apr 27 18:03:45 2021
Module time:
	user time   =      94.02 seconds =       1.57 minutes
	system time =       2.24 seconds =       0.04 minutes
	total time  =          5 seconds =       0.08 minutes
Total time:
	user time   =     560.35 seconds =       9.34 minutes
	system time =      15.27 seconds =       0.25 minutes
	total time  =         25 seconds =       0.42 minutes

  //>>>>>>>>>>>>>>>>>>>>>>>>>>>>>>>>>>>//
  //    Loading displacement 7 of 7    //
  //<<<<<<<<<<<<<<<<<<<<<<<<<<<<<<<<<<<//

*** tstart() called on bp1-compute00099.data.bp.acrc.priv
*** at Tue Apr 27 18:03:45 2021

   => Loading Basis Set <=

    Name: CC-PV(D+D)Z
    Role: ORBITAL
    Keyword: BASIS
    atoms 1-2 entry C          line   147 file /work/zw18965/.conda/envs/p4env/share/psi4/basis/cc-pv_dpd_z.gbs 
    atoms 3-6 entry H          line    31 file /work/zw18965/.conda/envs/p4env/share/psi4/basis/cc-pv_dpd_z.gbs 


         ---------------------------------------------------------
                                   SCF
               by Justin Turney, Rob Parrish, Andy Simmonett
                          and Daniel G. A. Smith
                              RKS Reference
                       24 Threads, 137329 MiB Core
         ---------------------------------------------------------

  ==> Geometry <==

    Molecular point group: d2h
    Full point group: D2h

    Geometry (in Angstrom), charge = 0, multiplicity = 1:

       Center              X                  Y                   Z               Mass       
    ------------   -----------------  -----------------  -----------------  -----------------
         C            0.000000000000    -0.000000000000    -0.667100000000    12.000000000000
         C            0.000000000000    -0.000000000000     0.667100000000    12.000000000000
         H            0.923404134200     0.000000000000     1.232951316971     1.007825032230
         H           -0.923404134200    -0.000000000000     1.232951316971     1.007825032230
         H            0.923404134200     0.000000000000    -1.232951316971     1.007825032230
         H           -0.923404134200    -0.000000000000    -1.232951316971     1.007825032230

  Running in d2h symmetry.

  Rotational constants: A =      4.90420  B =      1.00291  C =      0.83263 [cm^-1]
  Rotational constants: A = 147024.06889  B =  30066.34355  C =  24961.69106 [MHz]
  Nuclear repulsion =   33.363162078586903

  Charge       = 0
  Multiplicity = 1
  Electrons    = 16
  Nalpha       = 8
  Nbeta        = 8

  ==> Algorithm <==

  SCF Algorithm Type is DF.
  DIIS enabled.
  MOM disabled.
  Fractional occupation disabled.
  Guess Type is SAD.
  Energy threshold   = 1.00e-08
  Density threshold  = 1.00e-08
  Integral threshold = 0.00e+00

  ==> Primary Basis <==

  Basis Set: CC-PV(D+D)Z
    Blend: CC-PV(D+D)Z
    Number of shells: 24
    Number of basis function: 48
    Number of Cartesian functions: 50
    Spherical Harmonics?: true
    Max angular momentum: 2

  ==> DFT Potential <==

   => Composite Functional: WB97X-V <= 

    wB97X-V Hyb-GGA Exchange-Correlation Functional

    N. Mardirossian and M. Head-Gordon, Phys. Chem. Chem. Phys. 16, 9904 (2014)

    Deriv               =              1
    GGA                 =           TRUE
    Meta                =          FALSE

    Exchange Hybrid     =           TRUE
    MP2 Hybrid          =          FALSE

   => Exchange-Correlation Functionals <=

    1.0000   wB97X-V range-separated functional

   => Exact (HF) Exchange <=

    0.8330            HF,LR [omega = 0.3000]
    0.1670               HF 

   => VV10 Non-Local Parameters <=

    VV10 B              =     6.0000E+00
    VV10 C              =     1.0000E-02

   => Molecular Quadrature <=

    Radial Scheme          =       TREUTLER
    Pruning Scheme         =           FLAT
    Nuclear Scheme         =       TREUTLER

    BS radius alpha        =              1
    Pruning alpha          =              1
    Radial Points          =             75
    Spherical Points       =            302
    Total Points           =         133224
    Total Blocks           =           1098
    Max Points             =            253
    Max Functions          =             48

   => Loading Basis Set <=

    Name: (CC-PV(D+D)Z AUX)
    Role: JKFIT
    Keyword: DF_BASIS_SCF
    atoms 1-2 entry C          line   121 file /work/zw18965/.conda/envs/p4env/share/psi4/basis/cc-pvdz-jkfit.gbs 
    atoms 3-6 entry H          line    51 file /work/zw18965/.conda/envs/p4env/share/psi4/basis/cc-pvdz-jkfit.gbs 

  ==> Pre-Iterations <==

   -------------------------------------------------------
    Irrep   Nso     Nmo     Nalpha   Nbeta   Ndocc  Nsocc
   -------------------------------------------------------
     Ag        11      11       0       0       0       0
     B1g        2       2       0       0       0       0
     B2g        7       7       0       0       0       0
     B3g        4       4       0       0       0       0
     Au         2       2       0       0       0       0
     B1u       11      11       0       0       0       0
     B2u        4       4       0       0       0       0
     B3u        7       7       0       0       0       0
   -------------------------------------------------------
    Total      48      48       8       8       8       0
   -------------------------------------------------------

  ==> Integral Setup <==

  ==> DiskDFJK: Density-Fitted J/K Matrices <==

    J tasked:                  Yes
    K tasked:                  Yes
    wK tasked:                 Yes
    Omega:               3.000E-01
    OpenMP threads:             24
    Integrals threads:          24
    Memory [MiB]:           102813
    Algorithm:                Core
    Integral Cache:           NONE
    Schwarz Cutoff:          1E-12
    Fitting Condition:       1E-10

   => Auxiliary Basis Set <=

  Basis Set: (CC-PV(D+D)Z AUX)
    Blend: CC-PVDZ-JKFIT
    Number of shells: 84
    Number of basis function: 232
    Number of Cartesian functions: 262
    Spherical Harmonics?: true
    Max angular momentum: 3

  Cached 100.0% of DFT collocation blocks in 0.179 [GiB].

  Minimum eigenvalue in the overlap matrix is 4.8187641431E-03.
  Using Symmetric Orthogonalization.

  SCF Guess: Superposition of Atomic Densities via on-the-fly atomic UHF.

  ==> Iterations <==

                           Total Energy        Delta E     RMS |[F,P]|

   @DF-RKS iter SAD:   -77.89662296274679   -7.78966e+01   0.00000e+00 
   @DF-RKS iter   1:   -78.47999151379449   -5.83369e-01   1.91509e-02 DIIS
   @DF-RKS iter   2:   -78.53370455030496   -5.37130e-02   1.16184e-02 DIIS
   @DF-RKS iter   3:   -78.56088113139188   -2.71766e-02   5.26575e-04 DIIS
   @DF-RKS iter   4:   -78.56100354900640   -1.22418e-04   5.41333e-05 DIIS
   @DF-RKS iter   5:   -78.56100465963534   -1.11063e-06   8.85069e-06 DIIS
   @DF-RKS iter   6:   -78.56100469352467   -3.38893e-08   1.05505e-06 DIIS
   @DF-RKS iter   7:   -78.56100469402304   -4.98375e-10   1.13740e-07 DIIS
   @DF-RKS iter   8:   -78.56100469402820   -5.15854e-12   1.10393e-08 DIIS
   @DF-RKS iter   9:   -78.56100469402826   -5.68434e-14   1.32915e-09 DIIS
  Energy and wave function converged.


  ==> Post-Iterations <==

    Orbital Energies [Eh]
    ---------------------

    Doubly Occupied:                                                      

       1Ag   -10.282764     1B1u  -10.281965     2Ag    -0.890793  
       2B1u   -0.699192     1B3u   -0.579549     3Ag    -0.523210  
       1B2g   -0.456512     1B2u   -0.372029  

    Virtual:                                                              

       1B3g    0.103510     4Ag     0.171811     2B3u    0.197011  
       3B1u    0.205669     2B2g    0.276858     4B1u    0.407814  
       5Ag     0.510652     3B3u    0.528604     2B2u    0.589694  
       6Ag     0.606688     5B1u    0.664633     2B3g    0.685532  
       4B3u    0.757510     3B2g    0.800117     6B1u    0.841613  
       7Ag     0.910278     1B1g    1.007474     3B2u    1.128580  
       4B2g    1.131402     7B1u    1.131549     1Au     1.159094  
       8Ag     1.450924     5B2g    1.586426     5B3u    1.600037  
       3B3g    1.662583     9Ag     1.699667     8B1u    1.700146  
       6B3u    1.751316     2B1g    1.815944     4B2u    1.818915  
       4B3g    2.049986     9B1u    2.060327     2Au     2.195308  
       6B2g    2.245374    10Ag     2.325581    10B1u    2.448006  
      11Ag     2.507120     7B3u    2.592390    11B1u    2.906306  
       7B2g    3.167161  

    Final Occupation by Irrep:
             Ag   B1g   B2g   B3g    Au   B1u   B2u   B3u 
    DOCC [     3,    0,    1,    0,    0,    2,    1,    1 ]

  @DF-RKS Final Energy:   -78.56100469402826

   => Energetics <=

    Nuclear Repulsion Energy =             33.3631620785869032
    One-Electron Energy =                -170.2142050833056999
    Two-Electron Energy =                  66.5298361671594165
    DFT Exchange-Correlation Energy =      -8.3048126544408447
    Empirical Dispersion Energy =           0.0000000000000000
    VV10 Nonlocal Energy =                  0.0650147979719793
    Total Energy =                        -78.5610046940282558

Computation Completed


Properties will be evaluated at   0.000000,   0.000000,   0.000000 [a0]

Properties computed using the SCF density matrix

  Nuclear Dipole Moment: [e a0]
     X:     0.0000      Y:     0.0000      Z:     0.0000

  Electronic Dipole Moment: [e a0]
     X:     0.0000      Y:     0.0000      Z:     0.0000

  Dipole Moment: [e a0]
     X:     0.0000      Y:     0.0000      Z:     0.0000     Total:     0.0000

  Dipole Moment: [D]
     X:     0.0000      Y:     0.0000      Z:     0.0000     Total:     0.0000


*** tstop() called on bp1-compute00099.data.bp.acrc.priv at Tue Apr 27 18:03:49 2021
Module time:
	user time   =      91.71 seconds =       1.53 minutes
	system time =       2.17 seconds =       0.04 minutes
	total time  =          4 seconds =       0.07 minutes
Total time:
	user time   =     652.20 seconds =      10.87 minutes
	system time =      17.44 seconds =       0.29 minutes
	total time  =         29 seconds =       0.48 minutes

         ----------------------------------------------------------
                                   FINDIF
                     R. A. King and Jonathon Misiewicz
         ---------------------------------------------------------

  Computing gradient from energies.
    Using 3-point formula.
    Energy without displacement:  -78.5609581198
    Check energies below for precision!
    Forces are for mass-weighted, symmetry-adapted cartesians (in au).

     Coord      Energy(-1)        Energy(+1)            Force
        0    -78.5609331223    -78.5609799471     -0.0046824743
        1    -78.5608767201    -78.5610317387     -0.0155018559
        2    -78.5609077075    -78.5610046940     -0.0096986565


-------------------------------------------------------------
  ## New Matrix (Symmetry 0) ##
  Irrep: 1 Size: 6 x 3

                 1                   2                   3

    1     0.00000000000000     0.00000000000000    -0.01146967266652
    2     0.00000000000000     0.00000000000000     0.01146967266652
    3    -0.00778119450666     0.00000000000000    -0.00486826436593
    4     0.00778119450666     0.00000000000000    -0.00486826436593
    5    -0.00778119450666     0.00000000000000     0.00486826436593
    6     0.00778119450666     0.00000000000000     0.00486826436593




			-----------------------------------------
			 OPTKING 2.0: for geometry optimizations 
			  - R.A. King,  Bethel University        
			-----------------------------------------
	At level 1: Red. Int., RFO, no backsteps, dynamic trust

	Internal coordinates to be generated automatically.
	Detected frag 1 with atoms:  1 2 3 4 5 6
	---Fragment 1 Bond Connectivity---
	 1 : 2 5 6
	 2 : 1 3 4
	 3 : 2
	 4 : 2
	 5 : 1
	 6 : 1

	---Fragment 1 Geometry and Gradient---
	 C           0.0000000000       -0.0000000000       -1.2606362983
	 C           0.0000000000       -0.0000000000        1.2606362983
	 H           1.7449809168        0.0000000000        2.3274500394
	 H          -1.7449809168       -0.0000000000        2.3274500394
	 H           1.7449809168        0.0000000000       -2.3274500394
	 H          -1.7449809168       -0.0000000000       -2.3274500394
	             0.0000000000        0.0000000000       -0.0114696727
	             0.0000000000        0.0000000000        0.0114696727
	            -0.0077811945        0.0000000000       -0.0048682644
	             0.0077811945        0.0000000000       -0.0048682644
	            -0.0077811945        0.0000000000        0.0048682644
	             0.0077811945        0.0000000000        0.0048682644

	Previous optimization step data not found.  Starting new optimization.

	---Fragment 1 Intrafragment Coordinates---
	 - Coordinate -           - BOHR/RAD -       - ANG/DEG -
	 R(1,2)           =         2.521273	       1.334200
	 R(1,5)           =         2.045251	       1.082300
	 R(1,6)           =         2.045251	       1.082300
	 R(2,3)           =         2.045251	       1.082300
	 R(2,4)           =         2.045251	       1.082300
	 B(1,2,3)         =         2.119528	     121.440000
	 B(1,2,4)         =         2.119528	     121.440000
	 B(2,1,5)         =         2.119528	     121.440000
	 B(2,1,6)         =         2.119528	     121.440000
	 B(3,2,4)         =         2.044130	     117.120000
	 B(5,1,6)         =         2.044130	     117.120000
	 D(3,2,1,5)       =        -0.000000	      -0.000000
	 D(3,2,1,6)       =         3.141593	     180.000000
	 D(4,2,1,5)       =         3.141593	     180.000000
	 D(4,2,1,6)       =        -0.000000	      -0.000000

	Current energy   :       -78.5609581198

	Generating empirical Hessian (Schlegel '84) for each fragment.
	Taking RFO optimization step.
	Going to follow RFO solution 1.
	Using RFO vector 1.
	Norm of target step-size    0.05136
	Projected energy change by RFO approximation:        -0.0009397094

	Back-transformation to cartesian coordinates...
	Successfully converged to displaced geometry.

	--- Internal Coordinate Step in ANG or DEG, aJ/ANG or AJ/DEG ---
	 ---------------------------------------------------------------------------
	   Coordinate                Previous        Force       Change         New 
	   ----------                --------       ------       ------       ------
	    1 R(1,2)          =      1.334200    -0.014279    -0.001565     1.332635
	    2 R(1,5)          =      1.082300     0.075616     0.013562     1.095862
	    3 R(1,6)          =      1.082300     0.075616     0.013562     1.095862
	    4 R(2,3)          =      1.082300     0.075616     0.013562     1.095862
	    5 R(2,4)          =      1.082300     0.075616     0.013562     1.095862
	    6 B(1,2,3)        =    121.440000     0.000005     0.023014   121.463014
	    7 B(1,2,4)        =    121.440000     0.000005     0.023014   121.463014
	    8 B(2,1,5)        =    121.440000     0.000005     0.023014   121.463014
	    9 B(2,1,6)        =    121.440000     0.000005     0.023014   121.463014
	   10 B(3,2,4)        =    117.120000    -0.000010    -0.046028   117.073972
	   11 B(5,1,6)        =    117.120000    -0.000010    -0.046028   117.073972
	   12 D(3,2,1,5)      =      0.000000     0.000000     0.000000     0.000000
	   13 D(3,2,1,6)      =    180.000000    -0.000000     0.000000   180.000000
	   14 D(4,2,1,5)      =    180.000000     0.000000     0.000000   180.000000
	   15 D(4,2,1,6)      =      0.000000     0.000000     0.000000     0.000000
	 ---------------------------------------------------------------------------
	Successfully symmetrized geometry.

  ==> Convergence Check <==

  Measures of convergence in internal coordinates in au.
  Criteria marked as inactive (o), active & met (*), and active & unmet ( ).
  --------------------------------------------------------------------------------------------- ~
   Step     Total Energy     Delta E     MAX Force     RMS Force      MAX Disp      RMS Disp    ~
  --------------------------------------------------------------------------------------------- ~
    Convergence Criteria    1.00e-06 *    3.00e-04 *             o    1.20e-03 *             o  ~
  --------------------------------------------------------------------------------------------- ~
      1     -78.56095812   -7.86e+01      9.18e-03      4.76e-03 o    2.56e-02      1.33e-02 o  ~
  ---------------------------------------------------------------------------------------------

	Writing optimization data to binary file.
	Structure for next step:
	Cartesian Geometry (in Angstrom)
	    C     0.0000000000  -0.0000000000  -0.6663177112
	    C     0.0000000000   0.0000000000   0.6663177112
	    H     0.9347452937   0.0000000000   1.2383006985
	    H    -0.9347452937  -0.0000000000   1.2383006985
	    H     0.9347452937   0.0000000000  -1.2383006985
	    H    -0.9347452937  -0.0000000000  -1.2383006985
			--------------------------
			 OPTKING Finished Execution 
			--------------------------

    Structure for next step:
    Molecular point group: d2h
    Full point group: D2h

    Geometry (in Angstrom), charge = 0, multiplicity = 1:

    C            0.000000000000    -0.000000000000    -0.666317713865
    C            0.000000000000    -0.000000000000     0.666317713865
    H            0.934745297402     0.000000000000     1.238300703394
    H           -0.934745297402    -0.000000000000     1.238300703394
    H            0.934745297402     0.000000000000    -1.238300703394
    H           -0.934745297402    -0.000000000000    -1.238300703394

gradient() will perform gradient computation by finite difference of analytic energies.

         ----------------------------------------------------------
                                   FINDIF
                     R. A. King and Jonathon Misiewicz
         ---------------------------------------------------------

  Using finite-differences of energies to determine gradients.
    Generating geometries for use with 3-point formula.
    Displacement size will be 5.00e-03.
    Number of atoms is 6.
    Number of symmetric SALCs is 3.
    Translations projected? 1. Rotations projected? 1.
    Number of geometries (including reference) is 7.

  //>>>>>>>>>>>>>>>>>>>>>>>>>>>>>>>>>>>//
  //    Loading displacement 1 of 7    //
  //<<<<<<<<<<<<<<<<<<<<<<<<<<<<<<<<<<<//

*** tstart() called on bp1-compute00099.data.bp.acrc.priv
*** at Tue Apr 27 18:03:49 2021

   => Loading Basis Set <=

    Name: CC-PV(D+D)Z
    Role: ORBITAL
    Keyword: BASIS
    atoms 1-2 entry C          line   147 file /work/zw18965/.conda/envs/p4env/share/psi4/basis/cc-pv_dpd_z.gbs 
    atoms 3-6 entry H          line    31 file /work/zw18965/.conda/envs/p4env/share/psi4/basis/cc-pv_dpd_z.gbs 


         ---------------------------------------------------------
                                   SCF
[...]
    GGA                 =           TRUE
    Meta                =          FALSE

    Exchange Hybrid     =           TRUE
    MP2 Hybrid          =          FALSE

   => Exchange-Correlation Functionals <=

    1.0000   wB97X-V range-separated functional

   => Exact (HF) Exchange <=

    0.8330            HF,LR [omega = 0.3000]
    0.1670               HF 

   => VV10 Non-Local Parameters <=

    VV10 B              =     6.0000E+00
    VV10 C              =     1.0000E-02

   => Molecular Quadrature <=

    Radial Scheme          =       TREUTLER
    Pruning Scheme         =           FLAT
    Nuclear Scheme         =       TREUTLER

    BS radius alpha        =              1
    Pruning alpha          =              1
    Radial Points          =             75
    Spherical Points       =            302
    Total Points           =         133232
    Total Blocks           =           1086
    Max Points             =            256
    Max Functions          =             48

   => Loading Basis Set <=

    Name: (CC-PV(D+D)Z AUX)
    Role: JKFIT
    Keyword: DF_BASIS_SCF
    atoms 1-2 entry C          line   121 file /work/zw18965/.conda/envs/p4env/share/psi4/basis/cc-pvdz-jkfit.gbs 
    atoms 3-6 entry H          line    51 file /work/zw18965/.conda/envs/p4env/share/psi4/basis/cc-pvdz-jkfit.gbs 

  ==> Pre-Iterations <==

   -------------------------------------------------------
    Irrep   Nso     Nmo     Nalpha   Nbeta   Ndocc  Nsocc
   -------------------------------------------------------
     A1        18      18       0       0       0       0
     A2         6       6       0       0       0       0
     B1         6       6       0       0       0       0
     B2        18      18       0       0       0       0
   -------------------------------------------------------
    Total      48      48       8       8       8       0
   -------------------------------------------------------

  ==> Integral Setup <==

  ==> DiskDFJK: Density-Fitted J/K Matrices <==

    J tasked:                  Yes
    K tasked:                  Yes
    wK tasked:                 Yes
    Omega:               3.000E-01
    OpenMP threads:             24
    Integrals threads:          24
    Memory [MiB]:           102813
    Algorithm:                Core
    Integral Cache:           NONE
    Schwarz Cutoff:          1E-12
    Fitting Condition:       1E-10

   => Auxiliary Basis Set <=

  Basis Set: (CC-PV(D+D)Z AUX)
    Blend: CC-PVDZ-JKFIT
    Number of shells: 84
    Number of basis function: 232
    Number of Cartesian functions: 262
    Spherical Harmonics?: true
    Max angular momentum: 3

  Cached 100.0% of DFT collocation blocks in 0.179 [GiB].

  Minimum eigenvalue in the overlap matrix is 4.7824232229E-03.
  Using Symmetric Orthogonalization.

  SCF Guess: Superposition of Atomic Densities via on-the-fly atomic UHF.

  ==> Iterations <==

                           Total Energy        Delta E     RMS |[F,P]|

   @DF-RKS iter SAD:   -77.88143777360995   -7.78814e+01   0.00000e+00 
   @DF-RKS iter   1:   -78.48021558734528   -5.98778e-01   1.38985e-02 DIIS
   @DF-RKS iter   2:   -78.53336489487464   -5.31493e-02   8.52961e-03 DIIS
   @DF-RKS iter   3:   -78.56127825226199   -2.79134e-02   3.82247e-04 DIIS
   @DF-RKS iter   4:   -78.56140140187942   -1.23150e-04   3.84586e-05 DIIS
   @DF-RKS iter   5:   -78.56140250017225   -1.09829e-06   6.25321e-06 DIIS
   @DF-RKS iter   6:   -78.56140253291792   -3.27457e-08   7.61312e-07 DIIS
   @DF-RKS iter   7:   -78.56140253339932   -4.81393e-10   8.51457e-08 DIIS
   @DF-RKS iter   8:   -78.56140253340497   -5.65592e-12   8.69115e-09 DIIS
   @DF-RKS iter   9:   -78.56140253340509   -1.13687e-13   1.08616e-09 DIIS
   @DF-RKS iter  10:   -78.56140253340507    1.42109e-14   1.72756e-10 DIIS
   @DF-RKS iter  11:   -78.56140253340503    4.26326e-14   2.92068e-11 DIIS
  Energy and wave function converged.


  ==> Post-Iterations <==

    Orbital Energies [Eh]
    ---------------------

    Doubly Occupied:                                                      

       1A1   -10.285193     1B2   -10.284382     2A1    -0.889968  
       2B2    -0.695496     3A1    -0.577017     4A1    -0.522437  
       3B2    -0.453660     1B1    -0.372609  

    Virtual:                                                              

       1A2     0.103924     5A1     0.170101     6A1     0.194076  
       4B2     0.203192     5B2     0.276099     6B2     0.407257  
       7A1     0.510473     8A1     0.526932     2B1     0.588994  
       9A1     0.601473     7B2     0.659283     2A2     0.685282  
      10A1     0.754270     8B2     0.793152     9B2     0.840071  
      11A1     0.906658     3B1     1.005978     4B1     1.128798  
      10B2     1.129866    11B2     1.133730     3A2     1.157101  
      12A1     1.443285    12B2     1.576960    13A1     1.589643  
       4A2     1.657878    13B2     1.691652    14A1     1.700684  
      15A1     1.741829     5B1     1.808441     6B1     1.810474  
       5A2     2.046746    14B2     2.055114     6A2     2.182778  
      15B2     2.223795    16A1     2.307243    16B2     2.429409  
      17A1     2.476396    18A1     2.568582    17B2     2.881639  
      18B2     3.138913  

    Final Occupation by Irrep:
             A1    A2    B1    B2 
    DOCC [     4,    0,    1,    3 ]

  @DF-RKS Final Energy:   -78.56140253340503

   => Energetics <=

    Nuclear Repulsion Energy =             33.2152796994339710
    One-Electron Energy =                -169.9379301090885974
    Two-Electron Energy =                  66.3884092450571472
    DFT Exchange-Correlation Energy =      -8.2921497109425601
    Empirical Dispersion Energy =           0.0000000000000000
    VV10 Nonlocal Energy =                  0.0649883421349983
    Total Energy =                        -78.5614025334050439

Computation Completed


Properties will be evaluated at   0.000000,   0.000000,   0.000000 [a0]

Properties computed using the SCF density matrix

  Nuclear Dipole Moment: [e a0]
     X:     0.0046      Y:     0.0000      Z:     0.0000

  Electronic Dipole Moment: [e a0]
     X:    -0.0047      Y:     0.0000      Z:     0.0000

  Dipole Moment: [e a0]
     X:    -0.0001      Y:     0.0000      Z:     0.0000     Total:     0.0001

  Dipole Moment: [D]
     X:    -0.0002      Y:     0.0000      Z:     0.0000     Total:     0.0002


*** tstop() called on bp1-compute00099.data.bp.acrc.priv at Tue Apr 27 18:07:00 2021
Module time:
	user time   =     101.66 seconds =       1.69 minutes
	system time =       2.16 seconds =       0.04 minutes
	total time  =          4 seconds =       0.07 minutes
Total time:
	user time   =    5084.34 seconds =      84.74 minutes
	system time =     117.50 seconds =       1.96 minutes
	total time  =        220 seconds =       3.67 minutes

         ----------------------------------------------------------
                                   FINDIF
                     R. A. King and Jonathon Misiewicz
         ---------------------------------------------------------

  Computing second-derivative from energies using projected, 
  symmetry-adapted, cartesian coordinates.

  28 energies passed in, including the reference geometry.
    Using 3-point formula.
    Energy without displacement:  -78.5614038173
    Check energies below for precision!
    0: -1          :       -78.5614017790
    0: 1           :       -78.5614026822
    1: -1          :       -78.5614008403
    1: 1           :       -78.5613995142
    2: -1          :       -78.5614013092
    2: 1           :       -78.5614026142
    0: 1, 1: 1     :       -78.5613970391
    0: -1, 1: -1   :       -78.5613974475
    0: 1, 2: 1     :       -78.5614002707
    0: -1, 2: -1   :       -78.5613980621
    1: 1, 2: 1     :       -78.5613952448
    1: -1, 2: -1   :       -78.5613952246
    3: -1          :       -78.5614021610
    4: -1          :       -78.5613997671
    3: 1, 4: 1     :       -78.5613945756
    3: -1, 4: -1   :       -78.5613945756
    5: -1          :       -78.5614033593
    6: -1          :       -78.5614032819
    7: -1          :       -78.5614017677
    8: -1          :       -78.5614001687
    7: 1, 8: 1     :       -78.5614014751
    7: -1, 8: -1   :       -78.5614014752
    9: -1          :       -78.5614033617
    10: -1         :       -78.5613999378
    11: -1         :       -78.5614023129
    10: 1, 11: 1   :       -78.5614025337
    10: -1, 11: -1 :       -78.5614025334

-------------------------------------------------------------


  ==> Harmonic Vibrational Analysis <==

  non-mass-weighted Hessian:       Symmetric? True   Hermitian? True   Lin Dep Dim?  6 (0)
  projection of translations (True) and rotations (True) removed 6 degrees of freedom (6)
  total projector:                 Symmetric? True   Hermitian? True   Lin Dep Dim?  6 (6)
  mass-weighted Hessian:           Symmetric? True   Hermitian? True   Lin Dep Dim?  6 (0)
  pre-proj  low-frequency mode:    0.0000i [cm^-1]
  pre-proj  low-frequency mode:    0.0000i [cm^-1]
  pre-proj  low-frequency mode:    0.0000i [cm^-1]
  pre-proj  low-frequency mode:    0.0000  [cm^-1]
  pre-proj  low-frequency mode:    0.0000  [cm^-1]
  pre-proj  low-frequency mode:    0.0001  [cm^-1]
  pre-proj  all modes:['0.0001i' '0.0000i' '0.0000i' '0.0000' '0.0000' '0.0001' '826.0140'
 '981.4024' '983.8900' '1063.8846' '1232.4745' '1373.3081' '1446.9203'
 '1728.2937' '3154.7083' '3177.8306' '3247.2139' '3270.9328']
  projected mass-weighted Hessian: Symmetric? True   Hermitian? True   Lin Dep Dim?  6 (6)
  post-proj low-frequency mode:    0.0000i [cm^-1] (TR)
  post-proj low-frequency mode:    0.0000i [cm^-1] (TR)
  post-proj low-frequency mode:    0.0000  [cm^-1] (TR)
  post-proj low-frequency mode:    0.0000  [cm^-1] (TR)
  post-proj low-frequency mode:    0.0000  [cm^-1] (TR)
  post-proj low-frequency mode:    0.0001  [cm^-1] (TR)
  post-proj  all modes:['0.0000i' '0.0000i' '0.0000' '0.0000' '0.0000' '0.0001' '826.0140'
 '981.4024' '983.8900' '1063.8846' '1232.4745' '1373.3081' '1446.9203'
 '1728.2937' '3154.7083' '3177.8306' '3247.2139' '3270.9328']

  Vibration                       7                   8                   9           
  Freq [cm^-1]                 826.0140            981.4024            983.8900       
  Irrep                          B3u                 B2u                 B3g          
  Reduced mass [u]              1.0421              1.1607              1.5192        
  Force const [mDyne/A]         0.4189              0.6587              0.8665        
  Turning point v=0 [a0]        0.3740              0.3251              0.2838        
  RMS dev v=0 [a0 u^1/2]        0.2700              0.2477              0.2474        
  Char temp [K]               1188.4502           1412.0196           1415.5986       
  ----------------------------------------------------------------------------------
      1   C                0.04  0.00 -0.00    0.00 -0.08 -0.00   -0.00  0.15 -0.00   
      2   C                0.04  0.00 -0.00    0.00 -0.08 -0.00    0.00 -0.15  0.00   
      3   H               -0.23  0.00  0.44    0.00  0.50 -0.00    0.00  0.49 -0.00   
      4   H               -0.23  0.00 -0.44    0.00  0.50  0.00    0.00  0.49  0.00   
      5   H               -0.23 -0.00 -0.44    0.00  0.50 -0.00    0.00 -0.49  0.00   
      6   H               -0.23 -0.00  0.44    0.00  0.50 -0.00    0.00 -0.49 -0.00   

  Vibration                       10                  11                  12          
  Freq [cm^-1]                1063.8846           1232.4745           1373.3081       
  Irrep                           Au                 B2g                  Ag          
  Reduced mass [u]              1.0078              1.5287              1.1452        
  Force const [mDyne/A]         0.6721              1.3681              1.2725        
  Turning point v=0 [a0]        0.3351              0.2528              0.2767        
  RMS dev v=0 [a0 u^1/2]        0.2379              0.2210              0.2094        
  Char temp [K]               1530.6931           1773.2563           1975.8847       
  ----------------------------------------------------------------------------------
      1   C               -0.00  0.00 -0.00    0.15  0.00  0.00   -0.00  0.00 -0.08   
      2   C                0.00 -0.00 -0.00   -0.15 -0.00  0.00   -0.00  0.00  0.08   
      3   H                0.00  0.50 -0.00    0.14  0.00 -0.47   -0.21  0.00  0.45   
      4   H                0.00 -0.50 -0.00    0.14  0.00  0.47    0.21  0.00  0.45   
      5   H                0.00 -0.50  0.00   -0.14 -0.00 -0.47   -0.21 -0.00 -0.45   
      6   H               -0.00  0.50  0.00   -0.14  0.00  0.47    0.21 -0.00 -0.45   

  Vibration                       13                  14                  15          
  Freq [cm^-1]                1446.9203           1728.2937           3154.7083       
  Irrep                          B1u                  Ag                 B1u          
  Reduced mass [u]              1.1126              3.7356              1.0471        
  Force const [mDyne/A]         1.3724              6.5743              6.1400        
  Turning point v=0 [a0]        0.2735              0.1366              0.1909        
  RMS dev v=0 [a0 u^1/2]        0.2040              0.1866              0.1381        
  Char temp [K]               2081.7962           2486.6299           4538.9228       
  ----------------------------------------------------------------------------------
      1   C                0.00 -0.00 -0.07    0.00  0.00  0.35   -0.00  0.00 -0.04   
      2   C                0.00 -0.00 -0.07    0.00 -0.00 -0.35    0.00 -0.00 -0.04   
      3   H               -0.28 -0.00  0.41   -0.39  0.00  0.19    0.43  0.00  0.25   
      4   H                0.28  0.00  0.41    0.39  0.00  0.19   -0.43  0.00  0.25   
      5   H                0.28 -0.00  0.41   -0.39 -0.00 -0.19   -0.43 -0.00  0.25   
      6   H               -0.28 -0.00  0.41    0.39  0.00 -0.19    0.43 -0.00  0.25   

  Vibration                       16                  17                  18          
  Freq [cm^-1]                3177.8306           3247.2139           3270.9328       
  Irrep                           Ag                 B2g                 B3u          
  Reduced mass [u]              1.0789              1.1147              1.1184        
  Force const [mDyne/A]         6.4192              6.9253              7.0501        
  Turning point v=0 [a0]        0.1874              0.1824              0.1814        
  RMS dev v=0 [a0 u^1/2]        0.1376              0.1362              0.1357        
  Char temp [K]               4572.1907           4672.0178           4706.1440       
  ----------------------------------------------------------------------------------
      1   C                0.00  0.00  0.06    0.07  0.00 -0.00   -0.07 -0.00  0.00   
      2   C                0.00  0.00 -0.06   -0.07  0.00 -0.00   -0.07  0.00 -0.00   
      3   H                0.43  0.00  0.25    0.42  0.00  0.26    0.42  0.00  0.26   
      4   H               -0.43 -0.00  0.25    0.42  0.00 -0.26    0.42 -0.00 -0.26   
      5   H                0.43  0.00 -0.25   -0.42 -0.00  0.26    0.42  0.00 -0.26   
      6   H               -0.43  0.00 -0.25   -0.42 -0.00 -0.26    0.42  0.00  0.26   

  ==> Thermochemistry Components <==

  Entropy, S
    Electronic S            0.000 [cal/(mol K)]        0.000 [J/(mol K)]       0.00000000 [mEh/K] (multiplicity = 1)
    Translational S        35.927 [cal/(mol K)]      150.318 [J/(mol K)]       0.05725309 [mEh/K] (mol. weight = 28.0313 [u], P = 101325.00 [Pa])
    Rotational S           15.890 [cal/(mol K)]       66.485 [J/(mol K)]       0.02532282 [mEh/K] (symmetry no. = 4)
    Vibrational S           0.535 [cal/(mol K)]        2.240 [J/(mol K)]       0.00085330 [mEh/K]
  Total S                  52.353 [cal/(mol K)]      219.043 [J/(mol K)]       0.08342921 [mEh/K]
  Correction S              0.000 [cal/(mol K)]        0.000 [J/(mol K)]       0.00000000 [mEh/K]

  Constant volume heat capacity, Cv
    Electronic Cv           0.000 [cal/(mol K)]        0.000 [J/(mol K)]       0.00000000 [mEh/K]
    Translational Cv        2.981 [cal/(mol K)]       12.472 [J/(mol K)]       0.00475022 [mEh/K]
    Rotational Cv           2.981 [cal/(mol K)]       12.472 [J/(mol K)]       0.00475022 [mEh/K]
    Vibrational Cv          2.138 [cal/(mol K)]        8.947 [J/(mol K)]       0.00340757 [mEh/K]
  Total Cv                  8.100 [cal/(mol K)]       33.890 [J/(mol K)]       0.01290800 [mEh/K]
  Correction Cv             0.000 [cal/(mol K)]        0.000 [J/(mol K)]       0.00000000 [mEh/K]

  Constant pressure heat capacity, Cp
    Electronic Cp           0.000 [cal/(mol K)]        0.000 [J/(mol K)]       0.00000000 [mEh/K]
    Translational Cp        4.968 [cal/(mol K)]       20.786 [J/(mol K)]       0.00791703 [mEh/K]
    Rotational Cp           2.981 [cal/(mol K)]       12.472 [J/(mol K)]       0.00475022 [mEh/K]
    Vibrational Cp          2.138 [cal/(mol K)]        8.947 [J/(mol K)]       0.00340757 [mEh/K]
  Total Cp                 10.087 [cal/(mol K)]       42.204 [J/(mol K)]       0.01607481 [mEh/K]
  Correction Cp             0.000 [cal/(mol K)]        0.000 [J/(mol K)]       0.00000000 [mEh/K]

  ==> Thermochemistry Energy Analysis <==

  Raw electronic energy, E0
  Total E0, Electronic energy at well bottom at 0 [K]                  -78.56140382 [Eh]

  Zero-point energy, ZPE_vib = Sum_i nu_i / 2
    Electronic ZPE          0.000 [kcal/mol]        0.000 [kJ/mol]       0.00000000 [Eh]
    Translational ZPE       0.000 [kcal/mol]        0.000 [kJ/mol]       0.00000000 [Eh]
    Rotational ZPE          0.000 [kcal/mol]        0.000 [kJ/mol]       0.00000000 [Eh]
    Vibrational ZPE        32.147 [kcal/mol]      134.501 [kJ/mol]       0.05122887 [Eh]       11243.436 [cm^-1]
  Correction ZPE           32.147 [kcal/mol]      134.501 [kJ/mol]       0.05122887 [Eh]       11243.436 [cm^-1]
  Total ZPE, Electronic energy at 0 [K]                                -78.51017495 [Eh]

  Thermal Energy, E (includes ZPE)
    Electronic E            0.000 [kcal/mol]        0.000 [kJ/mol]       0.00000000 [Eh]
    Translational E         0.889 [kcal/mol]        3.718 [kJ/mol]       0.00141628 [Eh]
    Rotational E            0.889 [kcal/mol]        3.718 [kJ/mol]       0.00141628 [Eh]
    Vibrational E          32.278 [kcal/mol]      135.052 [kJ/mol]       0.05143863 [Eh]
  Correction E             34.056 [kcal/mol]      142.489 [kJ/mol]       0.05427118 [Eh]
  Total E, Electronic energy at  298.15 [K]                            -78.50713263 [Eh]

  Enthalpy, H_trans = E_trans + k_B * T
    Electronic H            0.000 [kcal/mol]        0.000 [kJ/mol]       0.00000000 [Eh]
    Translational H         1.481 [kcal/mol]        6.197 [kJ/mol]       0.00236046 [Eh]
    Rotational H            0.889 [kcal/mol]        3.718 [kJ/mol]       0.00141628 [Eh]
    Vibrational H          32.278 [kcal/mol]      135.052 [kJ/mol]       0.05143863 [Eh]
  Correction H             34.648 [kcal/mol]      144.968 [kJ/mol]       0.05521537 [Eh]
  Total H, Enthalpy at  298.15 [K]                                     -78.50618845 [Eh]

  Gibbs free energy, G = H - T * S
    Electronic G            0.000 [kcal/mol]        0.000 [kJ/mol]       0.00000000 [Eh]
    Translational G        -9.230 [kcal/mol]      -38.620 [kJ/mol]      -0.01470955 [Eh]
    Rotational G           -3.849 [kcal/mol]      -16.104 [kJ/mol]      -0.00613372 [Eh]
    Vibrational G          32.119 [kcal/mol]      134.384 [kJ/mol]       0.05118422 [Eh]
  Correction G             19.039 [kcal/mol]       79.660 [kJ/mol]       0.03034095 [Eh]
  Total G, Free enthalpy at  298.15 [K]                                -78.53106287 [Eh]

    Psi4 stopped on: Tuesday, 27 April 2021 06:07PM
    Psi4 wall time for execution: 0:03:40.93

*** Psi4 exiting successfully. Buy a developer a beer!
