
    -----------------------------------------------------------------------
          Psi4: An Open-Source Ab Initio Electronic Structure Package
                               Psi4 1.3.2 release

                         Git: Rev {HEAD} ecbda83 


    R. M. Parrish, L. A. Burns, D. G. A. Smith, A. C. Simmonett,
    A. E. DePrince III, E. G. Hohenstein, U. Bozkaya, A. Yu. Sokolov,
    R. Di Remigio, R. M. Richard, J. F. Gonthier, A. M. James,
    H. R. McAlexander, A. Kumar, M. Saitow, X. Wang, B. P. Pritchard,
    P. Verma, H. F. Schaefer III, K. Patkowski, R. A. King, E. F. Valeev,
    F. A. Evangelista, J. M. Turney, T. D. Crawford, and C. D. Sherrill,
    J. Chem. Theory Comput. 13(7) pp 3185--3197 (2017).
    (doi: 10.1021/acs.jctc.7b00174)


                         Additional Contributions by
    P. Kraus, H. Kruse, M. H. Lechner, M. C. Schieber, R. A. Shaw,
    A. Alenaizan, R. Galvelis, Z. L. Glick, S. Lehtola, and J. P. Misiewicz

    -----------------------------------------------------------------------


    Psi4 started on: Wednesday, 28 April 2021 01:25PM

    Process ID: 263405
    Host:       bp1-compute00048.data.bp.acrc.priv
    PSIDATADIR: /work/zw18965/.conda/envs/p4env/share/psi4
    Memory:     500.0 MiB
    Threads:    24
    
  ==> Input File <==

--------------------------------------------------------------------------
memory 144 GB

molecule {
0 1
H 0.0000000000 0.0000000000 0.0000000000
C 0.0000000000 0.0000000000 1.0879000000
H 1.0256819563 0.0000000000 1.4505333333
H -0.5128409782 0.8882666304 1.4505333333
H -0.5128409782 -0.8882666304 1.4505333333
symmetry c2
}

set dynamic_level 1
set basis cc-pV(D+d)Z
set full_hess_every 1
 
optimize("wB97X-V")
frequencies("wB97X-V")
--------------------------------------------------------------------------

  Memory set to 134.110 GiB by Python driver.
gradient() will perform gradient computation by finite difference of analytic energies.

         ----------------------------------------------------------
                                   FINDIF
                     R. A. King and Jonathon Misiewicz
         ---------------------------------------------------------

  Using finite-differences of energies to determine gradients.
    Generating geometries for use with 3-point formula.
    Displacement size will be 5.00e-03.
    Number of atoms is 5.
    Number of symmetric SALCs is 5.
    Translations projected? 1. Rotations projected? 1.
    Number of geometries (including reference) is 11.

  //>>>>>>>>>>>>>>>>>>>>>>>>>>>>>>>>>>>//
  //    Loading displacement 1 of 11   //
  //<<<<<<<<<<<<<<<<<<<<<<<<<<<<<<<<<<<//

*** tstart() called on bp1-compute00048.data.bp.acrc.priv
*** at Wed Apr 28 13:25:39 2021

   => Loading Basis Set <=

    Name: CC-PV(D+D)Z
    Role: ORBITAL
    Keyword: BASIS
    atoms 1, 3-5 entry H          line    31 file /work/zw18965/.conda/envs/p4env/share/psi4/basis/cc-pv_dpd_z.gbs 
    atoms 2      entry C          line   147 file /work/zw18965/.conda/envs/p4env/share/psi4/basis/cc-pv_dpd_z.gbs 


         ---------------------------------------------------------
                                   SCF
               by Justin Turney, Rob Parrish, Andy Simmonett
                          and Daniel G. A. Smith
                              RKS Reference
                       24 Threads, 137329 MiB Core
         ---------------------------------------------------------

  ==> Geometry <==

    Molecular point group: c2
    Full point group: Td

    Geometry (in Angstrom), charge = 0, multiplicity = 1:

       Center              X                  Y                   Z               Mass       
    ------------   -----------------  -----------------  -----------------  -----------------
         H            0.000000000007     0.888266630384    -0.628099357864     1.007825032230
         C           -0.000000000000     0.000000000000     0.000000000006    12.000000000000
         H            0.888266630391     0.000000000002     0.628099357827     1.007825032230
         H           -0.888266630391    -0.000000000002     0.628099357827     1.007825032230
         H           -0.000000000007    -0.888266630384    -0.628099357864     1.007825032230

  Running in c2 symmetry.

  Rotational constants: A =      5.29986  B =      5.29986  C =      5.29986 [cm^-1]
  Rotational constants: A = 158885.90516  B = 158885.90516  C = 158885.90516 [MHz]
  Nuclear repulsion =   13.461323909034332

  Charge       = 0
  Multiplicity = 1
  Electrons    = 10
  Nalpha       = 5
  Nbeta        = 5

  ==> Algorithm <==

  SCF Algorithm Type is DF.
  DIIS enabled.
  MOM disabled.
  Fractional occupation disabled.
  Guess Type is SAD.
  Energy threshold   = 1.00e-08
  Density threshold  = 1.00e-08
  Integral threshold = 0.00e+00

  ==> Primary Basis <==

  Basis Set: CC-PV(D+D)Z
    Blend: CC-PV(D+D)Z
    Number of shells: 18
    Number of basis function: 34
    Number of Cartesian functions: 35
    Spherical Harmonics?: true
    Max angular momentum: 2

  ==> DFT Potential <==

   => Composite Functional: WB97X-V <= 

    wB97X-V Hyb-GGA Exchange-Correlation Functional

    N. Mardirossian and M. Head-Gordon, Phys. Chem. Chem. Phys. 16, 9904 (2014)

    Deriv               =              1
    GGA                 =           TRUE
    Meta                =          FALSE

    Exchange Hybrid     =           TRUE
    MP2 Hybrid          =          FALSE

   => Exchange-Correlation Functionals <=

    1.0000   wB97X-V range-separated functional

   => Exact (HF) Exchange <=

    0.8330            HF,LR [omega = 0.3000]
    0.1670               HF 

   => VV10 Non-Local Parameters <=

    VV10 B              =     6.0000E+00
    VV10 C              =     1.0000E-02

   => Molecular Quadrature <=

    Radial Scheme          =       TREUTLER
    Pruning Scheme         =           FLAT
    Nuclear Scheme         =       TREUTLER

    BS radius alpha        =              1
    Pruning alpha          =              1
    Radial Points          =             75
    Spherical Points       =            302
    Total Points           =         111374
    Total Blocks           =            915
    Max Points             =            256
    Max Functions          =             34

   => Loading Basis Set <=

    Name: (CC-PV(D+D)Z AUX)
    Role: JKFIT
    Keyword: DF_BASIS_SCF
    atoms 1, 3-5 entry H          line    51 file /work/zw18965/.conda/envs/p4env/share/psi4/basis/cc-pvdz-jkfit.gbs 
    atoms 2      entry C          line   121 file /work/zw18965/.conda/envs/p4env/share/psi4/basis/cc-pvdz-jkfit.gbs 

  ==> Pre-Iterations <==

   -------------------------------------------------------
    Irrep   Nso     Nmo     Nalpha   Nbeta   Ndocc  Nsocc
   -------------------------------------------------------
     A         18      18       0       0       0       0
     B         16      16       0       0       0       0
   -------------------------------------------------------
    Total      34      34       5       5       5       0
   -------------------------------------------------------

  ==> Integral Setup <==

  ==> DiskDFJK: Density-Fitted J/K Matrices <==

    J tasked:                  Yes
    K tasked:                  Yes
    wK tasked:                 Yes
    Omega:               3.000E-01
    OpenMP threads:             24
    Integrals threads:          24
    Memory [MiB]:           102887
    Algorithm:                Core
    Integral Cache:           NONE
    Schwarz Cutoff:          1E-12
    Fitting Condition:       1E-10

   => Auxiliary Basis Set <=

  Basis Set: (CC-PV(D+D)Z AUX)
    Blend: CC-PVDZ-JKFIT
    Number of shells: 60
    Number of basis function: 162
    Number of Cartesian functions: 181
    Spherical Harmonics?: true
    Max angular momentum: 3

  Cached 100.0% of DFT collocation blocks in 0.107 [GiB].

  Minimum eigenvalue in the overlap matrix is 2.3035928270E-02.
  Using Symmetric Orthogonalization.

  SCF Guess: Superposition of Atomic Densities via on-the-fly atomic UHF.

  ==> Iterations <==

                           Total Energy        Delta E     RMS |[F,P]|

   @DF-RKS iter SAD:   -40.00963715554861   -4.00096e+01   0.00000e+00 
   @DF-RKS iter   1:   -40.41288377845765   -4.03247e-01   1.65991e-02 DIIS
   @DF-RKS iter   2:   -40.46389082640442   -5.10070e-02   1.06766e-02 DIIS
   @DF-RKS iter   3:   -40.49721523363080   -3.33244e-02   4.75046e-04 DIIS
   @DF-RKS iter   4:   -40.49738804983742   -1.72816e-04   8.30560e-05 DIIS
   @DF-RKS iter   5:   -40.49739146563408   -3.41580e-06   6.71650e-06 DIIS
   @DF-RKS iter   6:   -40.49739149713279   -3.14987e-08   5.41111e-07 DIIS
   @DF-RKS iter   7:   -40.49739149727549   -1.42705e-10   4.10954e-08 DIIS
   @DF-RKS iter   8:   -40.49739149727649   -9.94760e-13   2.01971e-09 DIIS
  Energy and wave function converged.


  ==> Post-Iterations <==

    Orbital Energies [Eh]
    ---------------------

    Doubly Occupied:                                                      

       1A    -10.264062     2A     -0.821286     3A     -0.495279  
       1B     -0.495279     2B     -0.495279  

    Virtual:                                                              

       4A      0.164774     5A      0.238106     3B      0.238106  
       4B      0.238106     6A      0.518160     5B      0.518160  
       6B      0.518160     7A      0.769851     7B      0.769852  
       8B      0.769852     8A      0.805358     9A      1.006923  
      10A      1.006923    11A      1.152734    12A      1.538734  
       9B      1.538734    10B      1.538734    13A      1.734871  
      11B      1.734871    12B      1.734871    14A      2.046642  
      13B      2.046643    14B      2.046643    15A      2.367212  
      16A      2.367214    17A      2.549735    18A      2.580609  
      15B      2.580609    16B      2.580609  

    Final Occupation by Irrep:
              A     B 
    DOCC [     3,    2 ]

  @DF-RKS Final Energy:   -40.49739149727649

   => Energetics <=

    Nuclear Repulsion Energy =             13.4613239090343324
    One-Electron Energy =                 -79.8332538900590407
    Two-Electron Energy =                  30.3759297294106325
    DFT Exchange-Correlation Energy =      -4.5428109805115238
    Empirical Dispersion Energy =           0.0000000000000000
    VV10 Nonlocal Energy =                  0.0414197348491093
    Total Energy =                        -40.4973914972764959

Computation Completed


Properties will be evaluated at   0.000000,   0.000000,   0.000000 [a0]

Properties computed using the SCF density matrix

  Nuclear Dipole Moment: [e a0]
     X:     0.0000      Y:     0.0000      Z:    -0.0000

  Electronic Dipole Moment: [e a0]
     X:     0.0000      Y:     0.0000      Z:     0.0000

  Dipole Moment: [e a0]
     X:     0.0000      Y:     0.0000      Z:     0.0000     Total:     0.0000

  Dipole Moment: [D]
     X:     0.0000      Y:     0.0000      Z:     0.0000     Total:     0.0000


*** tstop() called on bp1-compute00048.data.bp.acrc.priv at Wed Apr 28 13:25:42 2021
Module time:
	user time   =      72.84 seconds =       1.21 minutes
	system time =       2.27 seconds =       0.04 minutes
	total time  =          3 seconds =       0.05 minutes
Total time:
	user time   =      72.84 seconds =       1.21 minutes
	system time =       2.27 seconds =       0.04 minutes
	total time  =          3 seconds =       0.05 minutes

  //>>>>>>>>>>>>>>>>>>>>>>>>>>>>>>>>>>>//
  //    Loading displacement 2 of 11   //
  //<<<<<<<<<<<<<<<<<<<<<<<<<<<<<<<<<<<//

*** tstart() called on bp1-compute00048.data.bp.acrc.priv
*** at Wed Apr 28 13:25:42 2021

   => Loading Basis Set <=

    Name: CC-PV(D+D)Z
    Role: ORBITAL
    Keyword: BASIS
    atoms 1, 3-5 entry H          line    31 file /work/zw18965/.conda/envs/p4env/share/psi4/basis/cc-pv_dpd_z.gbs 
    atoms 2      entry C          line   147 file /work/zw18965/.conda/envs/p4env/share/psi4/basis/cc-pv_dpd_z.gbs 


         ---------------------------------------------------------
                                   SCF
               by Justin Turney, Rob Parrish, Andy Simmonett
                          and Daniel G. A. Smith
                              RKS Reference
                       24 Threads, 137329 MiB Core
         ---------------------------------------------------------

  ==> Geometry <==

    Molecular point group: c2
    Full point group: C2

    Geometry (in Angstrom), charge = 0, multiplicity = 1:

       Center              X                  Y                   Z               Mass       
    ------------   -----------------  -----------------  -----------------  -----------------
         H           -0.001317797164     0.888266630384    -0.628099357864     1.007825032230
         C           -0.000000000000    -0.000000000000     0.000000000006    12.000000000000
         H            0.888266630391    -0.001317797169     0.628099357827     1.007825032230
         H           -0.888266630391     0.001317797169     0.628099357827     1.007825032230
         H            0.001317797164    -0.888266630384    -0.628099357864     1.007825032230

  Running in c2 symmetry.

  Rotational constants: A =      5.30773  B =      5.29985  C =      5.29201 [cm^-1]
  Rotational constants: A = 159121.79684  B = 158885.55546  C = 158650.36318 [MHz]
  Nuclear repulsion =   13.461315016536261

  Charge       = 0
  Multiplicity = 1
  Electrons    = 10
  Nalpha       = 5
  Nbeta        = 5

  ==> Algorithm <==

  SCF Algorithm Type is DF.
  DIIS enabled.
  MOM disabled.
  Fractional occupation disabled.
  Guess Type is SAD.
  Energy threshold   = 1.00e-08
  Density threshold  = 1.00e-08
  Integral threshold = 0.00e+00

  ==> Primary Basis <==

  Basis Set: CC-PV(D+D)Z
    Blend: CC-PV(D+D)Z
    Number of shells: 18
    Number of basis function: 34
    Number of Cartesian functions: 35
    Spherical Harmonics?: true
    Max angular momentum: 2

  ==> DFT Potential <==

   => Composite Functional: WB97X-V <= 

    wB97X-V Hyb-GGA Exchange-Correlation Functional

    N. Mardirossian and M. Head-Gordon, Phys. Chem. Chem. Phys. 16, 9904 (2014)

    Deriv               =              1
    GGA                 =           TRUE
    Meta                =          FALSE

    Exchange Hybrid     =           TRUE
    MP2 Hybrid          =          FALSE

   => Exchange-Correlation Functionals <=

    1.0000   wB97X-V range-separated functional

   => Exact (HF) Exchange <=

    0.8330            HF,LR [omega = 0.3000]
    0.1670               HF 

   => VV10 Non-Local Parameters <=

    VV10 B              =     6.0000E+00
    VV10 C              =     1.0000E-02

   => Molecular Quadrature <=

    Radial Scheme          =       TREUTLER
    Pruning Scheme         =           FLAT
    Nuclear Scheme         =       TREUTLER

    BS radius alpha        =              1
    Pruning alpha          =              1
    Radial Points          =             75
    Spherical Points       =            302
    Total Points           =         111358
    Total Blocks           =            915
    Max Points             =            255
    Max Functions          =             34

   => Loading Basis Set <=

    Name: (CC-PV(D+D)Z AUX)
    Role: JKFIT
    Keyword: DF_BASIS_SCF
    atoms 1, 3-5 entry H          line    51 file /work/zw18965/.conda/envs/p4env/share/psi4/basis/cc-pvdz-jkfit.gbs 
    atoms 2      entry C          line   121 file /work/zw18965/.conda/envs/p4env/share/psi4/basis/cc-pvdz-jkfit.gbs 

  ==> Pre-Iterations <==

   -------------------------------------------------------
    Irrep   Nso     Nmo     Nalpha   Nbeta   Ndocc  Nsocc
   -------------------------------------------------------
     A         18      18       0       0       0       0
     B         16      16       0       0       0       0
   -------------------------------------------------------
    Total      34      34       5       5       5       0
   -------------------------------------------------------

  ==> Integral Setup <==

  ==> DiskDFJK: Density-Fitted J/K Matrices <==

    J tasked:                  Yes
    K tasked:                  Yes
    wK tasked:                 Yes
    Omega:               3.000E-01
    OpenMP threads:             24
    Integrals threads:          24
    Memory [MiB]:           102887
    Algorithm:                Core
    Integral Cache:           NONE
    Schwarz Cutoff:          1E-12
    Fitting Condition:       1E-10

   => Auxiliary Basis Set <=

  Basis Set: (CC-PV(D+D)Z AUX)
    Blend: CC-PVDZ-JKFIT
    Number of shells: 60
    Number of basis function: 162
    Number of Cartesian functions: 181
    Spherical Harmonics?: true
    Max angular momentum: 3

  Cached 100.0% of DFT collocation blocks in 0.107 [GiB].

  Minimum eigenvalue in the overlap matrix is 2.3035958204E-02.
  Using Symmetric Orthogonalization.

  SCF Guess: Superposition of Atomic Densities via on-the-fly atomic UHF.

  ==> Iterations <==

                           Total Energy        Delta E     RMS |[F,P]|

   @DF-RKS iter SAD:   -40.00964379624591   -4.00096e+01   0.00000e+00 
   @DF-RKS iter   1:   -40.41288470245518   -4.03241e-01   1.65990e-02 DIIS
   @DF-RKS iter   2:   -40.46389163617378   -5.10069e-02   1.06765e-02 DIIS
   @DF-RKS iter   3:   -40.49721558505137   -3.33239e-02   4.75054e-04 DIIS
   @DF-RKS iter   4:   -40.49738841007790   -1.72825e-04   8.30599e-05 DIIS
   @DF-RKS iter   5:   -40.49739182636244   -3.41628e-06   6.71746e-06 DIIS
   @DF-RKS iter   6:   -40.49739185787162   -3.15092e-08   5.41192e-07 DIIS
   @DF-RKS iter   7:   -40.49739185801437   -1.42755e-10   4.11271e-08 DIIS
   @DF-RKS iter   8:   -40.49739185801538   -1.00187e-12   2.03746e-09 DIIS
  Energy and wave function converged.


  ==> Post-Iterations <==

    Orbital Energies [Eh]
    ---------------------

    Doubly Occupied:                                                      

       1A    -10.264064     2A     -0.821287     1B     -0.495679  
       3A     -0.495279     2B     -0.494880  

    Virtual:                                                              

       4A      0.164774     3B      0.238051     5A      0.238105  
       4B      0.238158     5B      0.517705     6A      0.518157  
       6B      0.518611     7B      0.769702     7A      0.769850  
       8B      0.769998     8A      0.805353     9A      1.006522  
      10A      1.007319    11A      1.152734     9B      1.538347  
      12A      1.538725    10B      1.539119    11B      1.734827  
      13A      1.734880    12B      1.734918    13B      2.045459  
      14A      2.046638    14B      2.047807    15A      2.366237  
      16A      2.368169    17A      2.549737    15B      2.580122  
      18A      2.580607    16B      2.581096  

    Final Occupation by Irrep:
              A     B 
    DOCC [     3,    2 ]

  @DF-RKS Final Energy:   -40.49739185801538

   => Energetics <=

    Nuclear Repulsion Energy =             13.4613150165362612
    One-Electron Energy =                 -79.8332320131869295
    Two-Electron Energy =                  30.3759153175936945
    DFT Exchange-Correlation Energy =      -4.5428101141571595
    Empirical Dispersion Energy =           0.0000000000000000
    VV10 Nonlocal Energy =                  0.0414199351987561
    Total Energy =                        -40.4973918580153835

Computation Completed


Properties will be evaluated at   0.000000,   0.000000,   0.000000 [a0]

Properties computed using the SCF density matrix

  Nuclear Dipole Moment: [e a0]
     X:     0.0000      Y:     0.0000      Z:    -0.0000

  Electronic Dipole Moment: [e a0]
     X:     0.0000      Y:     0.0000      Z:     0.0000

  Dipole Moment: [e a0]
     X:     0.0000      Y:     0.0000      Z:     0.0000     Total:     0.0000

  Dipole Moment: [D]
     X:     0.0000      Y:     0.0000      Z:     0.0000     Total:     0.0000


*** tstop() called on bp1-compute00048.data.bp.acrc.priv at Wed Apr 28 13:25:46 2021
Module time:
	user time   =      73.06 seconds =       1.22 minutes
	system time =       2.27 seconds =       0.04 minutes
	total time  =          4 seconds =       0.07 minutes
Total time:
	user time   =     146.08 seconds =       2.43 minutes
	system time =       4.54 seconds =       0.08 minutes
	total time  =          7 seconds =       0.12 minutes

  //>>>>>>>>>>>>>>>>>>>>>>>>>>>>>>>>>>>//
  //    Loading displacement 3 of 11   //
  //<<<<<<<<<<<<<<<<<<<<<<<<<<<<<<<<<<<//

*** tstart() called on bp1-compute00048.data.bp.acrc.priv
*** at Wed Apr 28 13:25:46 2021

   => Loading Basis Set <=

    Name: CC-PV(D+D)Z
    Role: ORBITAL
    Keyword: BASIS
    atoms 1, 3-5 entry H          line    31 file /work/zw18965/.conda/envs/p4env/share/psi4/basis/cc-pv_dpd_z.gbs 
    atoms 2      entry C          line   147 file /work/zw18965/.conda/envs/p4env/share/psi4/basis/cc-pv_dpd_z.gbs 


         ---------------------------------------------------------
                                   SCF
               by Justin Turney, Rob Parrish, Andy Simmonett
                          and Daniel G. A. Smith
                              RKS Reference
                       24 Threads, 137329 MiB Core
         ---------------------------------------------------------

  ==> Geometry <==

    Molecular point group: c2
    Full point group: C2

    Geometry (in Angstrom), charge = 0, multiplicity = 1:

       Center              X                  Y                   Z               Mass       
    ------------   -----------------  -----------------  -----------------  -----------------
         H            0.001317797178     0.888266630384    -0.628099357864     1.007825032230
         C           -0.000000000000     0.000000000000     0.000000000006    12.000000000000
         H            0.888266630391     0.001317797173     0.628099357827     1.007825032230
         H           -0.888266630391    -0.001317797173     0.628099357827     1.007825032230
         H           -0.001317797178    -0.888266630384    -0.628099357864     1.007825032230

  Running in c2 symmetry.

  Rotational constants: A =      5.30773  B =      5.29985  C =      5.29201 [cm^-1]
  Rotational constants: A = 159121.79684  B = 158885.55546  C = 158650.36317 [MHz]
  Nuclear repulsion =   13.461315016536149

  Charge       = 0
  Multiplicity = 1
  Electrons    = 10
  Nalpha       = 5
  Nbeta        = 5

  ==> Algorithm <==

  SCF Algorithm Type is DF.
  DIIS enabled.
  MOM disabled.
  Fractional occupation disabled.
  Guess Type is SAD.
  Energy threshold   = 1.00e-08
  Density threshold  = 1.00e-08
  Integral threshold = 0.00e+00

  ==> Primary Basis <==

  Basis Set: CC-PV(D+D)Z
    Blend: CC-PV(D+D)Z
    Number of shells: 18
    Number of basis function: 34
    Number of Cartesian functions: 35
    Spherical Harmonics?: true
    Max angular momentum: 2

  ==> DFT Potential <==

   => Composite Functional: WB97X-V <= 

    wB97X-V Hyb-GGA Exchange-Correlation Functional

    N. Mardirossian and M. Head-Gordon, Phys. Chem. Chem. Phys. 16, 9904 (2014)

    Deriv               =              1
    GGA                 =           TRUE
    Meta                =          FALSE

    Exchange Hybrid     =           TRUE
    MP2 Hybrid          =          FALSE

   => Exchange-Correlation Functionals <=

    1.0000   wB97X-V range-separated functional

   => Exact (HF) Exchange <=

    0.8330            HF,LR [omega = 0.3000]
    0.1670               HF 

   => VV10 Non-Local Parameters <=

    VV10 B              =     6.0000E+00
    VV10 C              =     1.0000E-02

   => Molecular Quadrature <=

    Radial Scheme          =       TREUTLER
    Pruning Scheme         =           FLAT
    Nuclear Scheme         =       TREUTLER

    BS radius alpha        =              1
    Pruning alpha          =              1
    Radial Points          =             75
    Spherical Points       =            302
    Total Points           =         111358
    Total Blocks           =            915
    Max Points             =            255
    Max Functions          =             34

   => Loading Basis Set <=

    Name: (CC-PV(D+D)Z AUX)
    Role: JKFIT
    Keyword: DF_BASIS_SCF
    atoms 1, 3-5 entry H          line    51 file /work/zw18965/.conda/envs/p4env/share/psi4/basis/cc-pvdz-jkfit.gbs 
    atoms 2      entry C          line   121 file /work/zw18965/.conda/envs/p4env/share/psi4/basis/cc-pvdz-jkfit.gbs 

  ==> Pre-Iterations <==

   -------------------------------------------------------
    Irrep   Nso     Nmo     Nalpha   Nbeta   Ndocc  Nsocc
   -------------------------------------------------------
     A         18      18       0       0       0       0
     B         16      16       0       0       0       0
   -------------------------------------------------------
    Total      34      34       5       5       5       0
   -------------------------------------------------------

  ==> Integral Setup <==

  ==> DiskDFJK: Density-Fitted J/K Matrices <==

    J tasked:                  Yes
    K tasked:                  Yes
    wK tasked:                 Yes
    Omega:               3.000E-01
    OpenMP threads:             24
    Integrals threads:          24
    Memory [MiB]:           102887
    Algorithm:                Core
    Integral Cache:           NONE
    Schwarz Cutoff:          1E-12
    Fitting Condition:       1E-10

   => Auxiliary Basis Set <=

  Basis Set: (CC-PV(D+D)Z AUX)
    Blend: CC-PVDZ-JKFIT
    Number of shells: 60
    Number of basis function: 162
    Number of Cartesian functions: 181
    Spherical Harmonics?: true
    Max angular momentum: 3

  Cached 100.0% of DFT collocation blocks in 0.107 [GiB].

  Minimum eigenvalue in the overlap matrix is 2.3035958204E-02.
  Using Symmetric Orthogonalization.

  SCF Guess: Superposition of Atomic Densities via on-the-fly atomic UHF.

  ==> Iterations <==

                           Total Energy        Delta E     RMS |[F,P]|

   @DF-RKS iter SAD:   -40.00964379626732   -4.00096e+01   0.00000e+00 
   @DF-RKS iter   1:   -40.41288470247993   -4.03241e-01   1.65990e-02 DIIS
   @DF-RKS iter   2:   -40.46389163619891   -5.10069e-02   1.06765e-02 DIIS
   @DF-RKS iter   3:   -40.49721558507556   -3.33239e-02   4.75054e-04 DIIS
   @DF-RKS iter   4:   -40.49738841010205   -1.72825e-04   8.30599e-05 DIIS
   @DF-RKS iter   5:   -40.49739182638664   -3.41628e-06   6.71746e-06 DIIS
   @DF-RKS iter   6:   -40.49739185789578   -3.15091e-08   5.41192e-07 DIIS
   @DF-RKS iter   7:   -40.49739185803856   -1.42784e-10   4.11271e-08 DIIS
   @DF-RKS iter   8:   -40.49739185803958   -1.01608e-12   2.03746e-09 DIIS
  Energy and wave function converged.


  ==> Post-Iterations <==

    Orbital Energies [Eh]
    ---------------------

    Doubly Occupied:                                                      

       1A    -10.264064     2A     -0.821287     1B     -0.495679  
       3A     -0.495279     2B     -0.494880  

    Virtual:                                                              

       4A      0.164774     3B      0.238051     5A      0.238105  
       4B      0.238158     5B      0.517705     6A      0.518157  
       6B      0.518611     7B      0.769702     7A      0.769850  
       8B      0.769998     8A      0.805353     9A      1.006522  
      10A      1.007319    11A      1.152734     9B      1.538347  
      12A      1.538725    10B      1.539119    11B      1.734827  
      13A      1.734880    12B      1.734918    13B      2.045459  
      14A      2.046638    14B      2.047807    15A      2.366237  
      16A      2.368169    17A      2.549737    15B      2.580122  
      18A      2.580607    16B      2.581096  

    Final Occupation by Irrep:
              A     B 
    DOCC [     3,    2 ]

  @DF-RKS Final Energy:   -40.49739185803958

   => Energetics <=

    Nuclear Repulsion Energy =             13.4613150165361493
    One-Electron Energy =                 -79.8332320131856790
    Two-Electron Energy =                  30.3759153175685306
    DFT Exchange-Correlation Energy =      -4.5428101141573336
    Empirical Dispersion Energy =           0.0000000000000000
    VV10 Nonlocal Energy =                  0.0414199351987568
    Total Energy =                        -40.4973918580395846

Computation Completed


Properties will be evaluated at   0.000000,   0.000000,   0.000000 [a0]

Properties computed using the SCF density matrix

  Nuclear Dipole Moment: [e a0]
     X:    -0.0000      Y:     0.0000      Z:    -0.0000

  Electronic Dipole Moment: [e a0]
     X:     0.0000      Y:     0.0000      Z:     0.0000

  Dipole Moment: [e a0]
     X:    -0.0000      Y:     0.0000      Z:    -0.0000     Total:     0.0000

  Dipole Moment: [D]
     X:    -0.0000      Y:     0.0000      Z:    -0.0000     Total:     0.0000


*** tstop() called on bp1-compute00048.data.bp.acrc.priv at Wed Apr 28 13:25:49 2021
Module time:
	user time   =      72.08 seconds =       1.20 minutes
	system time =       2.14 seconds =       0.04 minutes
	total time  =          3 seconds =       0.05 minutes
Total time:
	user time   =     218.32 seconds =       3.64 minutes
	system time =       6.68 seconds =       0.11 minutes
	total time  =         10 seconds =       0.17 minutes

  //>>>>>>>>>>>>>>>>>>>>>>>>>>>>>>>>>>>//
  //    Loading displacement 4 of 11   //
  //<<<<<<<<<<<<<<<<<<<<<<<<<<<<<<<<<<<//

*** tstart() called on bp1-compute00048.data.bp.acrc.priv
*** at Wed Apr 28 13:25:49 2021

   => Loading Basis Set <=

    Name: CC-PV(D+D)Z
    Role: ORBITAL
    Keyword: BASIS
    atoms 1, 3-5 entry H          line    31 file /work/zw18965/.conda/envs/p4env/share/psi4/basis/cc-pv_dpd_z.gbs 
    atoms 2      entry C          line   147 file /work/zw18965/.conda/envs/p4env/share/psi4/basis/cc-pv_dpd_z.gbs 


         ---------------------------------------------------------
                                   SCF
               by Justin Turney, Rob Parrish, Andy Simmonett
                          and Daniel G. A. Smith
                              RKS Reference
                       24 Threads, 137329 MiB Core
         ---------------------------------------------------------

  ==> Geometry <==

    Molecular point group: c2
    Full point group: D1

    Geometry (in Angstrom), charge = 0, multiplicity = 1:

       Center              X                  Y                   Z               Mass       
    ------------   -----------------  -----------------  -----------------  -----------------
         H            0.000000000007     0.886402983753    -0.628099357864     1.007825032230
         C            0.000000000000     0.000000000000     0.000000000006    12.000000000000
         H            0.888266630391     0.000000000002     0.628099357827     1.007825032230
         H           -0.888266630391    -0.000000000002     0.628099357827     1.007825032230
         H           -0.000000000007    -0.886402983753    -0.628099357864     1.007825032230

  Running in c2 symmetry.

  Rotational constants: A =      5.31099  B =      5.31099  C =      5.29986 [cm^-1]
  Rotational constants: A = 159219.60880  B = 159219.60880  C = 158885.90516 [MHz]
  Nuclear repulsion =   13.470747899164557

  Charge       = 0
  Multiplicity = 1
  Electrons    = 10
  Nalpha       = 5
  Nbeta        = 5

  ==> Algorithm <==

  SCF Algorithm Type is DF.
  DIIS enabled.
  MOM disabled.
  Fractional occupation disabled.
  Guess Type is SAD.
  Energy threshold   = 1.00e-08
  Density threshold  = 1.00e-08
  Integral threshold = 0.00e+00

  ==> Primary Basis <==

  Basis Set: CC-PV(D+D)Z
    Blend: CC-PV(D+D)Z
    Number of shells: 18
    Number of basis function: 34
    Number of Cartesian functions: 35
    Spherical Harmonics?: true
    Max angular momentum: 2

  ==> DFT Potential <==

   => Composite Functional: WB97X-V <= 

    wB97X-V Hyb-GGA Exchange-Correlation Functional

    N. Mardirossian and M. Head-Gordon, Phys. Chem. Chem. Phys. 16, 9904 (2014)

    Deriv               =              1
    GGA                 =           TRUE
    Meta                =          FALSE

    Exchange Hybrid     =           TRUE
    MP2 Hybrid          =          FALSE

   => Exchange-Correlation Functionals <=

    1.0000   wB97X-V range-separated functional

   => Exact (HF) Exchange <=

    0.8330            HF,LR [omega = 0.3000]
    0.1670               HF 

   => VV10 Non-Local Parameters <=

    VV10 B              =     6.0000E+00
    VV10 C              =     1.0000E-02

   => Molecular Quadrature <=

    Radial Scheme          =       TREUTLER
    Pruning Scheme         =           FLAT
    Nuclear Scheme         =       TREUTLER

    BS radius alpha        =              1
    Pruning alpha          =              1
    Radial Points          =             75
    Spherical Points       =            302
    Total Points           =         111410
    Total Blocks           =            914
    Max Points             =            256
    Max Functions          =             34

   => Loading Basis Set <=

    Name: (CC-PV(D+D)Z AUX)
    Role: JKFIT
    Keyword: DF_BASIS_SCF
    atoms 1, 3-5 entry H          line    51 file /work/zw18965/.conda/envs/p4env/share/psi4/basis/cc-pvdz-jkfit.gbs 
    atoms 2      entry C          line   121 file /work/zw18965/.conda/envs/p4env/share/psi4/basis/cc-pvdz-jkfit.gbs 

  ==> Pre-Iterations <==

   -------------------------------------------------------
    Irrep   Nso     Nmo     Nalpha   Nbeta   Ndocc  Nsocc
   -------------------------------------------------------
     A         18      18       0       0       0       0
     B         16      16       0       0       0       0
   -------------------------------------------------------
    Total      34      34       5       5       5       0
   -------------------------------------------------------

  ==> Integral Setup <==

  ==> DiskDFJK: Density-Fitted J/K Matrices <==

    J tasked:                  Yes
    K tasked:                  Yes
    wK tasked:                 Yes
    Omega:               3.000E-01
    OpenMP threads:             24
    Integrals threads:          24
    Memory [MiB]:           102887
    Algorithm:                Core
    Integral Cache:           NONE
    Schwarz Cutoff:          1E-12
    Fitting Condition:       1E-10

   => Auxiliary Basis Set <=

  Basis Set: (CC-PV(D+D)Z AUX)
    Blend: CC-PVDZ-JKFIT
    Number of shells: 60
    Number of basis function: 162
    Number of Cartesian functions: 181
    Spherical Harmonics?: true
    Max angular momentum: 3

  Cached 100.0% of DFT collocation blocks in 0.107 [GiB].

  Minimum eigenvalue in the overlap matrix is 2.3005348755E-02.
  Using Symmetric Orthogonalization.

  SCF Guess: Superposition of Atomic Densities via on-the-fly atomic UHF.

  ==> Iterations <==

                           Total Energy        Delta E     RMS |[F,P]|

   @DF-RKS iter SAD:   -40.01078079988650   -4.00108e+01   0.00000e+00 
   @DF-RKS iter   1:   -40.41271173052768   -4.01931e-01   1.66164e-02 DIIS
   @DF-RKS iter   2:   -40.46384080134035   -5.11291e-02   1.06789e-02 DIIS
   @DF-RKS iter   3:   -40.49716406349808   -3.33233e-02   4.74885e-04 DIIS
   @DF-RKS iter   4:   -40.49733665059327   -1.72587e-04   8.30346e-05 DIIS
   @DF-RKS iter   5:   -40.49734006414399   -3.41355e-06   6.71576e-06 DIIS
   @DF-RKS iter   6:   -40.49734009564463   -3.15006e-08   5.43499e-07 DIIS
   @DF-RKS iter   7:   -40.49734009578831   -1.43679e-10   4.44112e-08 DIIS
   @DF-RKS iter   8:   -40.49734009578947   -1.15818e-12   6.03969e-09 DIIS
  Energy and wave function converged.


  ==> Post-Iterations <==

    Orbital Energies [Eh]
    ---------------------

    Doubly Occupied:                                                      

       1A    -10.263743     2A     -0.821522     3A     -0.495604  
       1B     -0.495396     2B     -0.495244  

    Virtual:                                                              

       4A      0.164895     3B      0.238099     5A      0.238286  
       4B      0.238399     5B      0.517854     6B      0.518197  
       6A      0.518344     7B      0.769846     7A      0.770271  
       8B      0.770503     8A      0.806240     9A      1.006846  
      10A      1.007174    11A      1.152829     9B      1.538939  
      12A      1.539123    10B      1.539852    11B      1.734623  
      13A      1.735615    12B      1.736552    13B      2.046709  
      14A      2.046758    14B      2.048487    15A      2.368032  
      16A      2.368813    17A      2.551813    15B      2.580697  
      18A      2.582018    16B      2.583835  

    Final Occupation by Irrep:
              A     B 
    DOCC [     3,    2 ]

  @DF-RKS Final Energy:   -40.49734009578947

   => Energetics <=

    Nuclear Repulsion Energy =             13.4707478991645573
    One-Electron Energy =                 -79.8508122498071913
    Two-Electron Energy =                  30.3849527280398988
    DFT Exchange-Correlation Energy =      -4.5436493077780575
    Empirical Dispersion Energy =           0.0000000000000000
    VV10 Nonlocal Energy =                  0.0414208345913364
    Total Energy =                        -40.4973400957894683

Computation Completed


Properties will be evaluated at   0.000000,   0.000000,   0.000000 [a0]

Properties computed using the SCF density matrix

  Nuclear Dipole Moment: [e a0]
     X:     0.0000      Y:     0.0000      Z:    -0.0000

  Electronic Dipole Moment: [e a0]
     X:     0.0000      Y:     0.0000      Z:    -0.0006

  Dipole Moment: [e a0]
     X:     0.0000      Y:     0.0000      Z:    -0.0006     Total:     0.0006

  Dipole Moment: [D]
     X:     0.0000      Y:     0.0000      Z:    -0.0016     Total:     0.0016


*** tstop() called on bp1-compute00048.data.bp.acrc.priv at Wed Apr 28 13:25:52 2021
Module time:
	user time   =      77.40 seconds =       1.29 minutes
	system time =       2.32 seconds =       0.04 minutes
	total time  =          3 seconds =       0.05 minutes
Total time:
	user time   =     295.87 seconds =       4.93 minutes
	system time =       9.00 seconds =       0.15 minutes
	total time  =         13 seconds =       0.22 minutes

  //>>>>>>>>>>>>>>>>>>>>>>>>>>>>>>>>>>>//
  //    Loading displacement 5 of 11   //
  //<<<<<<<<<<<<<<<<<<<<<<<<<<<<<<<<<<<//

*** tstart() called on bp1-compute00048.data.bp.acrc.priv
*** at Wed Apr 28 13:25:52 2021

   => Loading Basis Set <=

    Name: CC-PV(D+D)Z
    Role: ORBITAL
    Keyword: BASIS
    atoms 1, 3-5 entry H          line    31 file /work/zw18965/.conda/envs/p4env/share/psi4/basis/cc-pv_dpd_z.gbs 
    atoms 2      entry C          line   147 file /work/zw18965/.conda/envs/p4env/share/psi4/basis/cc-pv_dpd_z.gbs 


         ---------------------------------------------------------
                                   SCF
               by Justin Turney, Rob Parrish, Andy Simmonett
                          and Daniel G. A. Smith
                              RKS Reference
                       24 Threads, 137329 MiB Core
         ---------------------------------------------------------

  ==> Geometry <==

    Molecular point group: c2
    Full point group: D1

    Geometry (in Angstrom), charge = 0, multiplicity = 1:

       Center              X                  Y                   Z               Mass       
    ------------   -----------------  -----------------  -----------------  -----------------
         H            0.000000000007     0.890130277016    -0.628099357864     1.007825032230
         C           -0.000000000000     0.000000000000     0.000000000006    12.000000000000
         H            0.888266630391     0.000000000002     0.628099357827     1.007825032230
         H           -0.888266630391    -0.000000000002     0.628099357827     1.007825032230
         H           -0.000000000007    -0.890130277016    -0.628099357864     1.007825032230

  Running in c2 symmetry.

  Rotational constants: A =      5.29986  B =      5.28876  C =      5.28876 [cm^-1]
  Rotational constants: A = 158885.90516  B = 158552.90092  C = 158552.90092 [MHz]
  Nuclear repulsion =   13.451919342910072

  Charge       = 0
  Multiplicity = 1
  Electrons    = 10
  Nalpha       = 5
  Nbeta        = 5

  ==> Algorithm <==

  SCF Algorithm Type is DF.
  DIIS enabled.
  MOM disabled.
  Fractional occupation disabled.
  Guess Type is SAD.
  Energy threshold   = 1.00e-08
  Density threshold  = 1.00e-08
  Integral threshold = 0.00e+00

  ==> Primary Basis <==

  Basis Set: CC-PV(D+D)Z
    Blend: CC-PV(D+D)Z
    Number of shells: 18
    Number of basis function: 34
    Number of Cartesian functions: 35
    Spherical Harmonics?: true
    Max angular momentum: 2

  ==> DFT Potential <==

   => Composite Functional: WB97X-V <= 

    wB97X-V Hyb-GGA Exchange-Correlation Functional

    N. Mardirossian and M. Head-Gordon, Phys. Chem. Chem. Phys. 16, 9904 (2014)

    Deriv               =              1
    GGA                 =           TRUE
    Meta                =          FALSE

    Exchange Hybrid     =           TRUE
    MP2 Hybrid          =          FALSE

   => Exchange-Correlation Functionals <=

    1.0000   wB97X-V range-separated functional

   => Exact (HF) Exchange <=

    0.8330            HF,LR [omega = 0.3000]
    0.1670               HF 

   => VV10 Non-Local Parameters <=

    VV10 B              =     6.0000E+00
    VV10 C              =     1.0000E-02

   => Molecular Quadrature <=

    Radial Scheme          =       TREUTLER
    Pruning Scheme         =           FLAT
    Nuclear Scheme         =       TREUTLER

    BS radius alpha        =              1
    Pruning alpha          =              1
    Radial Points          =             75
    Spherical Points       =            302
    Total Points           =         111410
    Total Blocks           =            908
    Max Points             =            256
    Max Functions          =             34

   => Loading Basis Set <=

    Name: (CC-PV(D+D)Z AUX)
    Role: JKFIT
    Keyword: DF_BASIS_SCF
    atoms 1, 3-5 entry H          line    51 file /work/zw18965/.conda/envs/p4env/share/psi4/basis/cc-pvdz-jkfit.gbs 
    atoms 2      entry C          line   121 file /work/zw18965/.conda/envs/p4env/share/psi4/basis/cc-pvdz-jkfit.gbs 

  ==> Pre-Iterations <==

   -------------------------------------------------------
    Irrep   Nso     Nmo     Nalpha   Nbeta   Ndocc  Nsocc
   -------------------------------------------------------
     A         18      18       0       0       0       0
     B         16      16       0       0       0       0
   -------------------------------------------------------
    Total      34      34       5       5       5       0
   -------------------------------------------------------

  ==> Integral Setup <==

  ==> DiskDFJK: Density-Fitted J/K Matrices <==

    J tasked:                  Yes
    K tasked:                  Yes
    wK tasked:                 Yes
    Omega:               3.000E-01
    OpenMP threads:             24
    Integrals threads:          24
    Memory [MiB]:           102887
    Algorithm:                Core
    Integral Cache:           NONE
    Schwarz Cutoff:          1E-12
    Fitting Condition:       1E-10

   => Auxiliary Basis Set <=

  Basis Set: (CC-PV(D+D)Z AUX)
    Blend: CC-PVDZ-JKFIT
    Number of shells: 60
    Number of basis function: 162
    Number of Cartesian functions: 181
    Spherical Harmonics?: true
    Max angular momentum: 3

  Cached 100.0% of DFT collocation blocks in 0.107 [GiB].

  Minimum eigenvalue in the overlap matrix is 2.3066226180E-02.
  Using Symmetric Orthogonalization.

  SCF Guess: Superposition of Atomic Densities via on-the-fly atomic UHF.

  ==> Iterations <==

                           Total Energy        Delta E     RMS |[F,P]|

   @DF-RKS iter SAD:   -40.00849319758141   -4.00085e+01   0.00000e+00 
   @DF-RKS iter   1:   -40.41304893698329   -4.04556e-01   1.65818e-02 DIIS
   @DF-RKS iter   2:   -40.46393449721494   -5.08856e-02   1.06743e-02 DIIS
   @DF-RKS iter   3:   -40.49726000676823   -3.33255e-02   4.75211e-04 DIIS
   @DF-RKS iter   4:   -40.49743305543689   -1.73049e-04   8.30799e-05 DIIS
   @DF-RKS iter   5:   -40.49743647378926   -3.41835e-06   6.71949e-06 DIIS
   @DF-RKS iter   6:   -40.49743650529732   -3.15081e-08   5.42574e-07 DIIS
   @DF-RKS iter   7:   -40.49743650544039   -1.43068e-10   4.44038e-08 DIIS
   @DF-RKS iter   8:   -40.49743650544152   -1.12976e-12   6.01284e-09 DIIS
  Energy and wave function converged.


  ==> Post-Iterations <==

    Orbital Energies [Eh]
    ---------------------

    Doubly Occupied:                                                      

       1A    -10.264383     2A     -0.821051     1B     -0.495313  
       2B     -0.495160     3A     -0.494956  

    Virtual:                                                              

       4A      0.164652     3B      0.237813     5A      0.237924  
       4B      0.238113     6A      0.517973     5B      0.518123  
       6B      0.518467     7B      0.769203     7A      0.769417  
       8B      0.769857     8A      0.804493     9A      1.006675  
      10A      1.006998    11A      1.152639     9B      1.537616  
      12A      1.538346    10B      1.538529    11B      1.733202  
      13A      1.734125    12B      1.735121    13B      2.044802  
      14A      2.046509    14B      2.046575    15A      2.365597  
      16A      2.366394    17A      2.547488    15B      2.577405  
      18A      2.579399    16B      2.580524  

    Final Occupation by Irrep:
              A     B 
    DOCC [     3,    2 ]

  @DF-RKS Final Energy:   -40.49743650544152

   => Energetics <=

    Nuclear Repulsion Energy =             13.4519193429100721
    One-Electron Energy =                 -79.8157155128147053
    Two-Electron Energy =                  30.3669148081895663
    DFT Exchange-Correlation Energy =      -4.5419734912532945
    Empirical Dispersion Energy =           0.0000000000000000
    VV10 Nonlocal Energy =                  0.0414183475268405
    Total Energy =                        -40.4974365054415202

Computation Completed


Properties will be evaluated at   0.000000,   0.000000,   0.000000 [a0]

Properties computed using the SCF density matrix

  Nuclear Dipole Moment: [e a0]
     X:     0.0000      Y:     0.0000      Z:    -0.0000

  Electronic Dipole Moment: [e a0]
     X:     0.0000      Y:     0.0000      Z:     0.0006

  Dipole Moment: [e a0]
     X:     0.0000      Y:     0.0000      Z:     0.0006     Total:     0.0006

  Dipole Moment: [D]
     X:     0.0000      Y:     0.0000      Z:     0.0016     Total:     0.0016


*** tstop() called on bp1-compute00048.data.bp.acrc.priv at Wed Apr 28 13:25:55 2021
Module time:
	user time   =      73.20 seconds =       1.22 minutes
	system time =       2.15 seconds =       0.04 minutes
	total time  =          3 seconds =       0.05 minutes
Total time:
	user time   =     369.22 seconds =       6.15 minutes
	system time =      11.16 seconds =       0.19 minutes
	total time  =         16 seconds =       0.27 minutes

  //>>>>>>>>>>>>>>>>>>>>>>>>>>>>>>>>>>>//
  //    Loading displacement 6 of 11   //
  //<<<<<<<<<<<<<<<<<<<<<<<<<<<<<<<<<<<//

*** tstart() called on bp1-compute00048.data.bp.acrc.priv
*** at Wed Apr 28 13:25:55 2021

   => Loading Basis Set <=

    Name: CC-PV(D+D)Z
    Role: ORBITAL
    Keyword: BASIS
    atoms 1, 3-5 entry H          line    31 file /work/zw18965/.conda/envs/p4env/share/psi4/basis/cc-pv_dpd_z.gbs 
    atoms 2      entry C          line   147 file /work/zw18965/.conda/envs/p4env/share/psi4/basis/cc-pv_dpd_z.gbs 


         ---------------------------------------------------------
                                   SCF
               by Justin Turney, Rob Parrish, Andy Simmonett
                          and Daniel G. A. Smith
                              RKS Reference
                       24 Threads, 137329 MiB Core
         ---------------------------------------------------------

  ==> Geometry <==

    Molecular point group: c2
    Full point group: C2v

    Geometry (in Angstrom), charge = 0, multiplicity = 1:

       Center              X                  Y                   Z               Mass       
    ------------   -----------------  -----------------  -----------------  -----------------
         H            0.000000000007     0.888266630384    -0.629841910154     1.007825032230
         C           -0.000000000000     0.000000000000     0.000250603840    12.000000000000
         H            0.888266630391     0.000000000002     0.628349961661     1.007825032230
         H           -0.888266630391    -0.000000000002     0.628349961661     1.007825032230
         H           -0.000000000007    -0.888266630384    -0.629841910154     1.007825032230

  Running in c2 symmetry.

  Rotational constants: A =      5.29986  B =      5.29146  C =      5.29146 [cm^-1]
  Rotational constants: A = 158885.90516  B = 158633.85854  C = 158633.85854 [MHz]
  Nuclear repulsion =   13.454204798086776

  Charge       = 0
  Multiplicity = 1
  Electrons    = 10
  Nalpha       = 5
  Nbeta        = 5

  ==> Algorithm <==

  SCF Algorithm Type is DF.
  DIIS enabled.
  MOM disabled.
  Fractional occupation disabled.
  Guess Type is SAD.
  Energy threshold   = 1.00e-08
  Density threshold  = 1.00e-08
  Integral threshold = 0.00e+00

  ==> Primary Basis <==

  Basis Set: CC-PV(D+D)Z
    Blend: CC-PV(D+D)Z
    Number of shells: 18
    Number of basis function: 34
    Number of Cartesian functions: 35
    Spherical Harmonics?: true
    Max angular momentum: 2

  ==> DFT Potential <==

   => Composite Functional: WB97X-V <= 

    wB97X-V Hyb-GGA Exchange-Correlation Functional

    N. Mardirossian and M. Head-Gordon, Phys. Chem. Chem. Phys. 16, 9904 (2014)

    Deriv               =              1
    GGA                 =           TRUE
    Meta                =          FALSE

    Exchange Hybrid     =           TRUE
    MP2 Hybrid          =          FALSE

   => Exchange-Correlation Functionals <=

    1.0000   wB97X-V range-separated functional

   => Exact (HF) Exchange <=

    0.8330            HF,LR [omega = 0.3000]
    0.1670               HF 

   => VV10 Non-Local Parameters <=

    VV10 B              =     6.0000E+00
    VV10 C              =     1.0000E-02

   => Molecular Quadrature <=

    Radial Scheme          =       TREUTLER
    Pruning Scheme         =           FLAT
    Nuclear Scheme         =       TREUTLER

    BS radius alpha        =              1
    Pruning alpha          =              1
    Radial Points          =             75
    Spherical Points       =            302
    Total Points           =         111370
    Total Blocks           =            923
    Max Points             =            256
    Max Functions          =             34

   => Loading Basis Set <=

    Name: (CC-PV(D+D)Z AUX)
    Role: JKFIT
    Keyword: DF_BASIS_SCF
    atoms 1, 3-5 entry H          line    51 file /work/zw18965/.conda/envs/p4env/share/psi4/basis/cc-pvdz-jkfit.gbs 
    atoms 2      entry C          line   121 file /work/zw18965/.conda/envs/p4env/share/psi4/basis/cc-pvdz-jkfit.gbs 

  ==> Pre-Iterations <==

   -------------------------------------------------------
    Irrep   Nso     Nmo     Nalpha   Nbeta   Ndocc  Nsocc
   -------------------------------------------------------
     A         18      18       0       0       0       0
     B         16      16       0       0       0       0
   -------------------------------------------------------
    Total      34      34       5       5       5       0
   -------------------------------------------------------

  ==> Integral Setup <==

  ==> DiskDFJK: Density-Fitted J/K Matrices <==

    J tasked:                  Yes
    K tasked:                  Yes
    wK tasked:                 Yes
    Omega:               3.000E-01
    OpenMP threads:             24
    Integrals threads:          24
    Memory [MiB]:           102887
    Algorithm:                Core
    Integral Cache:           NONE
    Schwarz Cutoff:          1E-12
    Fitting Condition:       1E-10

   => Auxiliary Basis Set <=

  Basis Set: (CC-PV(D+D)Z AUX)
    Blend: CC-PVDZ-JKFIT
    Number of shells: 60
    Number of basis function: 162
    Number of Cartesian functions: 181
    Spherical Harmonics?: true
    Max angular momentum: 3

  Cached 100.0% of DFT collocation blocks in 0.107 [GiB].

  Minimum eigenvalue in the overlap matrix is 2.3058943142E-02.
  Using Symmetric Orthogonalization.

  SCF Guess: Superposition of Atomic Densities via on-the-fly atomic UHF.

  ==> Iterations <==

                           Total Energy        Delta E     RMS |[F,P]|

   @DF-RKS iter SAD:   -40.00877560333446   -4.00088e+01   0.00000e+00 
   @DF-RKS iter   1:   -40.41300947910564   -4.04234e-01   1.65860e-02 DIIS
   @DF-RKS iter   2:   -40.46392460475613   -5.09151e-02   1.06749e-02 DIIS
   @DF-RKS iter   3:   -40.49724993173077   -3.33253e-02   4.75175e-04 DIIS
   @DF-RKS iter   4:   -40.49742292868509   -1.72997e-04   8.30759e-05 DIIS
   @DF-RKS iter   5:   -40.49742634660010   -3.41792e-06   6.71859e-06 DIIS
   @DF-RKS iter   6:   -40.49742637810808   -3.15080e-08   5.41043e-07 DIIS
   @DF-RKS iter   7:   -40.49742637825069   -1.42606e-10   4.15560e-08 DIIS
   @DF-RKS iter   8:   -40.49742637825172   -1.03029e-12   2.98489e-09 DIIS
  Energy and wave function converged.


  ==> Post-Iterations <==

    Orbital Energies [Eh]
    ---------------------

    Doubly Occupied:                                                      

       1A    -10.264305     2A     -0.821109     3A     -0.495461  
       1B     -0.495307     2B     -0.494762  

    Virtual:                                                              

       4A      0.164682     3B      0.237849     5A      0.238026  
       4B      0.238087     5B      0.517959     6B      0.518077  
       6A      0.518503     7B      0.769213     7A      0.769683  
       8B      0.769844     8A      0.804698     9A      1.006610  
      10A      1.007103    11A      1.152659    12A      1.538029  
       9B      1.538356    10B      1.538519    11B      1.734179  
      13A      1.734357    12B      1.734441    14A      2.045287  
      13B      2.045775    14B      2.047312    15A      2.365694  
      16A      2.366883    17A      2.548025    15B      2.578665  
      18A      2.579184    16B      2.580582  

    Final Occupation by Irrep:
              A     B 
    DOCC [     3,    2 ]

  @DF-RKS Final Energy:   -40.49742637825172

   => Energetics <=

    Nuclear Repulsion Energy =             13.4542047980867761
    One-Electron Energy =                 -79.8199781405993747
    Two-Electron Energy =                  30.3691051026012921
    DFT Exchange-Correlation Energy =      -4.5421769711469171
    Empirical Dispersion Energy =           0.0000000000000000
    VV10 Nonlocal Energy =                  0.0414188328065023
    Total Energy =                        -40.4974263782517170

Computation Completed


Properties will be evaluated at   0.000000,   0.000000,   0.000000 [a0]

Properties computed using the SCF density matrix

  Nuclear Dipole Moment: [e a0]
     X:     0.0000      Y:     0.0000      Z:    -0.0028

  Electronic Dipole Moment: [e a0]
     X:     0.0000      Y:     0.0000      Z:     0.0027

  Dipole Moment: [e a0]
     X:     0.0000      Y:     0.0000      Z:    -0.0001     Total:     0.0001

  Dipole Moment: [D]
     X:     0.0000      Y:     0.0000      Z:    -0.0001     Total:     0.0001


*** tstop() called on bp1-compute00048.data.bp.acrc.priv at Wed Apr 28 13:25:59 2021
Module time:
	user time   =      73.32 seconds =       1.22 minutes
	system time =       2.01 seconds =       0.03 minutes
	total time  =          4 seconds =       0.07 minutes
Total time:
	user time   =     442.68 seconds =       7.38 minutes
	system time =      13.18 seconds =       0.22 minutes
	total time  =         20 seconds =       0.33 minutes

  //>>>>>>>>>>>>>>>>>>>>>>>>>>>>>>>>>>>//
  //    Loading displacement 7 of 11   //
  //<<<<<<<<<<<<<<<<<<<<<<<<<<<<<<<<<<<//

*** tstart() called on bp1-compute00048.data.bp.acrc.priv
*** at Wed Apr 28 13:25:59 2021

   => Loading Basis Set <=

    Name: CC-PV(D+D)Z
    Role: ORBITAL
    Keyword: BASIS
    atoms 1, 3-5 entry H          line    31 file /work/zw18965/.conda/envs/p4env/share/psi4/basis/cc-pv_dpd_z.gbs 
    atoms 2      entry C          line   147 file /work/zw18965/.conda/envs/p4env/share/psi4/basis/cc-pv_dpd_z.gbs 


         ---------------------------------------------------------
                                   SCF
               by Justin Turney, Rob Parrish, Andy Simmonett
                          and Daniel G. A. Smith
                              RKS Reference
                       24 Threads, 137329 MiB Core
         ---------------------------------------------------------

  ==> Geometry <==

    Molecular point group: c2
    Full point group: C2v

    Geometry (in Angstrom), charge = 0, multiplicity = 1:

       Center              X                  Y                   Z               Mass       
    ------------   -----------------  -----------------  -----------------  -----------------
         H            0.000000000007     0.888266630384    -0.626356805574     1.007825032230
         C           -0.000000000000     0.000000000000    -0.000250603827    12.000000000000
         H            0.888266630391     0.000000000002     0.627848753994     1.007825032230
         H           -0.888266630391    -0.000000000002     0.627848753994     1.007825032230
         H           -0.000000000007    -0.888266630384    -0.626356805574     1.007825032230

  Running in c2 symmetry.

  Rotational constants: A =      5.30827  B =      5.30827  C =      5.29986 [cm^-1]
  Rotational constants: A = 159138.05236  B = 159138.05236  C = 158885.90516 [MHz]
  Nuclear repulsion =   13.468443769812589

  Charge       = 0
  Multiplicity = 1
  Electrons    = 10
  Nalpha       = 5
  Nbeta        = 5

  ==> Algorithm <==

  SCF Algorithm Type is DF.
  DIIS enabled.
  MOM disabled.
  Fractional occupation disabled.
  Guess Type is SAD.
  Energy threshold   = 1.00e-08
  Density threshold  = 1.00e-08
  Integral threshold = 0.00e+00

  ==> Primary Basis <==

  Basis Set: CC-PV(D+D)Z
    Blend: CC-PV(D+D)Z
    Number of shells: 18
    Number of basis function: 34
    Number of Cartesian functions: 35
    Spherical Harmonics?: true
    Max angular momentum: 2

  ==> DFT Potential <==

   => Composite Functional: WB97X-V <= 

    wB97X-V Hyb-GGA Exchange-Correlation Functional

    N. Mardirossian and M. Head-Gordon, Phys. Chem. Chem. Phys. 16, 9904 (2014)

    Deriv               =              1
    GGA                 =           TRUE
    Meta                =          FALSE

    Exchange Hybrid     =           TRUE
    MP2 Hybrid          =          FALSE

   => Exchange-Correlation Functionals <=

    1.0000   wB97X-V range-separated functional

   => Exact (HF) Exchange <=

    0.8330            HF,LR [omega = 0.3000]
    0.1670               HF 

   => VV10 Non-Local Parameters <=

    VV10 B              =     6.0000E+00
    VV10 C              =     1.0000E-02

   => Molecular Quadrature <=

    Radial Scheme          =       TREUTLER
    Pruning Scheme         =           FLAT
    Nuclear Scheme         =       TREUTLER

    BS radius alpha        =              1
    Pruning alpha          =              1
    Radial Points          =             75
    Spherical Points       =            302
    Total Points           =         111366
    Total Blocks           =            926
    Max Points             =            256
    Max Functions          =             34

   => Loading Basis Set <=

    Name: (CC-PV(D+D)Z AUX)
    Role: JKFIT
    Keyword: DF_BASIS_SCF
    atoms 1, 3-5 entry H          line    51 file /work/zw18965/.conda/envs/p4env/share/psi4/basis/cc-pvdz-jkfit.gbs 
    atoms 2      entry C          line   121 file /work/zw18965/.conda/envs/p4env/share/psi4/basis/cc-pvdz-jkfit.gbs 

  ==> Pre-Iterations <==

   -------------------------------------------------------
    Irrep   Nso     Nmo     Nalpha   Nbeta   Ndocc  Nsocc
   -------------------------------------------------------
     A         18      18       0       0       0       0
     B         16      16       0       0       0       0
   -------------------------------------------------------
    Total      34      34       5       5       5       0
   -------------------------------------------------------

  ==> Integral Setup <==

  ==> DiskDFJK: Density-Fitted J/K Matrices <==

    J tasked:                  Yes
    K tasked:                  Yes
    wK tasked:                 Yes
    Omega:               3.000E-01
    OpenMP threads:             24
    Integrals threads:          24
    Memory [MiB]:           102887
    Algorithm:                Core
    Integral Cache:           NONE
    Schwarz Cutoff:          1E-12
    Fitting Condition:       1E-10

   => Auxiliary Basis Set <=

  Basis Set: (CC-PV(D+D)Z AUX)
    Blend: CC-PVDZ-JKFIT
    Number of shells: 60
    Number of basis function: 162
    Number of Cartesian functions: 181
    Spherical Harmonics?: true
    Max angular momentum: 3

  Cached 100.0% of DFT collocation blocks in 0.107 [GiB].

  Minimum eigenvalue in the overlap matrix is 2.3012904972E-02.
  Using Symmetric Orthogonalization.

  SCF Guess: Superposition of Atomic Densities via on-the-fly atomic UHF.

  ==> Iterations <==

                           Total Energy        Delta E     RMS |[F,P]|

   @DF-RKS iter SAD:   -40.01050561853103   -4.00105e+01   0.00000e+00 
   @DF-RKS iter   1:   -40.41275447942152   -4.02249e-01   1.66122e-02 DIIS
   @DF-RKS iter   2:   -40.46385375729586   -5.10993e-02   1.06783e-02 DIIS
   @DF-RKS iter   3:   -40.49717738367220   -3.33236e-02   4.74929e-04 DIIS
   @DF-RKS iter   4:   -40.49735003152017   -1.72648e-04   8.30416e-05 DIIS
   @DF-RKS iter   5:   -40.49735344580308   -3.41428e-06   6.71577e-06 DIIS
   @DF-RKS iter   6:   -40.49735347730544   -3.15024e-08   5.41730e-07 DIIS
   @DF-RKS iter   7:   -40.49735347744856   -1.43118e-10   4.15321e-08 DIIS
   @DF-RKS iter   8:   -40.49735347744954   -9.80549e-13   2.96733e-09 DIIS
  Energy and wave function converged.


  ==> Post-Iterations <==

    Orbital Energies [Eh]
    ---------------------

    Doubly Occupied:                                                      

       1A    -10.263820     2A     -0.821465     1B     -0.495798  
       2B     -0.495252     3A     -0.495096  

    Virtual:                                                              

       4A      0.164865     3B      0.238124     5A      0.238185  
       4B      0.238360     6A      0.517814     5B      0.518237  
       6B      0.518359     7B      0.769856     7A      0.770012  
       8B      0.770491     8A      0.806019     9A      1.006742  
      10A      1.007234    11A      1.152803     9B      1.538938  
      10B      1.539111    12A      1.539442    11B      1.735302  
      13A      1.735386    12B      1.735571    13B      2.045958  
      14B      2.047506    14A      2.047987    15A      2.367526  
      16A      2.368723    17A      2.551299    15B      2.580636  
      18A      2.582203    16B      2.582563  

    Final Occupation by Irrep:
              A     B 
    DOCC [     3,    2 ]

  @DF-RKS Final Energy:   -40.49735347744954

   => Energetics <=

    Nuclear Repulsion Energy =             13.4684437698125894
    One-Electron Energy =                 -79.8465198682443571
    Two-Electron Energy =                  30.3827461982927858
    DFT Exchange-Correlation Energy =      -4.5434442939076209
    Empirical Dispersion Energy =           0.0000000000000000
    VV10 Nonlocal Energy =                  0.0414207165970588
    Total Energy =                        -40.4973534774495363

Computation Completed


Properties will be evaluated at   0.000000,   0.000000,   0.000000 [a0]

Properties computed using the SCF density matrix

  Nuclear Dipole Moment: [e a0]
     X:     0.0000      Y:     0.0000      Z:     0.0028

  Electronic Dipole Moment: [e a0]
     X:     0.0000      Y:     0.0000      Z:    -0.0027

  Dipole Moment: [e a0]
     X:     0.0000      Y:     0.0000      Z:     0.0001     Total:     0.0001

  Dipole Moment: [D]
     X:     0.0000      Y:     0.0000      Z:     0.0001     Total:     0.0001


*** tstop() called on bp1-compute00048.data.bp.acrc.priv at Wed Apr 28 13:26:02 2021
Module time:
	user time   =      72.54 seconds =       1.21 minutes
	system time =       2.00 seconds =       0.03 minutes
	total time  =          3 seconds =       0.05 minutes
Total time:
	user time   =     515.37 seconds =       8.59 minutes
	system time =      15.18 seconds =       0.25 minutes
	total time  =         23 seconds =       0.38 minutes

  //>>>>>>>>>>>>>>>>>>>>>>>>>>>>>>>>>>>//
  //    Loading displacement 8 of 11   //
  //<<<<<<<<<<<<<<<<<<<<<<<<<<<<<<<<<<<//

*** tstart() called on bp1-compute00048.data.bp.acrc.priv
*** at Wed Apr 28 13:26:02 2021

   => Loading Basis Set <=

    Name: CC-PV(D+D)Z
    Role: ORBITAL
    Keyword: BASIS
    atoms 1, 3-5 entry H          line    31 file /work/zw18965/.conda/envs/p4env/share/psi4/basis/cc-pv_dpd_z.gbs 
    atoms 2      entry C          line   147 file /work/zw18965/.conda/envs/p4env/share/psi4/basis/cc-pv_dpd_z.gbs 


         ---------------------------------------------------------
                                   SCF
               by Justin Turney, Rob Parrish, Andy Simmonett
                          and Daniel G. A. Smith
                              RKS Reference
                       24 Threads, 137329 MiB Core
         ---------------------------------------------------------

  ==> Geometry <==

    Molecular point group: c2
    Full point group: C2v

    Geometry (in Angstrom), charge = 0, multiplicity = 1:

       Center              X                  Y                   Z               Mass       
    ------------   -----------------  -----------------  -----------------  -----------------
         H            0.000000000007     0.888266630384    -0.628099357864     1.007825032230
         C           -0.000000000000     0.000000000000    -0.000289655281    12.000000000000
         H            0.888266630391     0.000000000002     0.629823795766     1.007825032230
         H           -0.888266630391    -0.000000000002     0.629823795766     1.007825032230
         H           -0.000000000007    -0.888266630384    -0.628099357864     1.007825032230

  Running in c2 symmetry.

  Rotational constants: A =      5.29986  B =      5.29259  C =      5.29259 [cm^-1]
  Rotational constants: A = 158885.90516  B = 158667.74591  C = 158667.74591 [MHz]
  Nuclear repulsion =   13.455164558213795

  Charge       = 0
  Multiplicity = 1
  Electrons    = 10
  Nalpha       = 5
  Nbeta        = 5

  ==> Algorithm <==

  SCF Algorithm Type is DF.
  DIIS enabled.
  MOM disabled.
  Fractional occupation disabled.
  Guess Type is SAD.
  Energy threshold   = 1.00e-08
  Density threshold  = 1.00e-08
  Integral threshold = 0.00e+00

  ==> Primary Basis <==

  Basis Set: CC-PV(D+D)Z
    Blend: CC-PV(D+D)Z
    Number of shells: 18
    Number of basis function: 34
    Number of Cartesian functions: 35
    Spherical Harmonics?: true
    Max angular momentum: 2

  ==> DFT Potential <==

   => Composite Functional: WB97X-V <= 

    wB97X-V Hyb-GGA Exchange-Correlation Functional

    N. Mardirossian and M. Head-Gordon, Phys. Chem. Chem. Phys. 16, 9904 (2014)

    Deriv               =              1
    GGA                 =           TRUE
    Meta                =          FALSE

    Exchange Hybrid     =           TRUE
    MP2 Hybrid          =          FALSE

   => Exchange-Correlation Functionals <=

    1.0000   wB97X-V range-separated functional

   => Exact (HF) Exchange <=

    0.8330            HF,LR [omega = 0.3000]
    0.1670               HF 

   => VV10 Non-Local Parameters <=

    VV10 B              =     6.0000E+00
    VV10 C              =     1.0000E-02

   => Molecular Quadrature <=

    Radial Scheme          =       TREUTLER
    Pruning Scheme         =           FLAT
    Nuclear Scheme         =       TREUTLER

    BS radius alpha        =              1
    Pruning alpha          =              1
    Radial Points          =             75
    Spherical Points       =            302
    Total Points           =         111368
    Total Blocks           =            923
    Max Points             =            256
    Max Functions          =             34

   => Loading Basis Set <=

    Name: (CC-PV(D+D)Z AUX)
    Role: JKFIT
    Keyword: DF_BASIS_SCF
    atoms 1, 3-5 entry H          line    51 file /work/zw18965/.conda/envs/p4env/share/psi4/basis/cc-pvdz-jkfit.gbs 
    atoms 2      entry C          line   121 file /work/zw18965/.conda/envs/p4env/share/psi4/basis/cc-pvdz-jkfit.gbs 

  ==> Pre-Iterations <==

   -------------------------------------------------------
    Irrep   Nso     Nmo     Nalpha   Nbeta   Ndocc  Nsocc
   -------------------------------------------------------
     A         18      18       0       0       0       0
     B         16      16       0       0       0       0
   -------------------------------------------------------
    Total      34      34       5       5       5       0
   -------------------------------------------------------

  ==> Integral Setup <==

  ==> DiskDFJK: Density-Fitted J/K Matrices <==

    J tasked:                  Yes
    K tasked:                  Yes
    wK tasked:                 Yes
    Omega:               3.000E-01
    OpenMP threads:             24
    Integrals threads:          24
    Memory [MiB]:           102887
    Algorithm:                Core
    Integral Cache:           NONE
    Schwarz Cutoff:          1E-12
    Fitting Condition:       1E-10

   => Auxiliary Basis Set <=

  Basis Set: (CC-PV(D+D)Z AUX)
    Blend: CC-PVDZ-JKFIT
    Number of shells: 60
    Number of basis function: 162
    Number of Cartesian functions: 181
    Spherical Harmonics?: true
    Max angular momentum: 3

  Cached 100.0% of DFT collocation blocks in 0.107 [GiB].

  Minimum eigenvalue in the overlap matrix is 2.3055827550E-02.
  Using Symmetric Orthogonalization.

  SCF Guess: Superposition of Atomic Densities via on-the-fly atomic UHF.

  ==> Iterations <==

                           Total Energy        Delta E     RMS |[F,P]|

   @DF-RKS iter SAD:   -40.00889207856990   -4.00089e+01   0.00000e+00 
   @DF-RKS iter   1:   -40.41299220995720   -4.04100e-01   1.65878e-02 DIIS
   @DF-RKS iter   2:   -40.46391976680046   -5.09276e-02   1.06751e-02 DIIS
   @DF-RKS iter   3:   -40.49724502522457   -3.33253e-02   4.75159e-04 DIIS
   @DF-RKS iter   4:   -40.49741799862817   -1.72973e-04   8.30735e-05 DIIS
   @DF-RKS iter   5:   -40.49742141629339   -3.41767e-06   6.71844e-06 DIIS
   @DF-RKS iter   6:   -40.49742144780101   -3.15076e-08   5.41161e-07 DIIS
   @DF-RKS iter   7:   -40.49742144794365   -1.42641e-10   4.16977e-08 DIIS
   @DF-RKS iter   8:   -40.49742144794471   -1.05871e-12   3.23045e-09 DIIS
  Energy and wave function converged.


  ==> Post-Iterations <==

    Orbital Energies [Eh]
    ---------------------

    Doubly Occupied:                                                      

       1A    -10.264272     2A     -0.821133     3A     -0.495436  
       1B     -0.495383     2B     -0.494752  

    Virtual:                                                              

       4A      0.164694     3B      0.237849     5A      0.238037  
       4B      0.238124     5B      0.517968     6B      0.518105  
       6A      0.518456     7B      0.769207     7A      0.769704  
       8B      0.769937     8A      0.804788     9A      1.006652  
      10A      1.007079    11A      1.152669    12A      1.538124  
       9B      1.538383    10B      1.538572    11B      1.734233  
      13A      1.734426    12B      1.734537    14A      2.045469  
      13B      2.045668    14B      2.047445    15A      2.365898  
      16A      2.366926    17A      2.548220    15B      2.578649  
      18A      2.579414    16B      2.580865  

    Final Occupation by Irrep:
              A     B 
    DOCC [     3,    2 ]

  @DF-RKS Final Energy:   -40.49742144794471

   => Energetics <=

    Nuclear Repulsion Energy =             13.4551645582137951
    One-Electron Energy =                 -79.8217668849110993
    Two-Electron Energy =                  30.3700243203220204
    DFT Exchange-Correlation Energy =      -4.5422624014388120
    Empirical Dispersion Energy =           0.0000000000000000
    VV10 Nonlocal Energy =                  0.0414189598693860
    Total Energy =                        -40.4974214479447099

Computation Completed


Properties will be evaluated at   0.000000,   0.000000,   0.000000 [a0]

Properties computed using the SCF density matrix

  Nuclear Dipole Moment: [e a0]
     X:     0.0000      Y:     0.0000      Z:     0.0032

  Electronic Dipole Moment: [e a0]
     X:     0.0000      Y:     0.0000      Z:    -0.0032

  Dipole Moment: [e a0]
     X:     0.0000      Y:     0.0000      Z:     0.0001     Total:     0.0001

  Dipole Moment: [D]
     X:     0.0000      Y:     0.0000      Z:     0.0002     Total:     0.0002


*** tstop() called on bp1-compute00048.data.bp.acrc.priv at Wed Apr 28 13:26:05 2021
Module time:
	user time   =      72.72 seconds =       1.21 minutes
	system time =       1.95 seconds =       0.03 minutes
	total time  =          3 seconds =       0.05 minutes
Total time:
	user time   =     588.22 seconds =       9.80 minutes
	system time =      17.13 seconds =       0.29 minutes
	total time  =         26 seconds =       0.43 minutes

  //>>>>>>>>>>>>>>>>>>>>>>>>>>>>>>>>>>>//
  //    Loading displacement 9 of 11   //
  //<<<<<<<<<<<<<<<<<<<<<<<<<<<<<<<<<<<//

*** tstart() called on bp1-compute00048.data.bp.acrc.priv
*** at Wed Apr 28 13:26:05 2021

   => Loading Basis Set <=

    Name: CC-PV(D+D)Z
    Role: ORBITAL
    Keyword: BASIS
    atoms 1, 3-5 entry H          line    31 file /work/zw18965/.conda/envs/p4env/share/psi4/basis/cc-pv_dpd_z.gbs 
    atoms 2      entry C          line   147 file /work/zw18965/.conda/envs/p4env/share/psi4/basis/cc-pv_dpd_z.gbs 


         ---------------------------------------------------------
                                   SCF
               by Justin Turney, Rob Parrish, Andy Simmonett
                          and Daniel G. A. Smith
                              RKS Reference
                       24 Threads, 137329 MiB Core
         ---------------------------------------------------------

  ==> Geometry <==

    Molecular point group: c2
    Full point group: C2v

    Geometry (in Angstrom), charge = 0, multiplicity = 1:

       Center              X                  Y                   Z               Mass       
    ------------   -----------------  -----------------  -----------------  -----------------
         H            0.000000000007     0.888266630384    -0.628099357864     1.007825032230
         C           -0.000000000000     0.000000000000     0.000289655293    12.000000000000
         H            0.888266630391     0.000000000002     0.626374919889     1.007825032230
         H           -0.888266630391    -0.000000000002     0.626374919889     1.007825032230
         H           -0.000000000007    -0.888266630384    -0.628099357864     1.007825032230

  Running in c2 symmetry.

  Rotational constants: A =      5.30714  B =      5.30714  C =      5.29986 [cm^-1]
  Rotational constants: A = 159103.96382  B = 159103.96382  C = 158885.90516 [MHz]
  Nuclear repulsion =   13.467483821115112

  Charge       = 0
  Multiplicity = 1
  Electrons    = 10
  Nalpha       = 5
  Nbeta        = 5

  ==> Algorithm <==

  SCF Algorithm Type is DF.
  DIIS enabled.
  MOM disabled.
  Fractional occupation disabled.
  Guess Type is SAD.
  Energy threshold   = 1.00e-08
  Density threshold  = 1.00e-08
  Integral threshold = 0.00e+00

  ==> Primary Basis <==

  Basis Set: CC-PV(D+D)Z
    Blend: CC-PV(D+D)Z
    Number of shells: 18
    Number of basis function: 34
    Number of Cartesian functions: 35
    Spherical Harmonics?: true
    Max angular momentum: 2

  ==> DFT Potential <==

   => Composite Functional: WB97X-V <= 

    wB97X-V Hyb-GGA Exchange-Correlation Functional

    N. Mardirossian and M. Head-Gordon, Phys. Chem. Chem. Phys. 16, 9904 (2014)

    Deriv               =              1
    GGA                 =           TRUE
    Meta                =          FALSE

    Exchange Hybrid     =           TRUE
    MP2 Hybrid          =          FALSE

   => Exchange-Correlation Functionals <=

    1.0000   wB97X-V range-separated functional

   => Exact (HF) Exchange <=

    0.8330            HF,LR [omega = 0.3000]
    0.1670               HF 

   => VV10 Non-Local Parameters <=

    VV10 B              =     6.0000E+00
    VV10 C              =     1.0000E-02

   => Molecular Quadrature <=

    Radial Scheme          =       TREUTLER
    Pruning Scheme         =           FLAT
    Nuclear Scheme         =       TREUTLER

    BS radius alpha        =              1
    Pruning alpha          =              1
    Radial Points          =             75
    Spherical Points       =            302
    Total Points           =         111366
    Total Blocks           =            926
    Max Points             =            255
    Max Functions          =             34

   => Loading Basis Set <=

    Name: (CC-PV(D+D)Z AUX)
    Role: JKFIT
    Keyword: DF_BASIS_SCF
    atoms 1, 3-5 entry H          line    51 file /work/zw18965/.conda/envs/p4env/share/psi4/basis/cc-pvdz-jkfit.gbs 
    atoms 2      entry C          line   121 file /work/zw18965/.conda/envs/p4env/share/psi4/basis/cc-pvdz-jkfit.gbs 

  ==> Pre-Iterations <==

   -------------------------------------------------------
    Irrep   Nso     Nmo     Nalpha   Nbeta   Ndocc  Nsocc
   -------------------------------------------------------
     A         18      18       0       0       0       0
     B         16      16       0       0       0       0
   -------------------------------------------------------
    Total      34      34       5       5       5       0
   -------------------------------------------------------

  ==> Integral Setup <==

  ==> DiskDFJK: Density-Fitted J/K Matrices <==

    J tasked:                  Yes
    K tasked:                  Yes
    wK tasked:                 Yes
    Omega:               3.000E-01
    OpenMP threads:             24
    Integrals threads:          24
    Memory [MiB]:           102887
    Algorithm:                Core
    Integral Cache:           NONE
    Schwarz Cutoff:          1E-12
    Fitting Condition:       1E-10

   => Auxiliary Basis Set <=

  Basis Set: (CC-PV(D+D)Z AUX)
    Blend: CC-PVDZ-JKFIT
    Number of shells: 60
    Number of basis function: 162
    Number of Cartesian functions: 181
    Spherical Harmonics?: true
    Max angular momentum: 3

  Cached 100.0% of DFT collocation blocks in 0.107 [GiB].

  Minimum eigenvalue in the overlap matrix is 2.3015996242E-02.
  Using Symmetric Orthogonalization.

  SCF Guess: Superposition of Atomic Densities via on-the-fly atomic UHF.

  ==> Iterations <==

                           Total Energy        Delta E     RMS |[F,P]|

   @DF-RKS iter SAD:   -40.01038885188258   -4.00104e+01   0.00000e+00 
   @DF-RKS iter   1:   -40.41277158946637   -4.02383e-01   1.66104e-02 DIIS
   @DF-RKS iter   2:   -40.46385847094192   -5.10869e-02   1.06781e-02 DIIS
   @DF-RKS iter   3:   -40.49718225783767   -3.33238e-02   4.74945e-04 DIIS
   @DF-RKS iter   4:   -40.49735492920060   -1.72671e-04   8.30438e-05 DIIS
   @DF-RKS iter   5:   -40.49735834372335   -3.41452e-06   6.71599e-06 DIIS
   @DF-RKS iter   6:   -40.49735837522606   -3.15027e-08   5.41754e-07 DIIS
[...]
    OpenMP threads:             24
    Integrals threads:          24
    Memory [MiB]:           102887
    Algorithm:                Core
    Integral Cache:           NONE
    Schwarz Cutoff:          1E-12
    Fitting Condition:       1E-10

   => Auxiliary Basis Set <=

  Basis Set: (CC-PV(D+D)Z AUX)
    Blend: CC-PVDZ-JKFIT
    Number of shells: 60
    Number of basis function: 162
    Number of Cartesian functions: 181
    Spherical Harmonics?: true
    Max angular momentum: 3

  Cached 100.0% of DFT collocation blocks in 0.107 [GiB].

  Minimum eigenvalue in the overlap matrix is 2.3804598667E-02.
  Using Symmetric Orthogonalization.

  SCF Guess: Orbitals guess was supplied from a previous computation.

  ==> Iterations <==

                           Total Energy        Delta E     RMS |[F,P]|

   @DF-RKS iter   0:   -40.48136456621506   -4.04814e+01   5.13419e-05 
   @DF-RKS iter   1:   -40.48189795004890   -5.33384e-04   1.66497e-05 DIIS
   @DF-RKS iter   2:   -40.48189802071104   -7.06621e-08   9.87418e-06 DIIS
   @DF-RKS iter   3:   -40.48189804838140   -2.76704e-08   9.84748e-07 DIIS
   @DF-RKS iter   4:   -40.48189804880462   -4.23221e-10   2.09339e-07 DIIS
   @DF-RKS iter   5:   -40.48189804882627   -2.16573e-11   2.56560e-08 DIIS
   @DF-RKS iter   6:   -40.48189804882680   -5.25802e-13   3.58534e-09 DIIS
   @DF-RKS iter   7:   -40.48189804882679    1.42109e-14   3.57588e-10 DIIS
   @DF-RKS iter   8:   -40.48189804882682   -3.55271e-14   4.24147e-11 DIIS
  Energy and wave function converged.


  ==> Post-Iterations <==

    Orbital Energies [Eh]
    ---------------------

    Doubly Occupied:                                                      

       1A    -10.271724     2A     -0.818918     1B     -0.544668  
       3A     -0.471358     2B     -0.456941  

    Virtual:                                                              

       4A      0.160122     3B      0.225253     5A      0.232063  
       4B      0.232798     5B      0.493939     6A      0.506259  
       6B      0.603466     7A      0.740583     7B      0.749920  
       8A      0.758213     8B      0.774658     9A      0.944149  
      10A      1.049069    11A      1.199431    12A      1.468431  
       9B      1.498064    10B      1.502831    11B      1.709640  
      12B      1.800107    13A      1.820224    13B      1.840651  
      14A      2.074820    14B      2.085657    15A      2.222019  
      16A      2.350384    15B      2.497315    17A      2.565502  
      18A      2.586793    16B      2.622084  

    Final Occupation by Irrep:
              A     B 
    DOCC [     3,    2 ]

  @DF-RKS Final Energy:   -40.48189804882682

   => Energetics <=

    Nuclear Repulsion Energy =             13.2740206713238429
    One-Electron Energy =                 -79.4560587468576216
    Two-Electron Energy =                  30.1811200283656831
    DFT Exchange-Correlation Energy =      -4.5223517038319994
    Empirical Dispersion Energy =           0.0000000000000000
    VV10 Nonlocal Energy =                  0.0413717021732787
    Total Energy =                        -40.4818980488268210

Computation Completed


Properties will be evaluated at   0.000000,   0.000000,   0.000000 [a0]

Properties computed using the SCF density matrix

  Nuclear Dipole Moment: [e a0]
     X:     0.0000      Y:     0.0000      Z:    -0.0094

  Electronic Dipole Moment: [e a0]
     X:     0.0000      Y:     0.0000      Z:     0.0077

  Dipole Moment: [e a0]
     X:     0.0000      Y:     0.0000      Z:    -0.0017     Total:     0.0017

  Dipole Moment: [D]
     X:     0.0000      Y:     0.0000      Z:    -0.0042     Total:     0.0042


*** tstop() called on bp1-compute00048.data.bp.acrc.priv at Wed Apr 28 13:31:33 2021
Module time:
	user time   =      60.15 seconds =       1.00 minutes
	system time =       1.42 seconds =       0.02 minutes
	total time  =          3 seconds =       0.05 minutes
Total time:
	user time   =    8240.95 seconds =     137.35 minutes
	system time =     206.64 seconds =       3.44 minutes
	total time  =        354 seconds =       5.90 minutes

  //>>>>>>>>>>>>>>>>>>>>>>>>>>>>>>>>>>>//
  //   Loading displacement 31 of 47   //
  //<<<<<<<<<<<<<<<<<<<<<<<<<<<<<<<<<<<//

*** tstart() called on bp1-compute00048.data.bp.acrc.priv
*** at Wed Apr 28 13:31:33 2021

   => Loading Basis Set <=

    Name: CC-PV(D+D)Z
    Role: ORBITAL
    Keyword: BASIS
    atoms 1, 3-5 entry H          line    31 file /work/zw18965/.conda/envs/p4env/share/psi4/basis/cc-pv_dpd_z.gbs 
    atoms 2      entry C          line   147 file /work/zw18965/.conda/envs/p4env/share/psi4/basis/cc-pv_dpd_z.gbs 


         ---------------------------------------------------------
                                   SCF
               by Justin Turney, Rob Parrish, Andy Simmonett
                          and Daniel G. A. Smith
                              RKS Reference
                       24 Threads, 137329 MiB Core
         ---------------------------------------------------------

  ==> Geometry <==

    Molecular point group: c2
    Full point group: C2

    Geometry (in Angstrom), charge = 0, multiplicity = 1:

       Center              X                  Y                   Z               Mass       
    ------------   -----------------  -----------------  -----------------  -----------------
         H           -0.145365244480     0.922138455479    -0.589834861415     1.007825032230
         C            0.000000000000     0.000000000000     0.000259643845    12.000000000000
         H            0.922249315593    -0.145053722526     0.588289094023     1.007825032230
         H           -0.922249315593     0.145053722526     0.588289094023     1.007825032230
         H            0.145365244480    -0.922138455479    -0.589834861415     1.007825032230

  Running in c2 symmetry.

  Rotational constants: A =      6.44479  B =      4.79811  C =      4.56182 [cm^-1]
  Rotational constants: A = 193210.01579  B = 143843.76088  C = 136760.01416 [MHz]
  Nuclear repulsion =   13.281735640331325

  Charge       = 0
  Multiplicity = 1
  Electrons    = 10
  Nalpha       = 5
  Nbeta        = 5

  ==> Algorithm <==

  SCF Algorithm Type is DF.
  DIIS enabled.
  MOM disabled.
  Fractional occupation disabled.
  Guess Type is READ.
  Energy threshold   = 1.00e-10
  Density threshold  = 1.00e-10
  Integral threshold = 0.00e+00

  ==> Primary Basis <==

  Basis Set: CC-PV(D+D)Z
    Blend: CC-PV(D+D)Z
    Number of shells: 18
    Number of basis function: 34
    Number of Cartesian functions: 35
    Spherical Harmonics?: true
    Max angular momentum: 2

  ==> DFT Potential <==

   => Composite Functional: WB97X-V <= 

    wB97X-V Hyb-GGA Exchange-Correlation Functional

    N. Mardirossian and M. Head-Gordon, Phys. Chem. Chem. Phys. 16, 9904 (2014)

    Deriv               =              1
    GGA                 =           TRUE
    Meta                =          FALSE

    Exchange Hybrid     =           TRUE
    MP2 Hybrid          =          FALSE

   => Exchange-Correlation Functionals <=

    1.0000   wB97X-V range-separated functional

   => Exact (HF) Exchange <=

    0.8330            HF,LR [omega = 0.3000]
    0.1670               HF 

   => VV10 Non-Local Parameters <=

    VV10 B              =     6.0000E+00
    VV10 C              =     1.0000E-02

   => Molecular Quadrature <=

    Radial Scheme          =       TREUTLER
    Pruning Scheme         =           FLAT
    Nuclear Scheme         =       TREUTLER

    BS radius alpha        =              1
    Pruning alpha          =              1
    Radial Points          =             75
    Spherical Points       =            302
    Total Points           =         111384
    Total Blocks           =            912
    Max Points             =            256
    Max Functions          =             34

   => Loading Basis Set <=

    Name: (CC-PV(D+D)Z AUX)
    Role: JKFIT
    Keyword: DF_BASIS_SCF
    atoms 1, 3-5 entry H          line    51 file /work/zw18965/.conda/envs/p4env/share/psi4/basis/cc-pvdz-jkfit.gbs 
    atoms 2      entry C          line   121 file /work/zw18965/.conda/envs/p4env/share/psi4/basis/cc-pvdz-jkfit.gbs 

   => Loading Basis Set <=

    Name: CC-PV(D+D)Z
    Role: ORBITAL
    Keyword: BASIS
    atoms 1, 3-5 entry H          line    31 file /work/zw18965/.conda/envs/p4env/share/psi4/basis/cc-pv_dpd_z.gbs 
    atoms 2      entry C          line   147 file /work/zw18965/.conda/envs/p4env/share/psi4/basis/cc-pv_dpd_z.gbs 

  Reading orbitals from file 180, no projection.

  ==> Pre-Iterations <==

   -------------------------------------------------------
    Irrep   Nso     Nmo     Nalpha   Nbeta   Ndocc  Nsocc
   -------------------------------------------------------
     A         18      18       0       0       0       0
     B         16      16       0       0       0       0
   -------------------------------------------------------
    Total      34      34       5       5       5       0
   -------------------------------------------------------

  ==> Integral Setup <==

  ==> DiskDFJK: Density-Fitted J/K Matrices <==

    J tasked:                  Yes
    K tasked:                  Yes
    wK tasked:                 Yes
    Omega:               3.000E-01
    OpenMP threads:             24
    Integrals threads:          24
    Memory [MiB]:           102887
    Algorithm:                Core
    Integral Cache:           NONE
    Schwarz Cutoff:          1E-12
    Fitting Condition:       1E-10

   => Auxiliary Basis Set <=

  Basis Set: (CC-PV(D+D)Z AUX)
    Blend: CC-PVDZ-JKFIT
    Number of shells: 60
    Number of basis function: 162
    Number of Cartesian functions: 181
    Spherical Harmonics?: true
    Max angular momentum: 3

  Cached 100.0% of DFT collocation blocks in 0.107 [GiB].

  Minimum eigenvalue in the overlap matrix is 2.3772738218E-02.
  Using Symmetric Orthogonalization.

  SCF Guess: Orbitals guess was supplied from a previous computation.

  ==> Iterations <==

                           Total Energy        Delta E     RMS |[F,P]|

   @DF-RKS iter   0:   -40.48265719770494   -4.04827e+01   5.10809e-05 
   @DF-RKS iter   1:   -40.48212896239554    5.28235e-04   1.64198e-05 DIIS
   @DF-RKS iter   2:   -40.48212903159973   -6.92042e-08   9.66856e-06 DIIS
   @DF-RKS iter   3:   -40.48212905811360   -2.65139e-08   9.93506e-07 DIIS
   @DF-RKS iter   4:   -40.48212905854161   -4.28010e-10   2.09976e-07 DIIS
   @DF-RKS iter   5:   -40.48212905856344   -2.18279e-11   2.56748e-08 DIIS
   @DF-RKS iter   6:   -40.48212905856393   -4.97380e-13   3.59484e-09 DIIS
   @DF-RKS iter   7:   -40.48212905856395   -1.42109e-14   3.56193e-10 DIIS
   @DF-RKS iter   8:   -40.48212905856397   -2.13163e-14   4.21232e-11 DIIS
  Energy and wave function converged.


  ==> Post-Iterations <==

    Orbital Energies [Eh]
    ---------------------

    Doubly Occupied:                                                      

       1A    -10.271441     2A     -0.819077     1B     -0.544327  
       3A     -0.472295     2B     -0.456750  

    Virtual:                                                              

       4A      0.160276     3B      0.225195     5A      0.232476  
       4B      0.232984     5B      0.493583     6A      0.506925  
       6B      0.602483     7A      0.741953     7B      0.749913  
       8A      0.758844     8B      0.774964     9A      0.944694  
      10A      1.048414    11A      1.199339    12A      1.468387  
       9B      1.498516    10B      1.505032    11B      1.711184  
      12B      1.798492    13A      1.820164    13B      1.842905  
      14A      2.074631    14B      2.086634    15A      2.223271  
      16A      2.353060    15B      2.499090    17A      2.566694  
      18A      2.585991    16B      2.624097  

    Final Occupation by Irrep:
              A     B 
    DOCC [     3,    2 ]

  @DF-RKS Final Energy:   -40.48212905856397

   => Energetics <=

    Nuclear Repulsion Energy =             13.2817356403313251
    One-Electron Energy =                 -79.4709118629219944
    Two-Electron Energy =                  30.1887677722736463
    DFT Exchange-Correlation Energy =      -4.5230936880781183
    Empirical Dispersion Energy =           0.0000000000000000
    VV10 Nonlocal Energy =                  0.0413730798311760
    Total Energy =                        -40.4821290585639701

Computation Completed


Properties will be evaluated at   0.000000,   0.000000,   0.000000 [a0]

Properties computed using the SCF density matrix

  Nuclear Dipole Moment: [e a0]
     X:     0.0000      Y:     0.0000      Z:    -0.0029

  Electronic Dipole Moment: [e a0]
     X:     0.0000      Y:     0.0000      Z:     0.0028

  Dipole Moment: [e a0]
     X:     0.0000      Y:     0.0000      Z:    -0.0001     Total:     0.0001

  Dipole Moment: [D]
     X:     0.0000      Y:     0.0000      Z:    -0.0003     Total:     0.0003


*** tstop() called on bp1-compute00048.data.bp.acrc.priv at Wed Apr 28 13:31:35 2021
Module time:
	user time   =      59.90 seconds =       1.00 minutes
	system time =       1.57 seconds =       0.03 minutes
	total time  =          2 seconds =       0.03 minutes
Total time:
	user time   =    8300.99 seconds =     138.35 minutes
	system time =     208.21 seconds =       3.47 minutes
	total time  =        356 seconds =       5.93 minutes

  //>>>>>>>>>>>>>>>>>>>>>>>>>>>>>>>>>>>//
  //   Loading displacement 32 of 47   //
  //<<<<<<<<<<<<<<<<<<<<<<<<<<<<<<<<<<<//

*** tstart() called on bp1-compute00048.data.bp.acrc.priv
*** at Wed Apr 28 13:31:36 2021

   => Loading Basis Set <=

    Name: CC-PV(D+D)Z
    Role: ORBITAL
    Keyword: BASIS
    atoms 1, 3-5 entry H          line    31 file /work/zw18965/.conda/envs/p4env/share/psi4/basis/cc-pv_dpd_z.gbs 
    atoms 2      entry C          line   147 file /work/zw18965/.conda/envs/p4env/share/psi4/basis/cc-pv_dpd_z.gbs 


         ---------------------------------------------------------
                                   SCF
               by Justin Turney, Rob Parrish, Andy Simmonett
                          and Daniel G. A. Smith
                              RKS Reference
                       24 Threads, 137329 MiB Core
         ---------------------------------------------------------

  ==> Geometry <==

    Molecular point group: c1
    Full point group: C1

    Geometry (in Angstrom), charge = 0, multiplicity = 1:

       Center              X                  Y                   Z               Mass       
    ------------   -----------------  -----------------  -----------------  -----------------
         H           -0.146862588930     0.922229526223    -0.589823242571     1.007825032230
         C            0.000291149063    -0.000000084812     0.000549299132    12.000000000000
         H            0.923854343458    -0.145433847788     0.587373457620     1.007825032230
         H           -0.924326316569     0.145252716144     0.585755854550     1.007825032230
         H            0.143867900029    -0.922047384736    -0.589846480259     1.007825032230

  Running in c1 symmetry.

  Rotational constants: A =      6.44889  B =      4.78855  C =      4.56115 [cm^-1]
  Rotational constants: A = 193332.91381  B = 143557.14966  C = 136739.93733 [MHz]
  Nuclear repulsion =   13.277885366859961

  Charge       = 0
  Multiplicity = 1
  Electrons    = 10
  Nalpha       = 5
  Nbeta        = 5

  ==> Algorithm <==

  SCF Algorithm Type is DF.
  DIIS enabled.
  MOM disabled.
  Fractional occupation disabled.
  Guess Type is READ.
  Energy threshold   = 1.00e-10
  Density threshold  = 1.00e-10
  Integral threshold = 0.00e+00

  ==> Primary Basis <==

  Basis Set: CC-PV(D+D)Z
    Blend: CC-PV(D+D)Z
    Number of shells: 18
    Number of basis function: 34
    Number of Cartesian functions: 35
    Spherical Harmonics?: true
    Max angular momentum: 2

  ==> DFT Potential <==

   => Composite Functional: WB97X-V <= 

    wB97X-V Hyb-GGA Exchange-Correlation Functional

    N. Mardirossian and M. Head-Gordon, Phys. Chem. Chem. Phys. 16, 9904 (2014)

    Deriv               =              1
    GGA                 =           TRUE
    Meta                =          FALSE

    Exchange Hybrid     =           TRUE
    MP2 Hybrid          =          FALSE

   => Exchange-Correlation Functionals <=

    1.0000   wB97X-V range-separated functional

   => Exact (HF) Exchange <=

    0.8330            HF,LR [omega = 0.3000]
    0.1670               HF 

   => VV10 Non-Local Parameters <=

    VV10 B              =     6.0000E+00
    VV10 C              =     1.0000E-02

   => Molecular Quadrature <=

    Radial Scheme          =       TREUTLER
    Pruning Scheme         =           FLAT
    Nuclear Scheme         =       TREUTLER

    BS radius alpha        =              1
    Pruning alpha          =              1
    Radial Points          =             75
    Spherical Points       =            302
    Total Points           =         111386
    Total Blocks           =            911
    Max Points             =            256
    Max Functions          =             34

   => Loading Basis Set <=

    Name: (CC-PV(D+D)Z AUX)
    Role: JKFIT
    Keyword: DF_BASIS_SCF
    atoms 1, 3-5 entry H          line    51 file /work/zw18965/.conda/envs/p4env/share/psi4/basis/cc-pvdz-jkfit.gbs 
    atoms 2      entry C          line   121 file /work/zw18965/.conda/envs/p4env/share/psi4/basis/cc-pvdz-jkfit.gbs 

   => Loading Basis Set <=

    Name: CC-PV(D+D)Z
    Role: ORBITAL
    Keyword: BASIS
    atoms 1, 3-5 entry H          line    31 file /work/zw18965/.conda/envs/p4env/share/psi4/basis/cc-pv_dpd_z.gbs 
    atoms 2      entry C          line   147 file /work/zw18965/.conda/envs/p4env/share/psi4/basis/cc-pv_dpd_z.gbs 


Traceback (most recent call last):
  File "/work/zw18965/.conda/envs/p4env/bin/psi4", line 287, in <module>
    exec(content)
  File "<string>", line 33, in <module>
  File "/work/zw18965/.conda/envs/p4env/lib//python3.7/site-packages/psi4/driver/driver.py", line 1079, in optimize
    frequencies(hessian_with_method, molecule=moleculeclone, **kwargs)
  File "/work/zw18965/.conda/envs/p4env/lib//python3.7/site-packages/psi4/driver/driver.py", line 1464, in frequency
    H, wfn = hessian(name, return_wfn=True, molecule=molecule, **kwargs)
  File "/work/zw18965/.conda/envs/p4env/lib//python3.7/site-packages/psi4/driver/driver.py", line 1344, in hessian
    energy, lowername, molecule, displacement, n, ndisp, write_orbitals=False, **kwargs)
  File "/work/zw18965/.conda/envs/p4env/lib//python3.7/site-packages/psi4/driver/driver.py", line 183, in _process_displacement
    derivative, wfn = derivfunc(method, return_wfn=True, molecule=clone, **kwargs)
  File "/work/zw18965/.conda/envs/p4env/lib//python3.7/site-packages/psi4/driver/driver.py", line 556, in energy
    wfn = procedures['energy'][lowername](lowername, molecule=molecule, **kwargs)
  File "/work/zw18965/.conda/envs/p4env/lib//python3.7/site-packages/psi4/driver/procrouting/proc.py", line 2002, in run_scf
    scf_wfn = scf_helper(name, post_scf=False, **kwargs)
  File "/work/zw18965/.conda/envs/p4env/lib//python3.7/site-packages/psi4/driver/procrouting/proc.py", line 1294, in scf_helper
    raise ValidationError("Cannot compute projection of different symmetries.")

psi4.driver.p4util.exceptions.ValidationError: Cannot compute projection of different symmetries.


Printing out the relevant lines from the Psithon --> Python processed input file:
    """)
    core.IO.set_default_namespace("")
    core.set_global_option("DYNAMIC_LEVEL", 1)
    core.set_global_option("BASIS", "cc-pV(D+d)Z")
    core.set_global_option("FULL_HESS_EVERY", 1)
--> optimize("wB97X-V")
    frequencies("wB97X-V")

    Psi4 stopped on: Wednesday, 28 April 2021 01:31PM
    Psi4 wall time for execution: 0:05:57.19

*** Psi4 encountered an error. Buy a developer more coffee!
*** Resources and help at github.com/psi4/psi4.
