
    -----------------------------------------------------------------------
          Psi4: An Open-Source Ab Initio Electronic Structure Package
                               Psi4 1.3.2 release

                         Git: Rev {HEAD} ecbda83 


    R. M. Parrish, L. A. Burns, D. G. A. Smith, A. C. Simmonett,
    A. E. DePrince III, E. G. Hohenstein, U. Bozkaya, A. Yu. Sokolov,
    R. Di Remigio, R. M. Richard, J. F. Gonthier, A. M. James,
    H. R. McAlexander, A. Kumar, M. Saitow, X. Wang, B. P. Pritchard,
    P. Verma, H. F. Schaefer III, K. Patkowski, R. A. King, E. F. Valeev,
    F. A. Evangelista, J. M. Turney, T. D. Crawford, and C. D. Sherrill,
    J. Chem. Theory Comput. 13(7) pp 3185--3197 (2017).
    (doi: 10.1021/acs.jctc.7b00174)


                         Additional Contributions by
    P. Kraus, H. Kruse, M. H. Lechner, M. C. Schieber, R. A. Shaw,
    A. Alenaizan, R. Galvelis, Z. L. Glick, S. Lehtola, and J. P. Misiewicz

    -----------------------------------------------------------------------


    Psi4 started on: Tuesday, 27 April 2021 06:04PM

    Process ID: 142563
    Host:       bp1-compute00113.data.bp.acrc.priv
    PSIDATADIR: /work/zw18965/.conda/envs/p4env/share/psi4
    Memory:     500.0 MiB
    Threads:    24
    
  ==> Input File <==

--------------------------------------------------------------------------
memory 144 GB

molecule {
0 1
Cl 0.0000000000 0.0000000000 0.0000000000
C 0.0000000000 0.0000000000 1.6357056100
N 0.0000000000 0.0000000000 2.7976884200
}

set dynamic_level 1
set basis cc-pV(D+d)Z
 
optimize("wB97X-V")
frequencies("wB97X-V")
--------------------------------------------------------------------------

  Memory set to 134.110 GiB by Python driver.
gradient() will perform gradient computation by finite difference of analytic energies.

         ----------------------------------------------------------
                                   FINDIF
                     R. A. King and Jonathon Misiewicz
         ---------------------------------------------------------

  Using finite-differences of energies to determine gradients.
    Generating geometries for use with 3-point formula.
    Displacement size will be 5.00e-03.
    Number of atoms is 3.
    Number of symmetric SALCs is 2.
    Translations projected? 1. Rotations projected? 1.
    Number of geometries (including reference) is 5.

  //>>>>>>>>>>>>>>>>>>>>>>>>>>>>>>>>>>>//
  //    Loading displacement 1 of 5    //
  //<<<<<<<<<<<<<<<<<<<<<<<<<<<<<<<<<<<//

*** tstart() called on bp1-compute00113.data.bp.acrc.priv
*** at Tue Apr 27 18:04:30 2021

   => Loading Basis Set <=

    Name: CC-PV(D+D)Z
    Role: ORBITAL
    Keyword: BASIS
    atoms 1 entry CL         line   675 file /work/zw18965/.conda/envs/p4env/share/psi4/basis/cc-pv_dpd_z.gbs 
    atoms 2 entry C          line   147 file /work/zw18965/.conda/envs/p4env/share/psi4/basis/cc-pv_dpd_z.gbs 
    atoms 3 entry N          line   177 file /work/zw18965/.conda/envs/p4env/share/psi4/basis/cc-pv_dpd_z.gbs 


         ---------------------------------------------------------
                                   SCF
               by Justin Turney, Rob Parrish, Andy Simmonett
                          and Daniel G. A. Smith
                              RKS Reference
                       24 Threads, 137329 MiB Core
         ---------------------------------------------------------

  ==> Geometry <==

    Molecular point group: c2v
    Full point group: C_inf_v

    Geometry (in Angstrom), charge = 0, multiplicity = 1:

       Center              X                  Y                   Z               Mass       
    ------------   -----------------  -----------------  -----------------  -----------------
         CL           0.000000000000     0.000000000000    -0.964455422395    34.968852682000
         C            0.000000000000     0.000000000000     0.671250187605    12.000000000000
         N            0.000000000000     0.000000000000     1.833232997605    14.003074004430

  Running in c2v symmetry.

  Rotational constants: A = ************  B =      0.19834  C =      0.19834 [cm^-1]
  Rotational constants: A = ************  B =   5946.00023  C =   5946.00023 [MHz]
  Nuclear repulsion =   74.634432970989252

  Charge       = 0
  Multiplicity = 1
  Electrons    = 30
  Nalpha       = 15
  Nbeta        = 15

  ==> Algorithm <==

  SCF Algorithm Type is DF.
  DIIS enabled.
  MOM disabled.
  Fractional occupation disabled.
  Guess Type is SAD.
  Energy threshold   = 1.00e-08
  Density threshold  = 1.00e-08
  Integral threshold = 0.00e+00

  ==> Primary Basis <==

  Basis Set: CC-PV(D+D)Z
    Blend: CC-PV(D+D)Z
    Number of shells: 21
    Number of basis function: 51
    Number of Cartesian functions: 55
    Spherical Harmonics?: true
    Max angular momentum: 2

  ==> DFT Potential <==

   => Composite Functional: WB97X-V <= 

    wB97X-V Hyb-GGA Exchange-Correlation Functional

    N. Mardirossian and M. Head-Gordon, Phys. Chem. Chem. Phys. 16, 9904 (2014)

    Deriv               =              1
    GGA                 =           TRUE
    Meta                =          FALSE

    Exchange Hybrid     =           TRUE
    MP2 Hybrid          =          FALSE

   => Exchange-Correlation Functionals <=

    1.0000   wB97X-V range-separated functional

   => Exact (HF) Exchange <=

    0.8330            HF,LR [omega = 0.3000]
    0.1670               HF 

   => VV10 Non-Local Parameters <=

    VV10 B              =     6.0000E+00
    VV10 C              =     1.0000E-02

   => Molecular Quadrature <=

    Radial Scheme          =       TREUTLER
    Pruning Scheme         =           FLAT
    Nuclear Scheme         =       TREUTLER

    BS radius alpha        =              1
    Pruning alpha          =              1
    Radial Points          =             75
    Spherical Points       =            302
    Total Points           =          63587
    Total Blocks           =            554
    Max Points             =            256
    Max Functions          =             51

   => Loading Basis Set <=

    Name: (CC-PV(D+D)Z AUX)
    Role: JKFIT
    Keyword: DF_BASIS_SCF
    atoms 1 entry CL         line   667 file /work/zw18965/.conda/envs/p4env/share/psi4/basis/cc-pvdz-jkfit.gbs 
    atoms 2 entry C          line   121 file /work/zw18965/.conda/envs/p4env/share/psi4/basis/cc-pvdz-jkfit.gbs 
    atoms 3 entry N          line   171 file /work/zw18965/.conda/envs/p4env/share/psi4/basis/cc-pvdz-jkfit.gbs 

  ==> Pre-Iterations <==

   -------------------------------------------------------
    Irrep   Nso     Nmo     Nalpha   Nbeta   Ndocc  Nsocc
   -------------------------------------------------------
     A1        25      25       0       0       0       0
     A2         4       4       0       0       0       0
     B1        11      11       0       0       0       0
     B2        11      11       0       0       0       0
   -------------------------------------------------------
    Total      51      51      15      15      15       0
   -------------------------------------------------------

  ==> Integral Setup <==

  ==> DiskDFJK: Density-Fitted J/K Matrices <==

    J tasked:                  Yes
    K tasked:                  Yes
    wK tasked:                 Yes
    Omega:               3.000E-01
    OpenMP threads:             24
    Integrals threads:          24
    Memory [MiB]:           102909
    Algorithm:                Core
    Integral Cache:           NONE
    Schwarz Cutoff:          1E-12
    Fitting Condition:       1E-10

   => Auxiliary Basis Set <=

  Basis Set: (CC-PV(D+D)Z AUX)
    Blend: CC-PVDZ-JKFIT
    Number of shells: 84
    Number of basis function: 252
    Number of Cartesian functions: 292
    Spherical Harmonics?: true
    Max angular momentum: 3

  Cached 100.0% of DFT collocation blocks in 0.085 [GiB].

  Minimum eigenvalue in the overlap matrix is 5.2371571474E-03.
  Using Symmetric Orthogonalization.

  SCF Guess: Superposition of Atomic Densities via on-the-fly atomic UHF.

  ==> Iterations <==

                           Total Energy        Delta E     RMS |[F,P]|

   @DF-RKS iter SAD:  -552.43017370774419   -5.52430e+02   0.00000e+00 
   @DF-RKS iter   1:  -552.77979824780846   -3.49625e-01   1.86115e-02 DIIS
   @DF-RKS iter   2:  -552.61568147466562    1.64117e-01   2.79255e-02 DIIS
   @DF-RKS iter   3:  -552.92772888907029   -3.12047e-01   1.50043e-03 DIIS
   @DF-RKS iter   4:  -552.92886547505793   -1.13659e-03   7.78713e-04 DIIS
   @DF-RKS iter   5:  -552.92917558521367   -3.10110e-04   1.90580e-04 DIIS
   @DF-RKS iter   6:  -552.92920485667128   -2.92715e-05   3.74234e-05 DIIS
   @DF-RKS iter   7:  -552.92920683053262   -1.97386e-06   6.49024e-06 DIIS
   @DF-RKS iter   8:  -552.92920686869081   -3.81582e-08   1.84084e-06 DIIS
   @DF-RKS iter   9:  -552.92920687107812   -2.38731e-09   2.97254e-07 DIIS
   @DF-RKS iter  10:  -552.92920687116600   -8.78799e-11   9.97945e-08 DIIS
   @DF-RKS iter  11:  -552.92920687117260   -6.59384e-12   1.28287e-08 DIIS
   @DF-RKS iter  12:  -552.92920687117214    4.54747e-13   1.47586e-09 DIIS
  Energy and wave function converged.


  ==> Post-Iterations <==

    Orbital Energies [Eh]
    ---------------------

    Doubly Occupied:                                                      

       1A1  -101.616223     2A1   -14.455344     3A1   -10.386866  
       4A1    -9.644275     5A1    -7.401085     1B2    -7.388929  
       1B1    -7.388929     6A1    -1.097536     7A1    -1.033815  
       8A1    -0.689558     2B1    -0.552753     2B2    -0.552753  
       9A1    -0.501270     3B1    -0.435164     3B2    -0.435164  

    Virtual:                                                              

      10A1     0.089786     4B1     0.111399     4B2     0.111399  
      11A1     0.357825    12A1     0.494314     5B2     0.562875  
       5B1     0.562875     6B1     0.595883     6B2     0.595883  
      13A1     0.608323    14A1     0.671542     1A2     0.671542  
       7B1     0.753750     7B2     0.753750    15A1     0.786252  
       8B2     0.939104     8B1     0.939104    16A1     0.961024  
      17A1     1.008061     2A2     1.184461    18A1     1.184463  
      19A1     1.356793     9B1     1.497672     9B2     1.497672  
      20A1     1.673606    21A1     1.979401     3A2     1.979401  
      10B1     2.532139    10B2     2.532139    22A1     2.700343  
      23A1     2.921866    24A1     5.259655     4A2     5.259683  
      11B1     5.353559    11B2     5.353559    25A1     5.529958  

    Final Occupation by Irrep:
             A1    A2    B1    B2 
    DOCC [     9,    0,    3,    3 ]

  @DF-RKS Final Energy:  -552.92920687117214

   => Energetics <=

    Nuclear Repulsion Energy =             74.6344329709892520
    One-Electron Energy =                -907.6153255130852813
    Two-Electron Energy =                 309.9113342738347683
    DFT Exchange-Correlation Energy =     -29.9841277089591074
    Empirical Dispersion Energy =           0.0000000000000000
    VV10 Nonlocal Energy =                  0.1244791060482363
    Total Energy =                       -552.9292068711721413

Computation Completed


Properties will be evaluated at   0.000000,   0.000000,   0.000000 [a0]

Properties computed using the SCF density matrix

  Nuclear Dipole Moment: [e a0]
     X:     0.0000      Y:     0.0000      Z:     0.8776

  Electronic Dipole Moment: [e a0]
     X:     0.0000      Y:     0.0000      Z:    -1.9353

  Dipole Moment: [e a0]
     X:     0.0000      Y:     0.0000      Z:    -1.0577     Total:     1.0577

  Dipole Moment: [D]
     X:     0.0000      Y:     0.0000      Z:    -2.6884     Total:     2.6884


*** tstop() called on bp1-compute00113.data.bp.acrc.priv at Tue Apr 27 18:04:32 2021
Module time:
	user time   =      65.20 seconds =       1.09 minutes
	system time =       2.67 seconds =       0.04 minutes
	total time  =          2 seconds =       0.03 minutes
Total time:
	user time   =      65.20 seconds =       1.09 minutes
	system time =       2.67 seconds =       0.04 minutes
	total time  =          2 seconds =       0.03 minutes

  //>>>>>>>>>>>>>>>>>>>>>>>>>>>>>>>>>>>//
  //    Loading displacement 2 of 5    //
  //<<<<<<<<<<<<<<<<<<<<<<<<<<<<<<<<<<<//

*** tstart() called on bp1-compute00113.data.bp.acrc.priv
*** at Tue Apr 27 18:04:32 2021

   => Loading Basis Set <=

    Name: CC-PV(D+D)Z
    Role: ORBITAL
    Keyword: BASIS
    atoms 1 entry CL         line   675 file /work/zw18965/.conda/envs/p4env/share/psi4/basis/cc-pv_dpd_z.gbs 
    atoms 2 entry C          line   147 file /work/zw18965/.conda/envs/p4env/share/psi4/basis/cc-pv_dpd_z.gbs 
    atoms 3 entry N          line   177 file /work/zw18965/.conda/envs/p4env/share/psi4/basis/cc-pv_dpd_z.gbs 


         ---------------------------------------------------------
                                   SCF
               by Justin Turney, Rob Parrish, Andy Simmonett
                          and Daniel G. A. Smith
                              RKS Reference
                       24 Threads, 137329 MiB Core
         ---------------------------------------------------------

  ==> Geometry <==

    Molecular point group: c2v
    Full point group: C_inf_v

    Geometry (in Angstrom), charge = 0, multiplicity = 1:

       Center              X                  Y                   Z               Mass       
    ------------   -----------------  -----------------  -----------------  -----------------
         CL           0.000000000000     0.000000000000    -0.964747620794    34.968852682000
         C            0.000000000000     0.000000000000     0.671643135099    12.000000000000
         N            0.000000000000     0.000000000000     1.833625945099    14.003074004430

  Running in c2v symmetry.

  Rotational constants: A = ************  B =      0.19823  C =      0.19823 [cm^-1]
  Rotational constants: A = ************  B =   5942.76847  C =   5942.76847 [MHz]
  Nuclear repulsion =   74.615105711215932

  Charge       = 0
  Multiplicity = 1
  Electrons    = 30
  Nalpha       = 15
  Nbeta        = 15

  ==> Algorithm <==

  SCF Algorithm Type is DF.
  DIIS enabled.
  MOM disabled.
  Fractional occupation disabled.
  Guess Type is SAD.
  Energy threshold   = 1.00e-08
  Density threshold  = 1.00e-08
  Integral threshold = 0.00e+00

  ==> Primary Basis <==

  Basis Set: CC-PV(D+D)Z
    Blend: CC-PV(D+D)Z
    Number of shells: 21
    Number of basis function: 51
    Number of Cartesian functions: 55
    Spherical Harmonics?: true
    Max angular momentum: 2

  ==> DFT Potential <==

   => Composite Functional: WB97X-V <= 

    wB97X-V Hyb-GGA Exchange-Correlation Functional

    N. Mardirossian and M. Head-Gordon, Phys. Chem. Chem. Phys. 16, 9904 (2014)

    Deriv               =              1
    GGA                 =           TRUE
    Meta                =          FALSE

    Exchange Hybrid     =           TRUE
    MP2 Hybrid          =          FALSE

   => Exchange-Correlation Functionals <=

    1.0000   wB97X-V range-separated functional

   => Exact (HF) Exchange <=

    0.8330            HF,LR [omega = 0.3000]
    0.1670               HF 

   => VV10 Non-Local Parameters <=

    VV10 B              =     6.0000E+00
    VV10 C              =     1.0000E-02

   => Molecular Quadrature <=

    Radial Scheme          =       TREUTLER
    Pruning Scheme         =           FLAT
    Nuclear Scheme         =       TREUTLER

    BS radius alpha        =              1
    Pruning alpha          =              1
    Radial Points          =             75
    Spherical Points       =            302
    Total Points           =          63587
    Total Blocks           =            554
    Max Points             =            256
    Max Functions          =             51

   => Loading Basis Set <=

    Name: (CC-PV(D+D)Z AUX)
    Role: JKFIT
    Keyword: DF_BASIS_SCF
    atoms 1 entry CL         line   667 file /work/zw18965/.conda/envs/p4env/share/psi4/basis/cc-pvdz-jkfit.gbs 
    atoms 2 entry C          line   121 file /work/zw18965/.conda/envs/p4env/share/psi4/basis/cc-pvdz-jkfit.gbs 
    atoms 3 entry N          line   171 file /work/zw18965/.conda/envs/p4env/share/psi4/basis/cc-pvdz-jkfit.gbs 

  ==> Pre-Iterations <==

   -------------------------------------------------------
    Irrep   Nso     Nmo     Nalpha   Nbeta   Ndocc  Nsocc
   -------------------------------------------------------
     A1        25      25       0       0       0       0
     A2         4       4       0       0       0       0
     B1        11      11       0       0       0       0
     B2        11      11       0       0       0       0
   -------------------------------------------------------
    Total      51      51      15      15      15       0
   -------------------------------------------------------

  ==> Integral Setup <==

  ==> DiskDFJK: Density-Fitted J/K Matrices <==

    J tasked:                  Yes
    K tasked:                  Yes
    wK tasked:                 Yes
    Omega:               3.000E-01
    OpenMP threads:             24
    Integrals threads:          24
    Memory [MiB]:           102909
    Algorithm:                Core
    Integral Cache:           NONE
    Schwarz Cutoff:          1E-12
    Fitting Condition:       1E-10

   => Auxiliary Basis Set <=

  Basis Set: (CC-PV(D+D)Z AUX)
    Blend: CC-PVDZ-JKFIT
    Number of shells: 84
    Number of basis function: 252
    Number of Cartesian functions: 292
    Spherical Harmonics?: true
    Max angular momentum: 3

  Cached 100.0% of DFT collocation blocks in 0.085 [GiB].

  Minimum eigenvalue in the overlap matrix is 5.2395815456E-03.
  Using Symmetric Orthogonalization.

  SCF Guess: Superposition of Atomic Densities via on-the-fly atomic UHF.

  ==> Iterations <==

                           Total Energy        Delta E     RMS |[F,P]|

   @DF-RKS iter SAD:  -552.42912829839645   -5.52429e+02   0.00000e+00 
   @DF-RKS iter   1:  -552.77988885572734   -3.50761e-01   1.86074e-02 DIIS
   @DF-RKS iter   2:  -552.61578444607881    1.64104e-01   2.79227e-02 DIIS
   @DF-RKS iter   3:  -552.92773062493063   -3.11946e-01   1.49869e-03 DIIS
   @DF-RKS iter   4:  -552.92886575415093   -1.13513e-03   7.78024e-04 DIIS
   @DF-RKS iter   5:  -552.92917550168193   -3.09748e-04   1.90584e-04 DIIS
   @DF-RKS iter   6:  -552.92920479648819   -2.92948e-05   3.74416e-05 DIIS
   @DF-RKS iter   7:  -552.92920677431209   -1.97782e-06   6.49164e-06 DIIS
   @DF-RKS iter   8:  -552.92920681251860   -3.82065e-08   1.84226e-06 DIIS
   @DF-RKS iter   9:  -552.92920681490989   -2.39129e-09   2.97645e-07 DIIS
   @DF-RKS iter  10:  -552.92920681499822   -8.83347e-11   9.99490e-08 DIIS
   @DF-RKS iter  11:  -552.92920681500493   -6.70752e-12   1.28543e-08 DIIS
   @DF-RKS iter  12:  -552.92920681500470    2.27374e-13   1.47892e-09 DIIS
  Energy and wave function converged.


  ==> Post-Iterations <==

    Orbital Energies [Eh]
    ---------------------

    Doubly Occupied:                                                      

       1A1  -101.616236     2A1   -14.455404     3A1   -10.386929  
       4A1    -9.644269     5A1    -7.401085     1B2    -7.388923  
       1B1    -7.388923     6A1    -1.097411     7A1    -1.033798  
       8A1    -0.689478     2B2    -0.552654     2B1    -0.552654  
       9A1    -0.501307     3B2    -0.435229     3B1    -0.435229  

    Virtual:                                                              

      10A1     0.089465     4B2     0.111374     4B1     0.111374  
      11A1     0.357856    12A1     0.494521     5B1     0.562881  
       5B2     0.562881     6B2     0.595876     6B1     0.595876  
      13A1     0.608250    14A1     0.671609     1A2     0.671609  
       7B2     0.753691     7B1     0.753691    15A1     0.786223  
       8B1     0.939073     8B2     0.939073    16A1     0.960688  
      17A1     1.007740     2A2     1.184430    18A1     1.184432  
      19A1     1.356537     9B2     1.497363     9B1     1.497363  
      20A1     1.673470    21A1     1.979360     3A2     1.979360  
      10B1     2.531924    10B2     2.531924    22A1     2.699742  
      23A1     2.921798    24A1     5.259663     4A2     5.259691  
      11B2     5.353382    11B1     5.353382    25A1     5.529999  

    Final Occupation by Irrep:
             A1    A2    B1    B2 
    DOCC [     9,    0,    3,    3 ]

  @DF-RKS Final Energy:  -552.92920681500470

   => Energetics <=

    Nuclear Repulsion Energy =             74.6151057112159322
    One-Electron Energy =                -907.5771012030907059
    Two-Electron Energy =                 309.8921709407571257
    DFT Exchange-Correlation Energy =     -29.9838622834421358
    Empirical Dispersion Energy =           0.0000000000000000
    VV10 Nonlocal Energy =                  0.1244800195550634
    Total Energy =                       -552.9292068150045907

Computation Completed


Properties will be evaluated at   0.000000,   0.000000,   0.000000 [a0]

Properties computed using the SCF density matrix

  Nuclear Dipole Moment: [e a0]
     X:     0.0000      Y:     0.0000      Z:     0.8778

  Electronic Dipole Moment: [e a0]
     X:     0.0000      Y:     0.0000      Z:    -1.9350

  Dipole Moment: [e a0]
     X:     0.0000      Y:     0.0000      Z:    -1.0572     Total:     1.0572

  Dipole Moment: [D]
     X:     0.0000      Y:     0.0000      Z:    -2.6871     Total:     2.6871


*** tstop() called on bp1-compute00113.data.bp.acrc.priv at Tue Apr 27 18:04:35 2021
Module time:
	user time   =      66.14 seconds =       1.10 minutes
	system time =       2.72 seconds =       0.05 minutes
	total time  =          3 seconds =       0.05 minutes
Total time:
	user time   =     131.50 seconds =       2.19 minutes
	system time =       5.40 seconds =       0.09 minutes
	total time  =          5 seconds =       0.08 minutes

  //>>>>>>>>>>>>>>>>>>>>>>>>>>>>>>>>>>>//
  //    Loading displacement 3 of 5    //
  //<<<<<<<<<<<<<<<<<<<<<<<<<<<<<<<<<<<//

*** tstart() called on bp1-compute00113.data.bp.acrc.priv
*** at Tue Apr 27 18:04:35 2021

   => Loading Basis Set <=

    Name: CC-PV(D+D)Z
    Role: ORBITAL
    Keyword: BASIS
    atoms 1 entry CL         line   675 file /work/zw18965/.conda/envs/p4env/share/psi4/basis/cc-pv_dpd_z.gbs 
    atoms 2 entry C          line   147 file /work/zw18965/.conda/envs/p4env/share/psi4/basis/cc-pv_dpd_z.gbs 
    atoms 3 entry N          line   177 file /work/zw18965/.conda/envs/p4env/share/psi4/basis/cc-pv_dpd_z.gbs 


         ---------------------------------------------------------
                                   SCF
               by Justin Turney, Rob Parrish, Andy Simmonett
                          and Daniel G. A. Smith
                              RKS Reference
                       24 Threads, 137329 MiB Core
         ---------------------------------------------------------

  ==> Geometry <==

    Molecular point group: c2v
    Full point group: C_inf_v

    Geometry (in Angstrom), charge = 0, multiplicity = 1:

       Center              X                  Y                   Z               Mass       
    ------------   -----------------  -----------------  -----------------  -----------------
         CL           0.000000000000     0.000000000000    -0.964163223996    34.968852682000
         C            0.000000000000     0.000000000000     0.670857240111    12.000000000000
         N            0.000000000000     0.000000000000     1.832840050111    14.003074004430

  Running in c2v symmetry.

  Rotational constants: A = ************  B =      0.19845  C =      0.19845 [cm^-1]
  Rotational constants: A = ************  B =   5949.23453  C =   5949.23453 [MHz]
  Nuclear repulsion =   74.653774509946956

  Charge       = 0
  Multiplicity = 1
  Electrons    = 30
  Nalpha       = 15
  Nbeta        = 15

  ==> Algorithm <==

  SCF Algorithm Type is DF.
  DIIS enabled.
  MOM disabled.
  Fractional occupation disabled.
  Guess Type is SAD.
  Energy threshold   = 1.00e-08
  Density threshold  = 1.00e-08
  Integral threshold = 0.00e+00

  ==> Primary Basis <==

  Basis Set: CC-PV(D+D)Z
    Blend: CC-PV(D+D)Z
    Number of shells: 21
    Number of basis function: 51
    Number of Cartesian functions: 55
    Spherical Harmonics?: true
    Max angular momentum: 2

  ==> DFT Potential <==

   => Composite Functional: WB97X-V <= 

    wB97X-V Hyb-GGA Exchange-Correlation Functional

    N. Mardirossian and M. Head-Gordon, Phys. Chem. Chem. Phys. 16, 9904 (2014)

    Deriv               =              1
    GGA                 =           TRUE
    Meta                =          FALSE

    Exchange Hybrid     =           TRUE
    MP2 Hybrid          =          FALSE

   => Exchange-Correlation Functionals <=

    1.0000   wB97X-V range-separated functional

   => Exact (HF) Exchange <=

    0.8330            HF,LR [omega = 0.3000]
    0.1670               HF 

   => VV10 Non-Local Parameters <=

    VV10 B              =     6.0000E+00
    VV10 C              =     1.0000E-02

   => Molecular Quadrature <=

    Radial Scheme          =       TREUTLER
    Pruning Scheme         =           FLAT
    Nuclear Scheme         =       TREUTLER

    BS radius alpha        =              1
    Pruning alpha          =              1
    Radial Points          =             75
    Spherical Points       =            302
    Total Points           =          63587
    Total Blocks           =            554
    Max Points             =            256
    Max Functions          =             51

   => Loading Basis Set <=

    Name: (CC-PV(D+D)Z AUX)
    Role: JKFIT
    Keyword: DF_BASIS_SCF
    atoms 1 entry CL         line   667 file /work/zw18965/.conda/envs/p4env/share/psi4/basis/cc-pvdz-jkfit.gbs 
    atoms 2 entry C          line   121 file /work/zw18965/.conda/envs/p4env/share/psi4/basis/cc-pvdz-jkfit.gbs 
    atoms 3 entry N          line   171 file /work/zw18965/.conda/envs/p4env/share/psi4/basis/cc-pvdz-jkfit.gbs 

  ==> Pre-Iterations <==

   -------------------------------------------------------
    Irrep   Nso     Nmo     Nalpha   Nbeta   Ndocc  Nsocc
   -------------------------------------------------------
     A1        25      25       0       0       0       0
     A2         4       4       0       0       0       0
     B1        11      11       0       0       0       0
     B2        11      11       0       0       0       0
   -------------------------------------------------------
    Total      51      51      15      15      15       0
   -------------------------------------------------------

  ==> Integral Setup <==

  ==> DiskDFJK: Density-Fitted J/K Matrices <==

    J tasked:                  Yes
    K tasked:                  Yes
    wK tasked:                 Yes
    Omega:               3.000E-01
    OpenMP threads:             24
    Integrals threads:          24
    Memory [MiB]:           102909
    Algorithm:                Core
    Integral Cache:           NONE
    Schwarz Cutoff:          1E-12
    Fitting Condition:       1E-10

   => Auxiliary Basis Set <=

  Basis Set: (CC-PV(D+D)Z AUX)
    Blend: CC-PVDZ-JKFIT
    Number of shells: 84
    Number of basis function: 252
    Number of Cartesian functions: 292
    Spherical Harmonics?: true
    Max angular momentum: 3

  Cached 100.0% of DFT collocation blocks in 0.085 [GiB].

  Minimum eigenvalue in the overlap matrix is 5.2347290897E-03.
  Using Symmetric Orthogonalization.

  SCF Guess: Superposition of Atomic Densities via on-the-fly atomic UHF.

  ==> Iterations <==

                           Total Energy        Delta E     RMS |[F,P]|

   @DF-RKS iter SAD:  -552.43122360253983   -5.52431e+02   0.00000e+00 
   @DF-RKS iter   1:  -552.77970696119530   -3.48483e-01   1.86155e-02 DIIS
   @DF-RKS iter   2:  -552.61557762335417    1.64129e-01   2.79283e-02 DIIS
   @DF-RKS iter   3:  -552.92772654981536   -3.12149e-01   1.50217e-03 DIIS
   @DF-RKS iter   4:  -552.92886458713406   -1.13804e-03   7.79399e-04 DIIS
   @DF-RKS iter   5:  -552.92917505701359   -3.10470e-04   1.90575e-04 DIIS
   @DF-RKS iter   6:  -552.92920430473851   -2.92477e-05   3.74052e-05 DIIS
   @DF-RKS iter   7:  -552.92920627463457   -1.96990e-06   6.48891e-06 DIIS
   @DF-RKS iter   8:  -552.92920631274512   -3.81106e-08   1.83942e-06 DIIS
   @DF-RKS iter   9:  -552.92920631512857   -2.38344e-09   2.96863e-07 DIIS
   @DF-RKS iter  10:  -552.92920631521622   -8.76526e-11   9.96398e-08 DIIS
   @DF-RKS iter  11:  -552.92920631522293   -6.70752e-12   1.28030e-08 DIIS
   @DF-RKS iter  12:  -552.92920631522338   -4.54747e-13   1.47282e-09 DIIS
  Energy and wave function converged.


  ==> Post-Iterations <==

    Orbital Energies [Eh]
    ---------------------

    Doubly Occupied:                                                      

       1A1  -101.616209     2A1   -14.455284     3A1   -10.386803  
       4A1    -9.644280     5A1    -7.401084     1B2    -7.388935  
       1B1    -7.388935     6A1    -1.097661     7A1    -1.033831  
       8A1    -0.689638     2B2    -0.552852     2B1    -0.552852  
       9A1    -0.501233     3B1    -0.435098     3B2    -0.435098  

    Virtual:                                                              

      10A1     0.090107     4B2     0.111424     4B1     0.111424  
      11A1     0.357793    12A1     0.494108     5B1     0.562869  
       5B2     0.562869     6B1     0.595890     6B2     0.595890  
      13A1     0.608396    14A1     0.671474     1A2     0.671474  
       7B1     0.753809     7B2     0.753809    15A1     0.786282  
       8B1     0.939136     8B2     0.939136    16A1     0.961360  
      17A1     1.008383     2A2     1.184492    18A1     1.184494  
      19A1     1.357050     9B2     1.497982     9B1     1.497982  
      20A1     1.673742    21A1     1.979442     3A2     1.979442  
      10B1     2.532355    10B2     2.532355    22A1     2.700944  
      23A1     2.921933    24A1     5.259646     4A2     5.259675  
      11B2     5.353736    11B1     5.353736    25A1     5.529917  

    Final Occupation by Irrep:
             A1    A2    B1    B2 
    DOCC [     9,    0,    3,    3 ]

  @DF-RKS Final Energy:  -552.92920631522338

   => Energetics <=

    Nuclear Repulsion Energy =             74.6537745099469561
    One-Electron Energy =                -907.6535766913899579
    Two-Electron Energy =                 309.9305111821522587
    DFT Exchange-Correlation Energy =     -29.9843935088971207
    Empirical Dispersion Energy =           0.0000000000000000
    VV10 Nonlocal Energy =                  0.1244781929645199
    Total Energy =                       -552.9292063152233823

Computation Completed


Properties will be evaluated at   0.000000,   0.000000,   0.000000 [a0]

Properties computed using the SCF density matrix

  Nuclear Dipole Moment: [e a0]
     X:     0.0000      Y:     0.0000      Z:     0.8773

  Electronic Dipole Moment: [e a0]
     X:     0.0000      Y:     0.0000      Z:    -1.9355

  Dipole Moment: [e a0]
     X:     0.0000      Y:     0.0000      Z:    -1.0582     Total:     1.0582

  Dipole Moment: [D]
     X:     0.0000      Y:     0.0000      Z:    -2.6897     Total:     2.6897


*** tstop() called on bp1-compute00113.data.bp.acrc.priv at Tue Apr 27 18:04:38 2021
Module time:
	user time   =      62.84 seconds =       1.05 minutes
	system time =       2.24 seconds =       0.04 minutes
	total time  =          3 seconds =       0.05 minutes
Total time:
	user time   =     194.51 seconds =       3.24 minutes
	system time =       7.65 seconds =       0.13 minutes
	total time  =          8 seconds =       0.13 minutes

  //>>>>>>>>>>>>>>>>>>>>>>>>>>>>>>>>>>>//
  //    Loading displacement 4 of 5    //
  //<<<<<<<<<<<<<<<<<<<<<<<<<<<<<<<<<<<//

*** tstart() called on bp1-compute00113.data.bp.acrc.priv
*** at Tue Apr 27 18:04:38 2021

   => Loading Basis Set <=

    Name: CC-PV(D+D)Z
    Role: ORBITAL
    Keyword: BASIS
    atoms 1 entry CL         line   675 file /work/zw18965/.conda/envs/p4env/share/psi4/basis/cc-pv_dpd_z.gbs 
    atoms 2 entry C          line   147 file /work/zw18965/.conda/envs/p4env/share/psi4/basis/cc-pv_dpd_z.gbs 
    atoms 3 entry N          line   177 file /work/zw18965/.conda/envs/p4env/share/psi4/basis/cc-pv_dpd_z.gbs 


         ---------------------------------------------------------
                                   SCF
               by Justin Turney, Rob Parrish, Andy Simmonett
                          and Daniel G. A. Smith
                              RKS Reference
                       24 Threads, 137329 MiB Core
         ---------------------------------------------------------

  ==> Geometry <==

    Molecular point group: c2v
    Full point group: C_inf_v

    Geometry (in Angstrom), charge = 0, multiplicity = 1:

       Center              X                  Y                   Z               Mass       
    ------------   -----------------  -----------------  -----------------  -----------------
         CL           0.000000000000     0.000000000000    -0.964455422395    34.968852682000
         C            0.000000000000     0.000000000000     0.670689682129    12.000000000000
         N            0.000000000000     0.000000000000     1.833713325404    14.003074004430

  Running in c2v symmetry.

  Rotational constants: A = ************  B =      0.19830  C =      0.19830 [cm^-1]
  Rotational constants: A = ************  B =   5944.90643  C =   5944.90643 [MHz]
  Nuclear repulsion =   74.624763058425231

  Charge       = 0
  Multiplicity = 1
  Electrons    = 30
  Nalpha       = 15
  Nbeta        = 15

  ==> Algorithm <==

  SCF Algorithm Type is DF.
  DIIS enabled.
  MOM disabled.
  Fractional occupation disabled.
  Guess Type is SAD.
  Energy threshold   = 1.00e-08
  Density threshold  = 1.00e-08
  Integral threshold = 0.00e+00

  ==> Primary Basis <==

  Basis Set: CC-PV(D+D)Z
    Blend: CC-PV(D+D)Z
    Number of shells: 21
    Number of basis function: 51
    Number of Cartesian functions: 55
    Spherical Harmonics?: true
    Max angular momentum: 2

  ==> DFT Potential <==

   => Composite Functional: WB97X-V <= 

    wB97X-V Hyb-GGA Exchange-Correlation Functional

    N. Mardirossian and M. Head-Gordon, Phys. Chem. Chem. Phys. 16, 9904 (2014)

    Deriv               =              1
    GGA                 =           TRUE
    Meta                =          FALSE

    Exchange Hybrid     =           TRUE
    MP2 Hybrid          =          FALSE

   => Exchange-Correlation Functionals <=

    1.0000   wB97X-V range-separated functional

   => Exact (HF) Exchange <=

    0.8330            HF,LR [omega = 0.3000]
    0.1670               HF 

   => VV10 Non-Local Parameters <=

    VV10 B              =     6.0000E+00
    VV10 C              =     1.0000E-02

   => Molecular Quadrature <=

    Radial Scheme          =       TREUTLER
    Pruning Scheme         =           FLAT
    Nuclear Scheme         =       TREUTLER

    BS radius alpha        =              1
    Pruning alpha          =              1
    Radial Points          =             75
    Spherical Points       =            302
    Total Points           =          63587
    Total Blocks           =            554
    Max Points             =            256
    Max Functions          =             51

   => Loading Basis Set <=

    Name: (CC-PV(D+D)Z AUX)
    Role: JKFIT
    Keyword: DF_BASIS_SCF
    atoms 1 entry CL         line   667 file /work/zw18965/.conda/envs/p4env/share/psi4/basis/cc-pvdz-jkfit.gbs 
    atoms 2 entry C          line   121 file /work/zw18965/.conda/envs/p4env/share/psi4/basis/cc-pvdz-jkfit.gbs 
    atoms 3 entry N          line   171 file /work/zw18965/.conda/envs/p4env/share/psi4/basis/cc-pvdz-jkfit.gbs 

  ==> Pre-Iterations <==

   -------------------------------------------------------
    Irrep   Nso     Nmo     Nalpha   Nbeta   Ndocc  Nsocc
   -------------------------------------------------------
     A1        25      25       0       0       0       0
     A2         4       4       0       0       0       0
     B1        11      11       0       0       0       0
     B2        11      11       0       0       0       0
   -------------------------------------------------------
    Total      51      51      15      15      15       0
   -------------------------------------------------------

  ==> Integral Setup <==

  ==> DiskDFJK: Density-Fitted J/K Matrices <==

    J tasked:                  Yes
    K tasked:                  Yes
    wK tasked:                 Yes
    Omega:               3.000E-01
    OpenMP threads:             24
    Integrals threads:          24
    Memory [MiB]:           102909
    Algorithm:                Core
    Integral Cache:           NONE
    Schwarz Cutoff:          1E-12
    Fitting Condition:       1E-10

   => Auxiliary Basis Set <=

  Basis Set: (CC-PV(D+D)Z AUX)
    Blend: CC-PVDZ-JKFIT
    Number of shells: 84
    Number of basis function: 252
    Number of Cartesian functions: 292
    Spherical Harmonics?: true
    Max angular momentum: 3

  Cached 100.0% of DFT collocation blocks in 0.085 [GiB].

  Minimum eigenvalue in the overlap matrix is 5.2394798826E-03.
  Using Symmetric Orthogonalization.

  SCF Guess: Superposition of Atomic Densities via on-the-fly atomic UHF.

  ==> Iterations <==

                           Total Energy        Delta E     RMS |[F,P]|

   @DF-RKS iter SAD:  -552.42941544335588   -5.52429e+02   0.00000e+00 
   @DF-RKS iter   1:  -552.77962962237507   -3.50214e-01   1.86162e-02 DIIS
   @DF-RKS iter   2:  -552.61423384875206    1.65396e-01   2.79808e-02 DIIS
   @DF-RKS iter   3:  -552.92771735370070   -3.13484e-01   1.50250e-03 DIIS
   @DF-RKS iter   4:  -552.92885624427629   -1.13889e-03   7.80077e-04 DIIS
   @DF-RKS iter   5:  -552.92916735502797   -3.11111e-04   1.91072e-04 DIIS
   @DF-RKS iter   6:  -552.92919674613188   -2.93911e-05   3.75255e-05 DIIS
   @DF-RKS iter   7:  -552.92919872684649   -1.98071e-06   6.51007e-06 DIIS
   @DF-RKS iter   8:  -552.92919876523035   -3.83839e-08   1.84567e-06 DIIS
   @DF-RKS iter   9:  -552.92919876763142   -2.40107e-09   2.97875e-07 DIIS
   @DF-RKS iter  10:  -552.92919876771987   -8.84484e-11   1.00483e-07 DIIS
   @DF-RKS iter  11:  -552.92919876772623   -6.36646e-12   1.29235e-08 DIIS
   @DF-RKS iter  12:  -552.92919876772669   -4.54747e-13   1.47958e-09 DIIS
  Energy and wave function converged.


  ==> Post-Iterations <==

    Orbital Energies [Eh]
    ---------------------

    Doubly Occupied:                                                      

       1A1  -101.616263     2A1   -14.455558     3A1   -10.387055  
       4A1    -9.644329     5A1    -7.401133     1B2    -7.388984  
       1B1    -7.388984     6A1    -1.097514     7A1    -1.033593  
       8A1    -0.689702     2B1    -0.552763     2B2    -0.552763  
       9A1    -0.501310     3B1    -0.434953     3B2    -0.434953  

    Virtual:                                                              

      10A1     0.089954     4B1     0.111045     4B2     0.111045  
      11A1     0.357794    12A1     0.494050     5B2     0.562934  
       5B1     0.562934     6B1     0.595851     6B2     0.595851  
      13A1     0.608424    14A1     0.671446     1A2     0.671447  
       7B1     0.753674     7B2     0.753674    15A1     0.786064  
       8B1     0.939092     8B2     0.939092    16A1     0.961151  
      17A1     1.007303     2A2     1.184578    18A1     1.184579  
      19A1     1.356343     9B1     1.497207     9B2     1.497207  
      20A1     1.673646    21A1     1.979075     3A2     1.979075  
      10B2     2.531369    10B1     2.531369    22A1     2.698596  
      23A1     2.920283    24A1     5.259598     4A2     5.259626  
      11B2     5.353599    11B1     5.353599    25A1     5.529821  

    Final Occupation by Irrep:
             A1    A2    B1    B2 
    DOCC [     9,    0,    3,    3 ]

  @DF-RKS Final Energy:  -552.92919876772669

   => Energetics <=

    Nuclear Repulsion Energy =             74.6247630584252306
    One-Electron Energy =                -907.5959969537835832
    Two-Electron Energy =                 309.9010273611579009
    DFT Exchange-Correlation Energy =     -29.9834700282898048
    Empirical Dispersion Energy =           0.0000000000000000
    VV10 Nonlocal Energy =                  0.1244777947635719
    Total Energy =                       -552.9291987677266889

Computation Completed


Properties will be evaluated at   0.000000,   0.000000,   0.000000 [a0]

Properties computed using the SCF density matrix

  Nuclear Dipole Moment: [e a0]
     X:     0.0000      Y:     0.0000      Z:     0.8776

  Electronic Dipole Moment: [e a0]
     X:     0.0000      Y:     0.0000      Z:    -1.9363

  Dipole Moment: [e a0]
     X:     0.0000      Y:     0.0000      Z:    -1.0587     Total:     1.0587

  Dipole Moment: [D]
     X:     0.0000      Y:     0.0000      Z:    -2.6909     Total:     2.6909


*** tstop() called on bp1-compute00113.data.bp.acrc.priv at Tue Apr 27 18:04:41 2021
Module time:
	user time   =      61.83 seconds =       1.03 minutes
	system time =       2.27 seconds =       0.04 minutes
	total time  =          3 seconds =       0.05 minutes
Total time:
	user time   =     256.48 seconds =       4.27 minutes
	system time =       9.93 seconds =       0.17 minutes
	total time  =         11 seconds =       0.18 minutes

  //>>>>>>>>>>>>>>>>>>>>>>>>>>>>>>>>>>>//
  //    Loading displacement 5 of 5    //
  //<<<<<<<<<<<<<<<<<<<<<<<<<<<<<<<<<<<//

*** tstart() called on bp1-compute00113.data.bp.acrc.priv
*** at Tue Apr 27 18:04:41 2021

   => Loading Basis Set <=

    Name: CC-PV(D+D)Z
    Role: ORBITAL
    Keyword: BASIS
    atoms 1 entry CL         line   675 file /work/zw18965/.conda/envs/p4env/share/psi4/basis/cc-pv_dpd_z.gbs 
    atoms 2 entry C          line   147 file /work/zw18965/.conda/envs/p4env/share/psi4/basis/cc-pv_dpd_z.gbs 
    atoms 3 entry N          line   177 file /work/zw18965/.conda/envs/p4env/share/psi4/basis/cc-pv_dpd_z.gbs 


         ---------------------------------------------------------
                                   SCF
               by Justin Turney, Rob Parrish, Andy Simmonett
                          and Daniel G. A. Smith
                              RKS Reference
                       24 Threads, 137329 MiB Core
         ---------------------------------------------------------

  ==> Geometry <==

    Molecular point group: c2v
    Full point group: C_inf_v

    Geometry (in Angstrom), charge = 0, multiplicity = 1:

       Center              X                  Y                   Z               Mass       
    ------------   -----------------  -----------------  -----------------  -----------------
         CL           0.000000000000     0.000000000000    -0.964455422395    34.968852682000
         C            0.000000000000     0.000000000000     0.671810693081    12.000000000000
         N            0.000000000000     0.000000000000     1.832752669806    14.003074004430

  Running in c2v symmetry.

  Rotational constants: A = ************  B =      0.19837  C =      0.19837 [cm^-1]
  Rotational constants: A = ************  B =   5947.09346  C =   5947.09346 [MHz]
  Nuclear repulsion =   74.644142653370096

  Charge       = 0
  Multiplicity = 1
  Electrons    = 30
  Nalpha       = 15
  Nbeta        = 15

  ==> Algorithm <==

  SCF Algorithm Type is DF.
  DIIS enabled.
  MOM disabled.
  Fractional occupation disabled.
  Guess Type is SAD.
  Energy threshold   = 1.00e-08
  Density threshold  = 1.00e-08
  Integral threshold = 0.00e+00

  ==> Primary Basis <==

  Basis Set: CC-PV(D+D)Z
    Blend: CC-PV(D+D)Z
    Number of shells: 21
    Number of basis function: 51
    Number of Cartesian functions: 55
    Spherical Harmonics?: true
    Max angular momentum: 2

  ==> DFT Potential <==

   => Composite Functional: WB97X-V <= 

    wB97X-V Hyb-GGA Exchange-Correlation Functional

    N. Mardirossian and M. Head-Gordon, Phys. Chem. Chem. Phys. 16, 9904 (2014)

    Deriv               =              1
    GGA                 =           TRUE
    Meta                =          FALSE

    Exchange Hybrid     =           TRUE
    MP2 Hybrid          =          FALSE

   => Exchange-Correlation Functionals <=

    1.0000   wB97X-V range-separated functional

   => Exact (HF) Exchange <=

    0.8330            HF,LR [omega = 0.3000]
    0.1670               HF 

   => VV10 Non-Local Parameters <=

    VV10 B              =     6.0000E+00
    VV10 C              =     1.0000E-02

   => Molecular Quadrature <=

    Radial Scheme          =       TREUTLER
    Pruning Scheme         =           FLAT
    Nuclear Scheme         =       TREUTLER

    BS radius alpha        =              1
    Pruning alpha          =              1
    Radial Points          =             75
    Spherical Points       =            302
    Total Points           =          63587
    Total Blocks           =            554
    Max Points             =            256
    Max Functions          =             51

   => Loading Basis Set <=

    Name: (CC-PV(D+D)Z AUX)
    Role: JKFIT
    Keyword: DF_BASIS_SCF
    atoms 1 entry CL         line   667 file /work/zw18965/.conda/envs/p4env/share/psi4/basis/cc-pvdz-jkfit.gbs 
    atoms 2 entry C          line   121 file /work/zw18965/.conda/envs/p4env/share/psi4/basis/cc-pvdz-jkfit.gbs 
    atoms 3 entry N          line   171 file /work/zw18965/.conda/envs/p4env/share/psi4/basis/cc-pvdz-jkfit.gbs 

  ==> Pre-Iterations <==

   -------------------------------------------------------
    Irrep   Nso     Nmo     Nalpha   Nbeta   Ndocc  Nsocc
   -------------------------------------------------------
     A1        25      25       0       0       0       0
     A2         4       4       0       0       0       0
     B1        11      11       0       0       0       0
     B2        11      11       0       0       0       0
   -------------------------------------------------------
    Total      51      51      15      15      15       0
   -------------------------------------------------------

  ==> Integral Setup <==

  ==> DiskDFJK: Density-Fitted J/K Matrices <==

    J tasked:                  Yes
    K tasked:                  Yes
    wK tasked:                 Yes
    Omega:               3.000E-01
    OpenMP threads:             24
    Integrals threads:          24
    Memory [MiB]:           102909
    Algorithm:                Core
    Integral Cache:           NONE
    Schwarz Cutoff:          1E-12
    Fitting Condition:       1E-10

   => Auxiliary Basis Set <=

  Basis Set: (CC-PV(D+D)Z AUX)
    Blend: CC-PVDZ-JKFIT
    Number of shells: 84
    Number of basis function: 252
    Number of Cartesian functions: 292
    Spherical Harmonics?: true
    Max angular momentum: 3

  Cached 100.0% of DFT collocation blocks in 0.085 [GiB].

  Minimum eigenvalue in the overlap matrix is 5.2348227996E-03.
  Using Symmetric Orthogonalization.

  SCF Guess: Superposition of Atomic Densities via on-the-fly atomic UHF.

  ==> Iterations <==

                           Total Energy        Delta E     RMS |[F,P]|

   @DF-RKS iter SAD:  -552.43093250920867   -5.52431e+02   0.00000e+00 
   @DF-RKS iter   1:  -552.77996012126425   -3.49028e-01   1.86068e-02 DIIS
   @DF-RKS iter   2:  -552.61711558895229    1.62845e-01   2.78704e-02 DIIS
   @DF-RKS iter   3:  -552.92773511953044   -3.10620e-01   1.49837e-03 DIIS
   @DF-RKS iter   4:  -552.92886941866107   -1.13430e-03   7.77353e-04 DIIS
   @DF-RKS iter   5:  -552.92917853263282   -3.09114e-04   1.90091e-04 DIIS
   @DF-RKS iter   6:  -552.92920768508429   -2.91525e-05   3.73224e-05 DIIS
   @DF-RKS iter   7:  -552.92920965215615   -1.96707e-06   6.47051e-06 DIIS
   @DF-RKS iter   8:  -552.92920969009094   -3.79348e-08   1.83604e-06 DIIS
   @DF-RKS iter   9:  -552.92920969246404   -2.37310e-09   2.96638e-07 DIIS
   @DF-RKS iter  10:  -552.92920969255135   -8.73115e-11   9.91138e-08 DIIS
   @DF-RKS iter  11:  -552.92920969255817   -6.82121e-12   1.27354e-08 DIIS
   @DF-RKS iter  12:  -552.92920969255874   -5.68434e-13   1.47215e-09 DIIS
  Energy and wave function converged.


  ==> Post-Iterations <==

    Orbital Energies [Eh]
    ---------------------

    Doubly Occupied:                                                      

       1A1  -101.616182     2A1   -14.455130     3A1   -10.386676  
       4A1    -9.644221     5A1    -7.401036     1B2    -7.388874  
       1B1    -7.388874     6A1    -1.097560     7A1    -1.034034  
       8A1    -0.689413     2B2    -0.552743     2B1    -0.552743  
       9A1    -0.501229     3B2    -0.435374     3B1    -0.435374  

    Virtual:                                                              

      10A1     0.089618     4B1     0.111753     4B2     0.111753  
      11A1     0.357855    12A1     0.494579     5B1     0.562816  
       5B2     0.562816     6B2     0.595915     6B1     0.595915  
      13A1     0.608222    14A1     0.671637     1A2     0.671637  
       7B1     0.753825     7B2     0.753825    15A1     0.786439  
       8B1     0.939118     8B2     0.939118    16A1     0.960890  
      17A1     1.008829     2A2     1.184345    18A1     1.184347  
      19A1     1.357248     9B1     1.498140     9B2     1.498140  
      20A1     1.673566    21A1     1.979728     3A2     1.979728  
      10B2     2.532910    10B1     2.532910    22A1     2.702092  
      23A1     2.923456    24A1     5.259711     4A2     5.259740  
      11B1     5.353518    11B2     5.353518    25A1     5.530095  

    Final Occupation by Irrep:
             A1    A2    B1    B2 
    DOCC [     9,    0,    3,    3 ]

  @DF-RKS Final Energy:  -552.92920969255874

   => Energetics <=

    Nuclear Repulsion Energy =             74.6441426533700962
    One-Electron Energy =                -907.6347211471428409
    Two-Electron Energy =                 309.9216760122301935
    DFT Exchange-Correlation Energy =     -29.9847876324797475
    Empirical Dispersion Energy =           0.0000000000000000
    VV10 Nonlocal Energy =                  0.1244804214636330
    Total Energy =                       -552.9292096925587430

Computation Completed


Properties will be evaluated at   0.000000,   0.000000,   0.000000 [a0]

Properties computed using the SCF density matrix

  Nuclear Dipole Moment: [e a0]
     X:     0.0000      Y:     0.0000      Z:     0.8776

  Electronic Dipole Moment: [e a0]
     X:     0.0000      Y:     0.0000      Z:    -1.9343

  Dipole Moment: [e a0]
     X:     0.0000      Y:     0.0000      Z:    -1.0567     Total:     1.0567

  Dipole Moment: [D]
     X:     0.0000      Y:     0.0000      Z:    -2.6859     Total:     2.6859


*** tstop() called on bp1-compute00113.data.bp.acrc.priv at Tue Apr 27 18:04:43 2021
Module time:
	user time   =      61.98 seconds =       1.03 minutes
	system time =       2.32 seconds =       0.04 minutes
	total time  =          2 seconds =       0.03 minutes
Total time:
	user time   =     318.59 seconds =       5.31 minutes
	system time =      12.25 seconds =       0.20 minutes
	total time  =         13 seconds =       0.22 minutes

         ----------------------------------------------------------
                                   FINDIF
                     R. A. King and Jonathon Misiewicz
         ---------------------------------------------------------

  Computing gradient from energies.
    Using 3-point formula.
    Energy without displacement: -552.9292068712
    Check energies below for precision!
    Forces are for mass-weighted, symmetry-adapted cartesians (in au).

     Coord      Energy(-1)        Energy(+1)            Force
        0   -552.9292068150   -552.9292063152      0.0000499781
        1   -552.9291987677   -552.9292096926     -0.0010924832


-------------------------------------------------------------
  ## New Matrix (Symmetry 0) ##
  Irrep: 1 Size: 3 x 3

                 1                   2                   3

    1     0.00000000000000     0.00000000000000     0.00019300479553
    2     0.00000000000000     0.00000000000000    -0.00286625314202
    3     0.00000000000000     0.00000000000000     0.00267324834649




			-----------------------------------------
			 OPTKING 2.0: for geometry optimizations 
			  - R.A. King,  Bethel University        
			-----------------------------------------
	At level 1: Red. Int., RFO, no backsteps, dynamic trust

	Internal coordinates to be generated automatically.
	Detected frag 1 with atoms:  1 2 3
	---Fragment 1 Bond Connectivity---
	 1 : 2
	 2 : 1 3
	 3 : 2

	---Fragment 1 Geometry and Gradient---
	 CL          0.0000000000        0.0000000000       -1.8225566085
	 C           0.0000000000        0.0000000000        1.2684790162
	 N           0.0000000000        0.0000000000        3.4643082896
	             0.0000000000        0.0000000000        0.0001930048
	             0.0000000000        0.0000000000       -0.0028662531
	             0.0000000000        0.0000000000        0.0026732483

	Previous optimization step data not found.  Starting new optimization.

	---Fragment 1 Intrafragment Coordinates---
	 - Coordinate -           - BOHR/RAD -       - ANG/DEG -
	 R(1,2)           =         3.091036	       1.635706
	 R(2,3)           =         2.195829	       1.161983
	 L(1,2,3)         =         3.141593	     180.000000
	 l(1,2,3)         =         3.141593	     180.000000

	Current energy   :      -552.9292068712

	Generating empirical Hessian (Schlegel '84) for each fragment.
	Taking RFO optimization step.
	Going to follow RFO solution 1.
	Using RFO vector 1.
	Norm of target step-size    0.00216
	Projected energy change by RFO approximation:        -0.0000057319

	Back-transformation to cartesian coordinates...
	Successfully converged to displaced geometry.

	--- Internal Coordinate Step in ANG or DEG, aJ/ANG or AJ/DEG ---
	 ---------------------------------------------------------------------------
	   Coordinate                Previous        Force       Change         New 
	   ----------                --------       ------       ------       ------
	    1 R(1,2)          =      1.635706     0.001590     0.000228     1.635933
	    2 R(2,3)          =      1.161983    -0.022024    -0.001118     1.160865
	    3 L(1,2,3)        =    180.000000     0.000000     0.000000   180.000000
	    4 l(1,2,3)        =    180.000000     0.000000     0.000000   180.000000
	 ---------------------------------------------------------------------------
	Successfully symmetrized geometry.

  ==> Convergence Check <==

  Measures of convergence in internal coordinates in au.
  Criteria marked as inactive (o), active & met (*), and active & unmet ( ).
  --------------------------------------------------------------------------------------------- ~
   Step     Total Energy     Delta E     MAX Force     RMS Force      MAX Disp      RMS Disp    ~
  --------------------------------------------------------------------------------------------- ~
    Convergence Criteria    1.00e-06 *    3.00e-04 *             o    1.20e-03 *             o  ~
  --------------------------------------------------------------------------------------------- ~
      1    -552.92920687   -5.53e+02      2.67e-03      1.34e-03 o    2.11e-03      1.08e-03 o  ~
  ---------------------------------------------------------------------------------------------

	Writing optimization data to binary file.
	Structure for next step:
	Cartesian Geometry (in Angstrom)
	   CL    -0.0000000000   0.0000000000  -0.9642343528
	    C     0.0000000000   0.0000000000   0.6716987673
	    N    -0.0000000000   0.0000000000   1.8325633423
			--------------------------
			 OPTKING Finished Execution 
			--------------------------

    Structure for next step:
    Molecular point group: c2v
    Full point group: C_inf_v

    Geometry (in Angstrom), charge = 0, multiplicity = 1:

    CL           0.000000000000     0.000000000000    -0.964295635180
    C            0.000000000000    -0.000000000000     0.671637491377
    N            0.000000000000     0.000000000000     1.832502070894

gradient() will perform gradient computation by finite difference of analytic energies.

         ----------------------------------------------------------
                                   FINDIF
                     R. A. King and Jonathon Misiewicz
         ---------------------------------------------------------

  Using finite-differences of energies to determine gradients.
    Generating geometries for use with 3-point formula.
    Displacement size will be 5.00e-03.
    Number of atoms is 3.
    Number of symmetric SALCs is 2.
    Translations projected? 1. Rotations projected? 1.
    Number of geometries (including reference) is 5.

  //>>>>>>>>>>>>>>>>>>>>>>>>>>>>>>>>>>>//
  //    Loading displacement 1 of 5    //
  //<<<<<<<<<<<<<<<<<<<<<<<<<<<<<<<<<<<//

*** tstart() called on bp1-compute00113.data.bp.acrc.priv
*** at Tue Apr 27 18:04:43 2021

   => Loading Basis Set <=

    Name: CC-PV(D+D)Z
    Role: ORBITAL
    Keyword: BASIS
    atoms 1 entry CL         line   675 file /work/zw18965/.conda/envs/p4env/share/psi4/basis/cc-pv_dpd_z.gbs 
    atoms 2 entry C          line   147 file /work/zw18965/.conda/envs/p4env/share/psi4/basis/cc-pv_dpd_z.gbs 
    atoms 3 entry N          line   177 file /work/zw18965/.conda/envs/p4env/share/psi4/basis/cc-pv_dpd_z.gbs 


         ---------------------------------------------------------
                                   SCF
               by Justin Turney, Rob Parrish, Andy Simmonett
                          and Daniel G. A. Smith
                              RKS Reference
                       24 Threads, 137329 MiB Core
         ---------------------------------------------------------

  ==> Geometry <==

    Molecular point group: c2v
    Full point group: C_inf_v

    Geometry (in Angstrom), charge = 0, multiplicity = 1:

       Center              X                  Y                   Z               Mass       
    ------------   -----------------  -----------------  -----------------  -----------------
         CL           0.000000000000    -0.000000000000    -0.964295635180    34.968852682000
         C            0.000000000000     0.000000000000     0.671637491377    12.000000000000
         N            0.000000000000    -0.000000000000     1.832502070894    14.003074004430

  Running in c2v symmetry.

  Rotational constants: A = ************  B =      0.19844  C =      0.19844 [cm^-1]
  Rotational constants: A = ************  B =   5948.94377  C =   5948.94377 [MHz]
  Nuclear repulsion =   74.655436864625770

  Charge       = 0
  Multiplicity = 1
  Electrons    = 30
  Nalpha       = 15
  Nbeta        = 15

  ==> Algorithm <==

  SCF Algorithm Type is DF.
  DIIS enabled.
  MOM disabled.
  Fractional occupation disabled.
  Guess Type is READ.
  Energy threshold   = 1.00e-08
  Density threshold  = 1.00e-08
  Integral threshold = 0.00e+00

  ==> Primary Basis <==

  Basis Set: CC-PV(D+D)Z
    Blend: CC-PV(D+D)Z
    Number of shells: 21
    Number of basis function: 51
    Number of Cartesian functions: 55
    Spherical Harmonics?: true
    Max angular momentum: 2

  ==> DFT Potential <==

   => Composite Functional: WB97X-V <= 

    wB97X-V Hyb-GGA Exchange-Correlation Functional

    N. Mardirossian and M. Head-Gordon, Phys. Chem. Chem. Phys. 16, 9904 (2014)

    Deriv               =              1
    GGA                 =           TRUE
    Meta                =          FALSE

    Exchange Hybrid     =           TRUE
    MP2 Hybrid          =          FALSE

   => Exchange-Correlation Functionals <=

    1.0000   wB97X-V range-separated functional

   => Exact (HF) Exchange <=

    0.8330            HF,LR [omega = 0.3000]
    0.1670               HF 

   => VV10 Non-Local Parameters <=

    VV10 B              =     6.0000E+00
    VV10 C              =     1.0000E-02

   => Molecular Quadrature <=

    Radial Scheme          =       TREUTLER
    Pruning Scheme         =           FLAT
    Nuclear Scheme         =       TREUTLER

    BS radius alpha        =              1
    Pruning alpha          =              1
    Radial Points          =             75
    Spherical Points       =            302
    Total Points           =          63587
    Total Blocks           =            554
    Max Points             =            256
    Max Functions          =             51

   => Loading Basis Set <=

    Name: (CC-PV(D+D)Z AUX)
    Role: JKFIT
    Keyword: DF_BASIS_SCF
    atoms 1 entry CL         line   667 file /work/zw18965/.conda/envs/p4env/share/psi4/basis/cc-pvdz-jkfit.gbs 
    atoms 2 entry C          line   121 file /work/zw18965/.conda/envs/p4env/share/psi4/basis/cc-pvdz-jkfit.gbs 
    atoms 3 entry N          line   171 file /work/zw18965/.conda/envs/p4env/share/psi4/basis/cc-pvdz-jkfit.gbs 

   => Loading Basis Set <=

    Name: CC-PV(D+D)Z
    Role: ORBITAL
    Keyword: BASIS
    atoms 1 entry CL         line   675 file /work/zw18965/.conda/envs/p4env/share/psi4/basis/cc-pv_dpd_z.gbs 
    atoms 2 entry C          line   147 file /work/zw18965/.conda/envs/p4env/share/psi4/basis/cc-pv_dpd_z.gbs 
    atoms 3 entry N          line   177 file /work/zw18965/.conda/envs/p4env/share/psi4/basis/cc-pv_dpd_z.gbs 

  Reading orbitals from file 180, no projection.

  ==> Pre-Iterations <==

   -------------------------------------------------------
    Irrep   Nso     Nmo     Nalpha   Nbeta   Ndocc  Nsocc
   -------------------------------------------------------
     A1        25      25       0       0       0       0
     A2         4       4       0       0       0       0
     B1        11      11       0       0       0       0
     B2        11      11       0       0       0       0
   -------------------------------------------------------
    Total      51      51      15      15      15       0
   -------------------------------------------------------

  ==> Integral Setup <==

  ==> DiskDFJK: Density-Fitted J/K Matrices <==

    J tasked:                  Yes
    K tasked:                  Yes
    wK tasked:                 Yes
    Omega:               3.000E-01
    OpenMP threads:             24
    Integrals threads:          24
    Memory [MiB]:           102909
    Algorithm:                Core
    Integral Cache:           NONE
    Schwarz Cutoff:          1E-12
    Fitting Condition:       1E-10

   => Auxiliary Basis Set <=

  Basis Set: (CC-PV(D+D)Z AUX)
    Blend: CC-PVDZ-JKFIT
    Number of shells: 84
    Number of basis function: 252
    Number of Cartesian functions: 292
    Spherical Harmonics?: true
    Max angular momentum: 3

  Cached 100.0% of DFT collocation blocks in 0.085 [GiB].

  Minimum eigenvalue in the overlap matrix is 5.2333301337E-03.
  Using Symmetric Orthogonalization.

  SCF Guess: Orbitals guess was supplied from a previous computation.

  ==> Iterations <==

                           Total Energy        Delta E     RMS |[F,P]|

   @DF-RKS iter   0:  -552.93056464017684   -5.52931e+02   1.38434e-04 
   @DF-RKS iter   1:  -552.92920887456808    1.35577e-03   4.13178e-05 DIIS
   @DF-RKS iter   2:  -552.92920903033985   -1.55772e-07   4.13980e-05 DIIS
   @DF-RKS iter   3:  -552.92920969898034   -6.68640e-07   9.55503e-06 DIIS
   @DF-RKS iter   4:  -552.92920973277091   -3.37906e-08   1.67973e-06 DIIS
   @DF-RKS iter   5:  -552.92920973418279   -1.41188e-09   3.31636e-07 DIIS
   @DF-RKS iter   6:  -552.92920973433252   -1.49726e-10   1.02331e-07 DIIS
   @DF-RKS iter   7:  -552.92920973434161   -9.09495e-12   1.29825e-08 DIIS
   @DF-RKS iter   8:  -552.92920973434161    0.00000e+00   3.33632e-09 DIIS
  Energy and wave function converged.


  ==> Post-Iterations <==

    Orbital Energies [Eh]
    ---------------------

    Doubly Occupied:                                                      

       1A1  -101.616172     2A1   -14.455081     3A1   -10.386628  
       4A1    -9.644220     5A1    -7.401033     1B1    -7.388873  
       1B2    -7.388873     6A1    -1.097630     7A1    -1.034059  
       8A1    -0.689446     2B1    -0.552796     2B2    -0.552796  
       9A1    -0.501206     3B1    -0.435354     3B2    -0.435354  

    Virtual:                                                              

      10A1     0.089781     4B2     0.111793     4B1     0.111793  
      11A1     0.357840    12A1     0.494485     5B2     0.562809  
       5B1     0.562809     6B2     0.595921     6B1     0.595921  
      13A1     0.608255    14A1     0.671607     1A2     0.671607  
       7B1     0.753863     7B2     0.753863    15A1     0.786469  
       8B1     0.939136     8B2     0.939136    16A1     0.961065  
      17A1     1.009061     2A2     1.184354    18A1     1.184355  
      19A1     1.357422     9B1     1.498344     9B2     1.498344  
      20A1     1.673637    21A1     1.979775     3A2     1.979775  
      10B2     2.533085    10B1     2.533085    22A1     2.702551  
      23A1     2.923612    24A1     5.259711     4A2     5.259739  
      11B1     5.353612    11B2     5.353612    25A1     5.530082  

    Final Occupation by Irrep:
             A1    A2    B1    B2 
    DOCC [     9,    0,    3,    3 ]

  @DF-RKS Final Energy:  -552.92920973434161

   => Energetics <=

    Nuclear Repulsion Energy =             74.6554368646257700
    One-Electron Energy =                -907.6570729805326891
    Two-Electron Energy =                 309.9329283044756380
    DFT Exchange-Correlation Energy =     -29.9849819426332260
    Empirical Dispersion Energy =           0.0000000000000000
    VV10 Nonlocal Energy =                  0.1244800197228845
    Total Energy =                       -552.9292097343416117

Computation Completed


Properties will be evaluated at   0.000000,   0.000000,   0.000000 [a0]

Properties computed using the SCF density matrix

  Nuclear Dipole Moment: [e a0]
     X:     0.0000      Y:     0.0000      Z:     0.8774

  Electronic Dipole Moment: [e a0]
     X:     0.0000      Y:     0.0000      Z:    -1.9344

  Dipole Moment: [e a0]
     X:     0.0000      Y:     0.0000      Z:    -1.0569     Total:     1.0569

  Dipole Moment: [D]
     X:     0.0000      Y:     0.0000      Z:    -2.6864     Total:     2.6864


*** tstop() called on bp1-compute00113.data.bp.acrc.priv at Tue Apr 27 18:04:45 2021
Module time:
	user time   =      39.95 seconds =       0.67 minutes
	system time =       1.40 seconds =       0.02 minutes
	total time  =          2 seconds =       0.03 minutes
Total time:
	user time   =     358.94 seconds =       5.98 minutes
	system time =      13.67 seconds =       0.23 minutes
	total time  =         15 seconds =       0.25 minutes

  //>>>>>>>>>>>>>>>>>>>>>>>>>>>>>>>>>>>//
  //    Loading displacement 2 of 5    //
  //<<<<<<<<<<<<<<<<<<<<<<<<<<<<<<<<<<<//

*** tstart() called on bp1-compute00113.data.bp.acrc.priv
*** at Tue Apr 27 18:04:45 2021

   => Loading Basis Set <=

    Name: CC-PV(D+D)Z
    Role: ORBITAL
    Keyword: BASIS
    atoms 1 entry CL         line   675 file /work/zw18965/.conda/envs/p4env/share/psi4/basis/cc-pv_dpd_z.gbs 
    atoms 2 entry C          line   147 file /work/zw18965/.conda/envs/p4env/share/psi4/basis/cc-pv_dpd_z.gbs 
    atoms 3 entry N          line   177 file /work/zw18965/.conda/envs/p4env/share/psi4/basis/cc-pv_dpd_z.gbs 


         ---------------------------------------------------------
                                   SCF
               by Justin Turney, Rob Parrish, Andy Simmonett
                          and Daniel G. A. Smith
                              RKS Reference
                       24 Threads, 137329 MiB Core
         ---------------------------------------------------------

  ==> Geometry <==

    Molecular point group: c2v
    Full point group: C_inf_v

    Geometry (in Angstrom), charge = 0, multiplicity = 1:

       Center              X                  Y                   Z               Mass       
    ------------   -----------------  -----------------  -----------------  -----------------
         CL           0.000000000000    -0.000000000000    -0.964587833579    34.968852682000
         C            0.000000000000     0.000000000000     0.672030438871    12.000000000000
         N            0.000000000000    -0.000000000000     1.832895018388    14.003074004430

  Running in c2v symmetry.

  Rotational constants: A = ************  B =      0.19833  C =      0.19833 [cm^-1]
  Rotational constants: A = ************  B =   5945.70935  C =   5945.70935 [MHz]
  Nuclear repulsion =   74.636109936433883

  Charge       = 0
  Multiplicity = 1
  Electrons    = 30
  Nalpha       = 15
  Nbeta        = 15

  ==> Algorithm <==

  SCF Algorithm Type is DF.
  DIIS enabled.
  MOM disabled.
  Fractional occupation disabled.
  Guess Type is READ.
  Energy threshold   = 1.00e-08
  Density threshold  = 1.00e-08
  Integral threshold = 0.00e+00

  ==> Primary Basis <==

  Basis Set: CC-PV(D+D)Z
    Blend: CC-PV(D+D)Z
    Number of shells: 21
    Number of basis function: 51
    Number of Cartesian functions: 55
    Spherical Harmonics?: true
    Max angular momentum: 2

  ==> DFT Potential <==

   => Composite Functional: WB97X-V <= 

    wB97X-V Hyb-GGA Exchange-Correlation Functional

    N. Mardirossian and M. Head-Gordon, Phys. Chem. Chem. Phys. 16, 9904 (2014)

    Deriv               =              1
    GGA                 =           TRUE
    Meta                =          FALSE

    Exchange Hybrid     =           TRUE
    MP2 Hybrid          =          FALSE

   => Exchange-Correlation Functionals <=

    1.0000   wB97X-V range-separated functional

   => Exact (HF) Exchange <=

    0.8330            HF,LR [omega = 0.3000]
    0.1670               HF 

   => VV10 Non-Local Parameters <=

    VV10 B              =     6.0000E+00
    VV10 C              =     1.0000E-02

   => Molecular Quadrature <=

    Radial Scheme          =       TREUTLER
    Pruning Scheme         =           FLAT
    Nuclear Scheme         =       TREUTLER

    BS radius alpha        =              1
    Pruning alpha          =              1
    Radial Points          =             75
    Spherical Points       =            302
    Total Points           =          63587
    Total Blocks           =            554
    Max Points             =            256
    Max Functions          =             51

   => Loading Basis Set <=

    Name: (CC-PV(D+D)Z AUX)
    Role: JKFIT
    Keyword: DF_BASIS_SCF
    atoms 1 entry CL         line   667 file /work/zw18965/.conda/envs/p4env/share/psi4/basis/cc-pvdz-jkfit.gbs 
    atoms 2 entry C          line   121 file /work/zw18965/.conda/envs/p4env/share/psi4/basis/cc-pvdz-jkfit.gbs 
    atoms 3 entry N          line   171 file /work/zw18965/.conda/envs/p4env/share/psi4/basis/cc-pvdz-jkfit.gbs 

   => Loading Basis Set <=

    Name: CC-PV(D+D)Z
    Role: ORBITAL
    Keyword: BASIS
    atoms 1 entry CL         line   675 file /work/zw18965/.conda/envs/p4env/share/psi4/basis/cc-pv_dpd_z.gbs 
    atoms 2 entry C          line   147 file /work/zw18965/.conda/envs/p4env/share/psi4/basis/cc-pv_dpd_z.gbs 
    atoms 3 entry N          line   177 file /work/zw18965/.conda/envs/p4env/share/psi4/basis/cc-pv_dpd_z.gbs 

  Reading orbitals from file 180, no projection.

  ==> Pre-Iterations <==

   -------------------------------------------------------
    Irrep   Nso     Nmo     Nalpha   Nbeta   Ndocc  Nsocc
   -------------------------------------------------------
     A1        25      25       0       0       0       0
     A2         4       4       0       0       0       0
     B1        11      11       0       0       0       0
     B2        11      11       0       0       0       0
   -------------------------------------------------------
    Total      51      51      15      15      15       0
   -------------------------------------------------------

  ==> Integral Setup <==

  ==> DiskDFJK: Density-Fitted J/K Matrices <==

    J tasked:                  Yes
    K tasked:                  Yes
    wK tasked:                 Yes
    Omega:               3.000E-01
    OpenMP threads:             24
    Integrals threads:          24
    Memory [MiB]:           102909
    Algorithm:                Core
    Integral Cache:           NONE
    Schwarz Cutoff:          1E-12
    Fitting Condition:       1E-10

   => Auxiliary Basis Set <=

  Basis Set: (CC-PV(D+D)Z AUX)
    Blend: CC-PVDZ-JKFIT
    Number of shells: 84
    Number of basis function: 252
    Number of Cartesian functions: 292
    Spherical Harmonics?: true
    Max angular momentum: 3

  Cached 100.0% of DFT collocation blocks in 0.085 [GiB].

  Minimum eigenvalue in the overlap matrix is 5.2357406332E-03.
  Using Symmetric Orthogonalization.

  SCF Guess: Orbitals guess was supplied from a previous computation.

  ==> Iterations <==

                           Total Energy        Delta E     RMS |[F,P]|

   @DF-RKS iter   0:  -552.92870429249922   -5.52929e+02   5.52539e-05 
   @DF-RKS iter   1:  -552.92920942123965   -5.05129e-04   1.51067e-05 DIIS
   @DF-RKS iter   2:  -552.92920936129940    5.99402e-08   2.06405e-05 DIIS
   @DF-RKS iter   3:  -552.92920951448991   -1.53191e-07   2.00133e-06 DIIS
   @DF-RKS iter   4:  -552.92920951586621   -1.37629e-09   3.00819e-07 DIIS
   @DF-RKS iter   5:  -552.92920951594829   -8.20819e-11   5.43093e-08 DIIS
   @DF-RKS iter   6:  -552.92920951595181   -3.52429e-12   8.86615e-09 DIIS
  Energy and wave function converged.


  ==> Post-Iterations <==

    Orbital Energies [Eh]
    ---------------------

    Doubly Occupied:                                                      

       1A1  -101.616186     2A1   -14.455141     3A1   -10.386691  
       4A1    -9.644215     5A1    -7.401033     1B1    -7.388867  
       1B2    -7.388867     6A1    -1.097506     7A1    -1.034042  
       8A1    -0.689366     2B2    -0.552697     2B1    -0.552697  
       9A1    -0.501243     3B2    -0.435419     3B1    -0.435419  

    Virtual:                                                              

      10A1     0.089460     4B1     0.111768     4B2     0.111768  
      11A1     0.357871    12A1     0.494692     5B2     0.562814  
       5B1     0.562814     6B2     0.595914     6B1     0.595914  
      13A1     0.608182    14A1     0.671674     1A2     0.671675  
       7B1     0.753804     7B2     0.753804    15A1     0.786439  
       8B1     0.939104     8B2     0.939104    16A1     0.960727  
      17A1     1.008742     2A2     1.184323    18A1     1.184324  
      19A1     1.357166     9B1     1.498035     9B2     1.498035  
      20A1     1.673502    21A1     1.979734     3A2     1.979734  
      10B1     2.532870    10B2     2.532870    22A1     2.701949  
      23A1     2.923544    24A1     5.259719     4A2     5.259748  
      11B1     5.353435    11B2     5.353435    25A1     5.530123  

    Final Occupation by Irrep:
             A1    A2    B1    B2 
    DOCC [     9,    0,    3,    3 ]

  @DF-RKS Final Energy:  -552.92920951595181

   => Energetics <=

    Nuclear Repulsion Energy =             74.6361099364338827
    One-Electron Energy =                -907.6188476348783070
    Two-Electron Energy =                 309.9137638417062135
    DFT Exchange-Correlation Energy =     -29.9847165927816164
    Empirical Dispersion Energy =           0.0000000000000000
    VV10 Nonlocal Energy =                  0.1244809335681014
    Total Energy =                       -552.9292095159518112

Computation Completed


Properties will be evaluated at   0.000000,   0.000000,   0.000000 [a0]

Properties computed using the SCF density matrix

  Nuclear Dipole Moment: [e a0]
     X:     0.0000      Y:     0.0000      Z:     0.8777

  Electronic Dipole Moment: [e a0]
     X:     0.0000      Y:     0.0000      Z:    -1.9341

  Dipole Moment: [e a0]
     X:     0.0000      Y:     0.0000      Z:    -1.0564     Total:     1.0564

  Dipole Moment: [D]
     X:     0.0000      Y:     0.0000      Z:    -2.6851     Total:     2.6851


*** tstop() called on bp1-compute00113.data.bp.acrc.priv at Tue Apr 27 18:04:47 2021
Module time:
	user time   =      37.77 seconds =       0.63 minutes
	system time =       1.41 seconds =       0.02 minutes
	total time  =          2 seconds =       0.03 minutes
Total time:
	user time   =     396.84 seconds =       6.61 minutes
	system time =      15.08 seconds =       0.25 minutes
	total time  =         17 seconds =       0.28 minutes

  //>>>>>>>>>>>>>>>>>>>>>>>>>>>>>>>>>>>//
  //    Loading displacement 3 of 5    //
  //<<<<<<<<<<<<<<<<<<<<<<<<<<<<<<<<<<<//

*** tstart() called on bp1-compute00113.data.bp.acrc.priv
*** at Tue Apr 27 18:04:47 2021

   => Loading Basis Set <=

    Name: CC-PV(D+D)Z
    Role: ORBITAL
    Keyword: BASIS
    atoms 1 entry CL         line   675 file /work/zw18965/.conda/envs/p4env/share/psi4/basis/cc-pv_dpd_z.gbs 
    atoms 2 entry C          line   147 file /work/zw18965/.conda/envs/p4env/share/psi4/basis/cc-pv_dpd_z.gbs 
    atoms 3 entry N          line   177 file /work/zw18965/.conda/envs/p4env/share/psi4/basis/cc-pv_dpd_z.gbs 


         ---------------------------------------------------------
                                   SCF
               by Justin Turney, Rob Parrish, Andy Simmonett
                          and Daniel G. A. Smith
                              RKS Reference
                       24 Threads, 137329 MiB Core
         ---------------------------------------------------------

  ==> Geometry <==

    Molecular point group: c2v
    Full point group: C_inf_v

    Geometry (in Angstrom), charge = 0, multiplicity = 1:

       Center              X                  Y                   Z               Mass       
    ------------   -----------------  -----------------  -----------------  -----------------
         CL           0.000000000000    -0.000000000000    -0.964003436781    34.968852682000
         C            0.000000000000     0.000000000000     0.671244543883    12.000000000000
         N            0.000000000000    -0.000000000000     1.832109123400    14.003074004430

  Running in c2v symmetry.

  Rotational constants: A = ************  B =      0.19854  C =      0.19854 [cm^-1]
  Rotational constants: A = ************  B =   5952.18073  C =   5952.18073 [MHz]
  Nuclear repulsion =   74.674778069751909

  Charge       = 0
  Multiplicity = 1
  Electrons    = 30
  Nalpha       = 15
  Nbeta        = 15

  ==> Algorithm <==

  SCF Algorithm Type is DF.
  DIIS enabled.
  MOM disabled.
  Fractional occupation disabled.
  Guess Type is READ.
  Energy threshold   = 1.00e-08
  Density threshold  = 1.00e-08
  Integral threshold = 0.00e+00

  ==> Primary Basis <==

  Basis Set: CC-PV(D+D)Z
    Blend: CC-PV(D+D)Z
    Number of shells: 21
    Number of basis function: 51
    Number of Cartesian functions: 55
    Spherical Harmonics?: true
    Max angular momentum: 2

  ==> DFT Potential <==

   => Composite Functional: WB97X-V <= 

    wB97X-V Hyb-GGA Exchange-Correlation Functional

    N. Mardirossian and M. Head-Gordon, Phys. Chem. Chem. Phys. 16, 9904 (2014)

    Deriv               =              1
    GGA                 =           TRUE
    Meta                =          FALSE

    Exchange Hybrid     =           TRUE
    MP2 Hybrid          =          FALSE

   => Exchange-Correlation Functionals <=

    1.0000   wB97X-V range-separated functional

   => Exact (HF) Exchange <=

    0.8330            HF,LR [omega = 0.3000]
    0.1670               HF 

   => VV10 Non-Local Parameters <=

    VV10 B              =     6.0000E+00
    VV10 C              =     1.0000E-02

   => Molecular Quadrature <=

    Radial Scheme          =       TREUTLER
    Pruning Scheme         =           FLAT
    Nuclear Scheme         =       TREUTLER

    BS radius alpha        =              1
    Pruning alpha          =              1
    Radial Points          =             75
    Spherical Points       =            302
[...]
      29Ap     1.673636    30Ap     1.979775    12App    1.979775  
      31Ap     2.533083    13App    2.533084    32Ap     2.702549  
      33Ap     2.923611    34Ap     5.259711    14App    5.259740  
      15App    5.353612    35Ap     5.353612    36Ap     5.530082  

    Final Occupation by Irrep:
             Ap   App 
    DOCC [    12,    3 ]

  @DF-RKS Final Energy:  -552.92920965589838

   => Energetics <=

    Nuclear Repulsion Energy =             74.6554264073157015
    One-Electron Energy =                -907.6570522908626799
    Two-Electron Energy =                 309.9329177299758840
    DFT Exchange-Correlation Energy =     -29.9849815214549729
    Empirical Dispersion Energy =           0.0000000000000000
    VV10 Nonlocal Energy =                  0.1244800191276243
    Total Energy =                       -552.9292096558983758

Computation Completed


Properties will be evaluated at   0.000000,   0.000000,   0.000000 [a0]

Properties computed using the SCF density matrix

  Nuclear Dipole Moment: [e a0]
     X:     0.0001      Y:     0.0000      Z:     0.8774

  Electronic Dipole Moment: [e a0]
     X:     0.0002      Y:     0.0000      Z:    -1.9344

  Dipole Moment: [e a0]
     X:     0.0003      Y:     0.0000      Z:    -1.0569     Total:     1.0569

  Dipole Moment: [D]
     X:     0.0007      Y:     0.0000      Z:    -2.6864     Total:     2.6864


*** tstop() called on bp1-compute00113.data.bp.acrc.priv at Tue Apr 27 18:05:27 2021
Module time:
	user time   =      63.69 seconds =       1.06 minutes
	system time =       2.05 seconds =       0.03 minutes
	total time  =          2 seconds =       0.03 minutes
Total time:
	user time   =    1337.15 seconds =      22.29 minutes
	system time =      47.01 seconds =       0.78 minutes
	total time  =         57 seconds =       0.95 minutes

  //>>>>>>>>>>>>>>>>>>>>>>>>>>>>>>>>>>>//
  //    Loading displacement 9 of 9    //
  //<<<<<<<<<<<<<<<<<<<<<<<<<<<<<<<<<<<//

*** tstart() called on bp1-compute00113.data.bp.acrc.priv
*** at Tue Apr 27 18:05:27 2021

   => Loading Basis Set <=

    Name: CC-PV(D+D)Z
    Role: ORBITAL
    Keyword: BASIS
    atoms 1 entry CL         line   675 file /work/zw18965/.conda/envs/p4env/share/psi4/basis/cc-pv_dpd_z.gbs 
    atoms 2 entry C          line   147 file /work/zw18965/.conda/envs/p4env/share/psi4/basis/cc-pv_dpd_z.gbs 
    atoms 3 entry N          line   177 file /work/zw18965/.conda/envs/p4env/share/psi4/basis/cc-pv_dpd_z.gbs 


         ---------------------------------------------------------
                                   SCF
               by Justin Turney, Rob Parrish, Andy Simmonett
                          and Daniel G. A. Smith
                              RKS Reference
                       24 Threads, 137329 MiB Core
         ---------------------------------------------------------

  ==> Geometry <==

    Molecular point group: cs
    Full point group: Cs

    Geometry (in Angstrom), charge = 0, multiplicity = 1:

       Center              X                  Y                   Z               Mass       
    ------------   -----------------  -----------------  -----------------  -----------------
         CL           0.000000000000    -0.000093553641    -0.964295635180    34.968852682000
         C            0.000000000000     0.000656810861     0.671637491377    12.000000000000
         N            0.000000000000    -0.000329232485     1.832502070894    14.003074004430

  Running in cs symmetry.

  Rotational constants: A = 2407987.46702  B =      0.19844  C =      0.19844 [cm^-1]
  Rotational constants: A = 72189648157.17372  B =   5948.94377  C =   5948.94328 [MHz]
  Nuclear repulsion =   74.655426407315701

  Charge       = 0
  Multiplicity = 1
  Electrons    = 30
  Nalpha       = 15
  Nbeta        = 15

  ==> Algorithm <==

  SCF Algorithm Type is DF.
  DIIS enabled.
  MOM disabled.
  Fractional occupation disabled.
  Guess Type is SAD.
  Energy threshold   = 1.00e-10
  Density threshold  = 1.00e-10
  Integral threshold = 0.00e+00

  ==> Primary Basis <==

  Basis Set: CC-PV(D+D)Z
    Blend: CC-PV(D+D)Z
    Number of shells: 21
    Number of basis function: 51
    Number of Cartesian functions: 55
    Spherical Harmonics?: true
    Max angular momentum: 2

  ==> DFT Potential <==

   => Composite Functional: WB97X-V <= 

    wB97X-V Hyb-GGA Exchange-Correlation Functional

    N. Mardirossian and M. Head-Gordon, Phys. Chem. Chem. Phys. 16, 9904 (2014)

    Deriv               =              1
    GGA                 =           TRUE
    Meta                =          FALSE

    Exchange Hybrid     =           TRUE
    MP2 Hybrid          =          FALSE

   => Exchange-Correlation Functionals <=

    1.0000   wB97X-V range-separated functional

   => Exact (HF) Exchange <=

    0.8330            HF,LR [omega = 0.3000]
    0.1670               HF 

   => VV10 Non-Local Parameters <=

    VV10 B              =     6.0000E+00
    VV10 C              =     1.0000E-02

   => Molecular Quadrature <=

    Radial Scheme          =       TREUTLER
    Pruning Scheme         =           FLAT
    Nuclear Scheme         =       TREUTLER

    BS radius alpha        =              1
    Pruning alpha          =              1
    Radial Points          =             75
    Spherical Points       =            302
    Total Points           =          63587
    Total Blocks           =            556
    Max Points             =            254
    Max Functions          =             51

   => Loading Basis Set <=

    Name: (CC-PV(D+D)Z AUX)
    Role: JKFIT
    Keyword: DF_BASIS_SCF
    atoms 1 entry CL         line   667 file /work/zw18965/.conda/envs/p4env/share/psi4/basis/cc-pvdz-jkfit.gbs 
    atoms 2 entry C          line   121 file /work/zw18965/.conda/envs/p4env/share/psi4/basis/cc-pvdz-jkfit.gbs 
    atoms 3 entry N          line   171 file /work/zw18965/.conda/envs/p4env/share/psi4/basis/cc-pvdz-jkfit.gbs 

  ==> Pre-Iterations <==

   -------------------------------------------------------
    Irrep   Nso     Nmo     Nalpha   Nbeta   Ndocc  Nsocc
   -------------------------------------------------------
     A'        36      36       0       0       0       0
     A"        15      15       0       0       0       0
   -------------------------------------------------------
    Total      51      51      15      15      15       0
   -------------------------------------------------------

  ==> Integral Setup <==

  ==> DiskDFJK: Density-Fitted J/K Matrices <==

    J tasked:                  Yes
    K tasked:                  Yes
    wK tasked:                 Yes
    Omega:               3.000E-01
    OpenMP threads:             24
    Integrals threads:          24
    Memory [MiB]:           102909
    Algorithm:                Core
    Integral Cache:           NONE
    Schwarz Cutoff:          1E-12
    Fitting Condition:       1E-10

   => Auxiliary Basis Set <=

  Basis Set: (CC-PV(D+D)Z AUX)
    Blend: CC-PVDZ-JKFIT
    Number of shells: 84
    Number of basis function: 252
    Number of Cartesian functions: 292
    Spherical Harmonics?: true
    Max angular momentum: 3

  Cached 100.0% of DFT collocation blocks in 0.085 [GiB].

  Minimum eigenvalue in the overlap matrix is 5.2333498896E-03.
  Using Symmetric Orthogonalization.

  SCF Guess: Superposition of Atomic Densities via on-the-fly atomic UHF.

  ==> Iterations <==

                           Total Energy        Delta E     RMS |[F,P]|

   @DF-RKS iter SAD:  -552.43156090079333   -5.52432e+02   0.00000e+00 
   @DF-RKS iter   1:  -552.77992235338843   -3.48361e-01   1.41785e-02 DIIS
   @DF-RKS iter   2:  -552.61716504155879    1.62757e-01   2.12334e-02 DIIS
   @DF-RKS iter   3:  -552.92773436508639   -3.10569e-01   1.14226e-03 DIIS
   @DF-RKS iter   4:  -552.92886928410235   -1.13492e-03   5.92498e-04 DIIS
   @DF-RKS iter   5:  -552.92917852031871   -3.09236e-04   1.44806e-04 DIIS
   @DF-RKS iter   6:  -552.92920765118379   -2.91309e-05   2.84238e-05 DIIS
   @DF-RKS iter   7:  -552.92920961560685   -1.96442e-06   4.92843e-06 DIIS
   @DF-RKS iter   8:  -552.92920965349970   -3.78928e-08   1.39809e-06 DIIS
   @DF-RKS iter   9:  -552.92920965587018   -2.37048e-09   2.25832e-07 DIIS
   @DF-RKS iter  10:  -552.92920965595692   -8.67431e-11   7.54207e-08 DIIS
   @DF-RKS iter  11:  -552.92920965596375   -6.82121e-12   9.68979e-09 DIIS
   @DF-RKS iter  12:  -552.92920965596397   -2.27374e-13   1.12230e-09 DIIS
   @DF-RKS iter  13:  -552.92920965596431   -3.41061e-13   7.61596e-11 DIIS
  Energy and wave function converged.


  ==> Post-Iterations <==

    Orbital Energies [Eh]
    ---------------------

    Doubly Occupied:                                                      

       1Ap  -101.616172     2Ap   -14.455081     3Ap   -10.386628  
       4Ap    -9.644220     5Ap    -7.401033     1App   -7.388873  
       6Ap    -7.388873     7Ap    -1.097630     8Ap    -1.034059  
       9Ap    -0.689446     2App   -0.552796    10Ap    -0.552796  
      11Ap    -0.501206     3App   -0.435354    12Ap    -0.435354  

    Virtual:                                                              

      13Ap     0.089779     4App    0.111793    14Ap     0.111795  
      15Ap     0.357840    16Ap     0.494486    17Ap     0.562809  
       5App    0.562809    18Ap     0.595921     6App    0.595921  
      19Ap     0.608255    20Ap     0.671607     7App    0.671607  
       8App    0.753863    21Ap     0.753863    22Ap     0.786469  
      23Ap     0.939134     9App    0.939136    24Ap     0.961066  
      25Ap     1.009061    10App    1.184354    26Ap     1.184355  
      27Ap     1.357420    11App    1.498344    28Ap     1.498347  
      29Ap     1.673636    30Ap     1.979775    12App    1.979775  
      31Ap     2.533083    13App    2.533084    32Ap     2.702549  
      33Ap     2.923611    34Ap     5.259711    14App    5.259740  
      15App    5.353612    35Ap     5.353612    36Ap     5.530082  

    Final Occupation by Irrep:
             Ap   App 
    DOCC [    12,    3 ]

  @DF-RKS Final Energy:  -552.92920965596431

   => Energetics <=

    Nuclear Repulsion Energy =             74.6554264073157015
    One-Electron Energy =                -907.6570522908589282
    Two-Electron Energy =                 309.9329177299056823
    DFT Exchange-Correlation Energy =     -29.9849815214543369
    Empirical Dispersion Energy =           0.0000000000000000
    VV10 Nonlocal Energy =                  0.1244800191276278
    Total Energy =                       -552.9292096559642005

Computation Completed


Properties will be evaluated at   0.000000,   0.000000,   0.000000 [a0]

Properties computed using the SCF density matrix

  Nuclear Dipole Moment: [e a0]
     X:     0.0000      Y:     0.0001      Z:     0.8774

  Electronic Dipole Moment: [e a0]
     X:     0.0000      Y:     0.0002      Z:    -1.9344

  Dipole Moment: [e a0]
     X:     0.0000      Y:     0.0003      Z:    -1.0569     Total:     1.0569

  Dipole Moment: [D]
     X:     0.0000      Y:     0.0007      Z:    -2.6864     Total:     2.6864


*** tstop() called on bp1-compute00113.data.bp.acrc.priv at Tue Apr 27 18:05:30 2021
Module time:
	user time   =      62.96 seconds =       1.05 minutes
	system time =       1.94 seconds =       0.03 minutes
	total time  =          3 seconds =       0.05 minutes
Total time:
	user time   =    1400.24 seconds =      23.34 minutes
	system time =      48.96 seconds =       0.82 minutes
	total time  =         60 seconds =       1.00 minutes

         ----------------------------------------------------------
                                   FINDIF
                     R. A. King and Jonathon Misiewicz
         ---------------------------------------------------------

  Computing second-derivative from energies using projected, 
  symmetry-adapted, cartesian coordinates.

  9 energies passed in, including the reference geometry.
    Using 3-point formula.
    Energy without displacement: -552.9292097342
    Check energies below for precision!
    0: -1        :      -552.9292095160
    0: 1         :      -552.9292093408
    1: -1        :      -552.9292070541
    1: 1         :      -552.9292070970
    0: 1, 1: 1   :      -552.9292071664
    0: -1, 1: -1 :      -552.9292072979
    2: -1        :      -552.9292096559
    3: -1        :      -552.9292096560

-------------------------------------------------------------


  ==> Harmonic Vibrational Analysis <==

  non-mass-weighted Hessian:       Symmetric? True   Hermitian? True   Lin Dep Dim?  5 (0)
  projection of translations (True) and rotations (True) removed 5 degrees of freedom (5)
  total projector:                 Symmetric? True   Hermitian? True   Lin Dep Dim?  5 (5)
  mass-weighted Hessian:           Symmetric? True   Hermitian? True   Lin Dep Dim?  5 (0)
  pre-proj  low-frequency mode:    0.0000i [cm^-1]
  pre-proj  low-frequency mode:    0.0000i [cm^-1]
  pre-proj  low-frequency mode:    0.0000i [cm^-1]
  pre-proj  low-frequency mode:    0.0000  [cm^-1]
  pre-proj  low-frequency mode:    0.0000  [cm^-1]
  pre-proj  all modes:['0.0000i' '0.0000i' '0.0000i' '0.0000' '0.0000' '406.7858' '406.9571'
 '773.8730' '2380.7494']
  projected mass-weighted Hessian: Symmetric? True   Hermitian? True   Lin Dep Dim?  5 (5)
  post-proj low-frequency mode:    0.0000i [cm^-1] (TR)
  post-proj low-frequency mode:    0.0000i [cm^-1] (TR)
  post-proj low-frequency mode:    0.0000  [cm^-1] (TR)
  post-proj low-frequency mode:    0.0000  [cm^-1] (TR)
  post-proj low-frequency mode:    0.0000  [cm^-1] (TR)
  post-proj  all modes:['0.0000i' '0.0000i' '0.0000' '0.0000' '0.0000' '406.7858' '406.9571'
 '773.8730' '2380.7494']

  Vibration                       6                   7                   8           
  Freq [cm^-1]                 406.7858            406.9571            773.8730       
  Irrep                           B2                  B1                  A1          
  Reduced mass [u]             12.7623             12.7623             17.9720        
  Force const [mDyne/A]         1.2443              1.2453              6.3414        
  Turning point v=0 [a0]        0.1523              0.1523              0.0930        
  RMS dev v=0 [a0 u^1/2]        0.3847              0.3846              0.2789        
  Char temp [K]                585.2742            585.5207           1113.4310       
  ----------------------------------------------------------------------------------
      1   CL              -0.00 -0.13  0.00   -0.13 -0.00  0.00    0.00  0.00  0.47   
      2   C                0.00  0.89 -0.00    0.89  0.00  0.00   -0.00 -0.00 -0.54   
      3   N                0.00 -0.44 -0.00   -0.44 -0.00  0.00   -0.00 -0.00 -0.70   

  Vibration                       9           
  Freq [cm^-1]                2380.7494       
  Irrep                           A1          
  Reduced mass [u]             12.7392        
  Force const [mDyne/A]        42.5421        
  Turning point v=0 [a0]        0.0630        
  RMS dev v=0 [a0 u^1/2]        0.1590        
  Char temp [K]               3425.3683       
  ----------------------------------------------------------------------------------
      1   CL               0.00  0.00 -0.04   
      2   C                0.00 -0.00  0.80   
      3   N               -0.00 -0.00 -0.59   

  ==> Thermochemistry Components <==

  Entropy, S
    Electronic S            0.000 [cal/(mol K)]        0.000 [J/(mol K)]       0.00000000 [mEh/K] (multiplicity = 1)
    Translational S        38.243 [cal/(mol K)]      160.010 [J/(mol K)]       0.06094445 [mEh/K] (mol. weight = 60.9719 [u], P = 101325.00 [Pa])
    Rotational S           15.800 [cal/(mol K)]       66.109 [J/(mol K)]       0.02517961 [mEh/K] (symmetry no. = 1)
    Vibrational S           2.105 [cal/(mol K)]        8.809 [J/(mol K)]       0.00335511 [mEh/K]
  Total S                  56.149 [cal/(mol K)]      234.928 [J/(mol K)]       0.08947917 [mEh/K]
  Correction S              0.000 [cal/(mol K)]        0.000 [J/(mol K)]       0.00000000 [mEh/K]

  Constant volume heat capacity, Cv
    Electronic Cv           0.000 [cal/(mol K)]        0.000 [J/(mol K)]       0.00000000 [mEh/K]
    Translational Cv        2.981 [cal/(mol K)]       12.472 [J/(mol K)]       0.00475022 [mEh/K]
    Rotational Cv           1.987 [cal/(mol K)]        8.314 [J/(mol K)]       0.00316681 [mEh/K]
    Vibrational Cv          3.608 [cal/(mol K)]       15.096 [J/(mol K)]       0.00574977 [mEh/K]
  Total Cv                  8.576 [cal/(mol K)]       35.882 [J/(mol K)]       0.01366679 [mEh/K]
  Correction Cv             0.000 [cal/(mol K)]        0.000 [J/(mol K)]       0.00000000 [mEh/K]

  Constant pressure heat capacity, Cp
    Electronic Cp           0.000 [cal/(mol K)]        0.000 [J/(mol K)]       0.00000000 [mEh/K]
    Translational Cp        4.968 [cal/(mol K)]       20.786 [J/(mol K)]       0.00791703 [mEh/K]
    Rotational Cp           1.987 [cal/(mol K)]        8.314 [J/(mol K)]       0.00316681 [mEh/K]
    Vibrational Cp          3.608 [cal/(mol K)]       15.096 [J/(mol K)]       0.00574977 [mEh/K]
  Total Cp                 10.563 [cal/(mol K)]       44.197 [J/(mol K)]       0.01683360 [mEh/K]
  Correction Cp             0.000 [cal/(mol K)]        0.000 [J/(mol K)]       0.00000000 [mEh/K]

  ==> Thermochemistry Energy Analysis <==

  Raw electronic energy, E0
  Total E0, Electronic energy at well bottom at 0 [K]                 -552.92920973 [Eh]

  Zero-point energy, ZPE_vib = Sum_i nu_i / 2
    Electronic ZPE          0.000 [kcal/mol]        0.000 [kJ/mol]       0.00000000 [Eh]
    Translational ZPE       0.000 [kcal/mol]        0.000 [kJ/mol]       0.00000000 [Eh]
    Rotational ZPE          0.000 [kcal/mol]        0.000 [kJ/mol]       0.00000000 [Eh]
    Vibrational ZPE         5.673 [kcal/mol]       23.736 [kJ/mol]       0.00904060 [Eh]        1984.183 [cm^-1]
  Correction ZPE            5.673 [kcal/mol]       23.736 [kJ/mol]       0.00904060 [Eh]        1984.183 [cm^-1]
  Total ZPE, Electronic energy at 0 [K]                               -552.92016913 [Eh]

  Thermal Energy, E (includes ZPE)
    Electronic E            0.000 [kcal/mol]        0.000 [kJ/mol]       0.00000000 [Eh]
    Translational E         0.889 [kcal/mol]        3.718 [kJ/mol]       0.00141628 [Eh]
    Rotational E            0.592 [kcal/mol]        2.479 [kJ/mol]       0.00094418 [Eh]
    Vibrational E           6.107 [kcal/mol]       25.553 [kJ/mol]       0.00973246 [Eh]
  Correction E              7.588 [kcal/mol]       31.750 [kJ/mol]       0.01209292 [Eh]
  Total E, Electronic energy at  298.15 [K]                           -552.91711682 [Eh]

  Enthalpy, H_trans = E_trans + k_B * T
    Electronic H            0.000 [kcal/mol]        0.000 [kJ/mol]       0.00000000 [Eh]
    Translational H         1.481 [kcal/mol]        6.197 [kJ/mol]       0.00236046 [Eh]
    Rotational H            0.592 [kcal/mol]        2.479 [kJ/mol]       0.00094418 [Eh]
    Vibrational H           6.107 [kcal/mol]       25.553 [kJ/mol]       0.00973246 [Eh]
  Correction H              8.181 [kcal/mol]       34.229 [kJ/mol]       0.01303710 [Eh]
  Total H, Enthalpy at  298.15 [K]                                    -552.91617263 [Eh]

  Gibbs free energy, G = H - T * S
    Electronic G            0.000 [kcal/mol]        0.000 [kJ/mol]       0.00000000 [Eh]
    Translational G        -9.921 [kcal/mol]      -41.509 [kJ/mol]      -0.01581013 [Eh]
    Rotational G           -4.118 [kcal/mol]      -17.231 [kJ/mol]      -0.00656312 [Eh]
    Vibrational G           5.479 [kcal/mol]       22.926 [kJ/mol]       0.00873213 [Eh]
  Correction G             -8.560 [kcal/mol]      -35.815 [kJ/mol]      -0.01364111 [Eh]
  Total G, Free enthalpy at  298.15 [K]                               -552.94285085 [Eh]

    Psi4 stopped on: Tuesday, 27 April 2021 06:05PM
    Psi4 wall time for execution: 0:01:01.13

*** Psi4 exiting successfully. Buy a developer a beer!
