
    -----------------------------------------------------------------------
          Psi4: An Open-Source Ab Initio Electronic Structure Package
                               Psi4 1.3.2 release

                         Git: Rev {HEAD} ecbda83 


    R. M. Parrish, L. A. Burns, D. G. A. Smith, A. C. Simmonett,
    A. E. DePrince III, E. G. Hohenstein, U. Bozkaya, A. Yu. Sokolov,
    R. Di Remigio, R. M. Richard, J. F. Gonthier, A. M. James,
    H. R. McAlexander, A. Kumar, M. Saitow, X. Wang, B. P. Pritchard,
    P. Verma, H. F. Schaefer III, K. Patkowski, R. A. King, E. F. Valeev,
    F. A. Evangelista, J. M. Turney, T. D. Crawford, and C. D. Sherrill,
    J. Chem. Theory Comput. 13(7) pp 3185--3197 (2017).
    (doi: 10.1021/acs.jctc.7b00174)


                         Additional Contributions by
    P. Kraus, H. Kruse, M. H. Lechner, M. C. Schieber, R. A. Shaw,
    A. Alenaizan, R. Galvelis, Z. L. Glick, S. Lehtola, and J. P. Misiewicz

    -----------------------------------------------------------------------


    Psi4 started on: Tuesday, 27 April 2021 06:04PM

    Process ID: 75965
    Host:       bp1-compute00149.data.bp.acrc.priv
    PSIDATADIR: /work/zw18965/.conda/envs/p4env/share/psi4
    Memory:     500.0 MiB
    Threads:    24
    
  ==> Input File <==

--------------------------------------------------------------------------
memory 144 GB

molecule {
0 1
C 0.0000000000 0.0000000000 0.0000000000
O 0.0000000000 0.0000000000 1.1626000000
O 0.0000000000 0.0000000000 -1.1626000000
}

set dynamic_level 1
set basis cc-pV(D+d)Z
 
optimize("wB97X-V")
frequencies("wB97X-V")
--------------------------------------------------------------------------

  Memory set to 134.110 GiB by Python driver.
gradient() will perform gradient computation by finite difference of analytic energies.

         ----------------------------------------------------------
                                   FINDIF
                     R. A. King and Jonathon Misiewicz
         ---------------------------------------------------------

  Using finite-differences of energies to determine gradients.
    Generating geometries for use with 3-point formula.
    Displacement size will be 5.00e-03.
    Number of atoms is 3.
    Number of symmetric SALCs is 1.
    Translations projected? 1. Rotations projected? 1.
    Number of geometries (including reference) is 3.

  //>>>>>>>>>>>>>>>>>>>>>>>>>>>>>>>>>>>//
  //    Loading displacement 1 of 3    //
  //<<<<<<<<<<<<<<<<<<<<<<<<<<<<<<<<<<<//

*** tstart() called on bp1-compute00149.data.bp.acrc.priv
*** at Tue Apr 27 18:04:30 2021

   => Loading Basis Set <=

    Name: CC-PV(D+D)Z
    Role: ORBITAL
    Keyword: BASIS
    atoms 1   entry C          line   147 file /work/zw18965/.conda/envs/p4env/share/psi4/basis/cc-pv_dpd_z.gbs 
    atoms 2-3 entry O          line   207 file /work/zw18965/.conda/envs/p4env/share/psi4/basis/cc-pv_dpd_z.gbs 


         ---------------------------------------------------------
                                   SCF
               by Justin Turney, Rob Parrish, Andy Simmonett
                          and Daniel G. A. Smith
                              RKS Reference
                       24 Threads, 137329 MiB Core
         ---------------------------------------------------------

  ==> Geometry <==

    Molecular point group: d2h
    Full point group: D_inf_h

    Geometry (in Angstrom), charge = 0, multiplicity = 1:

       Center              X                  Y                   Z               Mass       
    ------------   -----------------  -----------------  -----------------  -----------------
         C            0.000000000000     0.000000000000     0.000000000000    12.000000000000
         O            0.000000000000     0.000000000000     1.162600000000    15.994914619570
         O            0.000000000000     0.000000000000    -1.162600000000    15.994914619570

  Running in d2h symmetry.

  Rotational constants: A = ************  B =      0.38987  C =      0.38987 [cm^-1]
  Rotational constants: A = ************  B =  11688.11942  C =  11688.11942 [MHz]
  Nuclear repulsion =   58.261382217237241

  Charge       = 0
  Multiplicity = 1
  Electrons    = 22
  Nalpha       = 11
  Nbeta        = 11

  ==> Algorithm <==

  SCF Algorithm Type is DF.
  DIIS enabled.
  MOM disabled.
  Fractional occupation disabled.
  Guess Type is SAD.
  Energy threshold   = 1.00e-08
  Density threshold  = 1.00e-08
  Integral threshold = 0.00e+00

  ==> Primary Basis <==

  Basis Set: CC-PV(D+D)Z
    Blend: CC-PV(D+D)Z
    Number of shells: 18
    Number of basis function: 42
    Number of Cartesian functions: 45
    Spherical Harmonics?: true
    Max angular momentum: 2

  ==> DFT Potential <==

   => Composite Functional: WB97X-V <= 

    wB97X-V Hyb-GGA Exchange-Correlation Functional

    N. Mardirossian and M. Head-Gordon, Phys. Chem. Chem. Phys. 16, 9904 (2014)

    Deriv               =              1
    GGA                 =           TRUE
    Meta                =          FALSE

    Exchange Hybrid     =           TRUE
    MP2 Hybrid          =          FALSE

   => Exchange-Correlation Functionals <=

    1.0000   wB97X-V range-separated functional

   => Exact (HF) Exchange <=

    0.8330            HF,LR [omega = 0.3000]
    0.1670               HF 

   => VV10 Non-Local Parameters <=

    VV10 B              =     6.0000E+00
    VV10 C              =     1.0000E-02

   => Molecular Quadrature <=

    Radial Scheme          =       TREUTLER
    Pruning Scheme         =           FLAT
    Nuclear Scheme         =       TREUTLER

    BS radius alpha        =              1
    Pruning alpha          =              1
    Radial Points          =             75
    Spherical Points       =            302
    Total Points           =          64496
    Total Blocks           =            557
    Max Points             =            254
    Max Functions          =             42

   => Loading Basis Set <=

    Name: (CC-PV(D+D)Z AUX)
    Role: JKFIT
    Keyword: DF_BASIS_SCF
    atoms 1   entry C          line   121 file /work/zw18965/.conda/envs/p4env/share/psi4/basis/cc-pvdz-jkfit.gbs 
    atoms 2-3 entry O          line   221 file /work/zw18965/.conda/envs/p4env/share/psi4/basis/cc-pvdz-jkfit.gbs 

  ==> Pre-Iterations <==

   -------------------------------------------------------
    Irrep   Nso     Nmo     Nalpha   Nbeta   Ndocc  Nsocc
   -------------------------------------------------------
     Ag        12      12       0       0       0       0
     B1g        2       2       0       0       0       0
     B2g        4       4       0       0       0       0
     B3g        4       4       0       0       0       0
     Au         1       1       0       0       0       0
     B1u        9       9       0       0       0       0
     B2u        5       5       0       0       0       0
     B3u        5       5       0       0       0       0
   -------------------------------------------------------
    Total      42      42      11      11      11       0
   -------------------------------------------------------

  ==> Integral Setup <==

  ==> DiskDFJK: Density-Fitted J/K Matrices <==

    J tasked:                  Yes
    K tasked:                  Yes
    wK tasked:                 Yes
    Omega:               3.000E-01
    OpenMP threads:             24
    Integrals threads:          24
    Memory [MiB]:           102921
    Algorithm:                Core
    Integral Cache:           NONE
    Schwarz Cutoff:          1E-12
    Fitting Condition:       1E-10

   => Auxiliary Basis Set <=

  Basis Set: (CC-PV(D+D)Z AUX)
    Blend: CC-PVDZ-JKFIT
    Number of shells: 72
    Number of basis function: 210
    Number of Cartesian functions: 243
    Spherical Harmonics?: true
    Max angular momentum: 3

  Cached 100.0% of DFT collocation blocks in 0.074 [GiB].

  Minimum eigenvalue in the overlap matrix is 1.7690317679E-02.
  Using Symmetric Orthogonalization.

  SCF Guess: Superposition of Atomic Densities via on-the-fly atomic UHF.

  ==> Iterations <==

                           Total Energy        Delta E     RMS |[F,P]|

   @DF-RKS iter SAD:  -187.89744846809401   -1.87897e+02   0.00000e+00 
   @DF-RKS iter   1:  -188.43554044809559   -5.38092e-01   3.07107e-02 DIIS
   @DF-RKS iter   2:  -188.40471579011816    3.08247e-02   3.55508e-02 DIIS
   @DF-RKS iter   3:  -188.53746191187193   -1.32746e-01   8.96068e-04 DIIS
   @DF-RKS iter   4:  -188.53757684382731   -1.14932e-04   2.30980e-04 DIIS
   @DF-RKS iter   5:  -188.53758421708065   -7.37325e-06   2.54798e-05 DIIS
   @DF-RKS iter   6:  -188.53758435514061   -1.38060e-07   4.62912e-06 DIIS
   @DF-RKS iter   7:  -188.53758436242282   -7.28221e-09   7.98981e-07 DIIS
   @DF-RKS iter   8:  -188.53758436260915   -1.86333e-10   6.68203e-08 DIIS
   @DF-RKS iter   9:  -188.53758436261037   -1.22213e-12   4.60307e-09 DIIS
  Energy and wave function converged.


  ==> Post-Iterations <==

    Orbital Energies [Eh]
    ---------------------

    Doubly Occupied:                                                      

       1B1u  -19.305279     1Ag   -19.305258     2Ag   -10.474936  
       3Ag    -1.291241     2B1u   -1.245971     4Ag    -0.675018  
       1B2u   -0.628657     1B3u   -0.628657     3B1u   -0.626328  
       1B3g   -0.468389     1B2g   -0.468389  

    Virtual:                                                              

       2B3u    0.141974     2B2u    0.141974     5Ag     0.186787  
       4B1u    0.444608     3B2u    0.523018     3B3u    0.523018  
       6Ag     0.654481     5B1u    0.867840     7Ag     0.947626  
       2B3g    0.990102     2B2g    0.990102     8Ag     1.142074  
       1B1g    1.142074     4B3u    1.213456     4B2u    1.213456  
       6B1u    1.220363     3B2g    1.411194     3B3g    1.411194  
       9Ag     1.706376     7B1u    2.143913     8B1u    2.631547  
       1Au     2.631548    10Ag     2.763461     2B1g    2.763462  
      11Ag     2.843481     5B2u    2.856470     5B3u    2.856470  
      12Ag     3.484746     4B2g    3.593075     4B3g    3.593075  
       9B1u    3.632480  

    Final Occupation by Irrep:
             Ag   B1g   B2g   B3g    Au   B1u   B2u   B3u 
    DOCC [     4,    0,    1,    1,    0,    3,    1,    1 ]

  @DF-RKS Final Energy:  -188.53758436261037

   => Energetics <=

    Nuclear Repulsion Energy =             58.2613822172372409
    One-Electron Energy =                -372.5615512156546743
    Two-Electron Energy =                 141.7329102691207936
    DFT Exchange-Correlation Energy =     -16.0621678460795394
    Empirical Dispersion Energy =           0.0000000000000000
    VV10 Nonlocal Energy =                  0.0918422127658157
    Total Energy =                       -188.5375843626104029

Computation Completed


Properties will be evaluated at   0.000000,   0.000000,   0.000000 [a0]

Properties computed using the SCF density matrix

  Nuclear Dipole Moment: [e a0]
     X:     0.0000      Y:     0.0000      Z:     0.0000

  Electronic Dipole Moment: [e a0]
     X:     0.0000      Y:     0.0000      Z:     0.0000

  Dipole Moment: [e a0]
     X:     0.0000      Y:     0.0000      Z:     0.0000     Total:     0.0000

  Dipole Moment: [D]
     X:     0.0000      Y:     0.0000      Z:     0.0000     Total:     0.0000


*** tstop() called on bp1-compute00149.data.bp.acrc.priv at Tue Apr 27 18:04:32 2021
Module time:
	user time   =      52.88 seconds =       0.88 minutes
	system time =       1.94 seconds =       0.03 minutes
	total time  =          2 seconds =       0.03 minutes
Total time:
	user time   =      52.88 seconds =       0.88 minutes
	system time =       1.94 seconds =       0.03 minutes
	total time  =          2 seconds =       0.03 minutes

  //>>>>>>>>>>>>>>>>>>>>>>>>>>>>>>>>>>>//
  //    Loading displacement 2 of 3    //
  //<<<<<<<<<<<<<<<<<<<<<<<<<<<<<<<<<<<//

*** tstart() called on bp1-compute00149.data.bp.acrc.priv
*** at Tue Apr 27 18:04:32 2021

   => Loading Basis Set <=

    Name: CC-PV(D+D)Z
    Role: ORBITAL
    Keyword: BASIS
    atoms 1   entry C          line   147 file /work/zw18965/.conda/envs/p4env/share/psi4/basis/cc-pv_dpd_z.gbs 
    atoms 2-3 entry O          line   207 file /work/zw18965/.conda/envs/p4env/share/psi4/basis/cc-pv_dpd_z.gbs 


         ---------------------------------------------------------
                                   SCF
               by Justin Turney, Rob Parrish, Andy Simmonett
                          and Daniel G. A. Smith
                              RKS Reference
                       24 Threads, 137329 MiB Core
         ---------------------------------------------------------

  ==> Geometry <==

    Molecular point group: d2h
    Full point group: D_inf_h

    Geometry (in Angstrom), charge = 0, multiplicity = 1:

       Center              X                  Y                   Z               Mass       
    ------------   -----------------  -----------------  -----------------  -----------------
         C            0.000000000000     0.000000000000     0.000000000000    12.000000000000
         O            0.000000000000     0.000000000000     1.162132194659    15.994914619570
         O            0.000000000000     0.000000000000    -1.162132194659    15.994914619570

  Running in d2h symmetry.

  Rotational constants: A = ************  B =      0.39019  C =      0.39019 [cm^-1]
  Rotational constants: A = ************  B =  11697.53120  C =  11697.53120 [MHz]
  Nuclear repulsion =   58.284834786504561

  Charge       = 0
  Multiplicity = 1
  Electrons    = 22
  Nalpha       = 11
  Nbeta        = 11

  ==> Algorithm <==

  SCF Algorithm Type is DF.
  DIIS enabled.
  MOM disabled.
  Fractional occupation disabled.
  Guess Type is SAD.
  Energy threshold   = 1.00e-08
  Density threshold  = 1.00e-08
  Integral threshold = 0.00e+00

  ==> Primary Basis <==

  Basis Set: CC-PV(D+D)Z
    Blend: CC-PV(D+D)Z
    Number of shells: 18
    Number of basis function: 42
    Number of Cartesian functions: 45
    Spherical Harmonics?: true
    Max angular momentum: 2

  ==> DFT Potential <==

   => Composite Functional: WB97X-V <= 

    wB97X-V Hyb-GGA Exchange-Correlation Functional

    N. Mardirossian and M. Head-Gordon, Phys. Chem. Chem. Phys. 16, 9904 (2014)

    Deriv               =              1
    GGA                 =           TRUE
    Meta                =          FALSE

    Exchange Hybrid     =           TRUE
    MP2 Hybrid          =          FALSE

   => Exchange-Correlation Functionals <=

    1.0000   wB97X-V range-separated functional

   => Exact (HF) Exchange <=

    0.8330            HF,LR [omega = 0.3000]
    0.1670               HF 

   => VV10 Non-Local Parameters <=

    VV10 B              =     6.0000E+00
    VV10 C              =     1.0000E-02

   => Molecular Quadrature <=

    Radial Scheme          =       TREUTLER
    Pruning Scheme         =           FLAT
    Nuclear Scheme         =       TREUTLER

    BS radius alpha        =              1
    Pruning alpha          =              1
    Radial Points          =             75
    Spherical Points       =            302
    Total Points           =          64496
    Total Blocks           =            557
    Max Points             =            254
    Max Functions          =             42

   => Loading Basis Set <=

    Name: (CC-PV(D+D)Z AUX)
    Role: JKFIT
    Keyword: DF_BASIS_SCF
    atoms 1   entry C          line   121 file /work/zw18965/.conda/envs/p4env/share/psi4/basis/cc-pvdz-jkfit.gbs 
    atoms 2-3 entry O          line   221 file /work/zw18965/.conda/envs/p4env/share/psi4/basis/cc-pvdz-jkfit.gbs 

  ==> Pre-Iterations <==

   -------------------------------------------------------
    Irrep   Nso     Nmo     Nalpha   Nbeta   Ndocc  Nsocc
   -------------------------------------------------------
     Ag        12      12       0       0       0       0
     B1g        2       2       0       0       0       0
     B2g        4       4       0       0       0       0
     B3g        4       4       0       0       0       0
     Au         1       1       0       0       0       0
     B1u        9       9       0       0       0       0
     B2u        5       5       0       0       0       0
     B3u        5       5       0       0       0       0
   -------------------------------------------------------
    Total      42      42      11      11      11       0
   -------------------------------------------------------

  ==> Integral Setup <==

  ==> DiskDFJK: Density-Fitted J/K Matrices <==

    J tasked:                  Yes
    K tasked:                  Yes
    wK tasked:                 Yes
    Omega:               3.000E-01
    OpenMP threads:             24
    Integrals threads:          24
    Memory [MiB]:           102921
    Algorithm:                Core
    Integral Cache:           NONE
    Schwarz Cutoff:          1E-12
    Fitting Condition:       1E-10

   => Auxiliary Basis Set <=

  Basis Set: (CC-PV(D+D)Z AUX)
    Blend: CC-PVDZ-JKFIT
    Number of shells: 72
    Number of basis function: 210
    Number of Cartesian functions: 243
    Spherical Harmonics?: true
    Max angular momentum: 3

  Cached 100.0% of DFT collocation blocks in 0.074 [GiB].

  Minimum eigenvalue in the overlap matrix is 1.7686498524E-02.
  Using Symmetric Orthogonalization.

  SCF Guess: Superposition of Atomic Densities via on-the-fly atomic UHF.

  ==> Iterations <==

                           Total Energy        Delta E     RMS |[F,P]|

   @DF-RKS iter SAD:  -187.89919735683861   -1.87899e+02   0.00000e+00 
   @DF-RKS iter   1:  -188.43562043817940   -5.36423e-01   3.07020e-02 DIIS
   @DF-RKS iter   2:  -188.40507771731205    3.05427e-02   3.55060e-02 DIIS
   @DF-RKS iter   3:  -188.53744960919065   -1.32372e-01   8.96707e-04 DIIS
   @DF-RKS iter   4:  -188.53756467652346   -1.15067e-04   2.30855e-04 DIIS
   @DF-RKS iter   5:  -188.53757203262930   -7.35611e-06   2.53669e-05 DIIS
   @DF-RKS iter   6:  -188.53757216924643   -1.36617e-07   4.59705e-06 DIIS
   @DF-RKS iter   7:  -188.53757217642999   -7.18356e-09   7.94353e-07 DIIS
   @DF-RKS iter   8:  -188.53757217661473   -1.84741e-10   6.65416e-08 DIIS
   @DF-RKS iter   9:  -188.53757217661581   -1.08002e-12   4.56758e-09 DIIS
  Energy and wave function converged.


  ==> Post-Iterations <==

    Orbital Energies [Eh]
    ---------------------

    Doubly Occupied:                                                      

       1B1u  -19.305168     1Ag   -19.305147     2Ag   -10.474753  
       3Ag    -1.291444     2B1u   -1.246175     4Ag    -0.674931  
       1B2u   -0.628819     1B3u   -0.628819     3B1u   -0.626351  
       1B2g   -0.468404     1B3g   -0.468404  

    Virtual:                                                              

       2B3u    0.142317     2B2u    0.142317     5Ag     0.187009  
       4B1u    0.444625     3B3u    0.522961     3B2u    0.522961  
       6Ag     0.654832     5B1u    0.868195     7Ag     0.947684  
       2B3g    0.989998     2B2g    0.989998     8Ag     1.142043  
       1B1g    1.142044     4B3u    1.213586     4B2u    1.213586  
       6B1u    1.221382     3B2g    1.411768     3B3g    1.411768  
       9Ag     1.706615     7B1u    2.143810     8B1u    2.631512  
       1Au     2.631513    10Ag     2.763723     2B1g    2.763724  
      11Ag     2.845322     5B3u    2.857022     5B2u    2.857022  
      12Ag     3.484921     4B2g    3.594009     4B3g    3.594009  
       9B1u    3.633509  

    Final Occupation by Irrep:
             Ag   B1g   B2g   B3g    Au   B1u   B2u   B3u 
    DOCC [     4,    0,    1,    1,    0,    3,    1,    1 ]

  @DF-RKS Final Energy:  -188.53757217661581

   => Energetics <=

    Nuclear Repulsion Energy =             58.2848347865045611
    One-Electron Energy =                -372.6073710316900929
    Two-Electron Energy =                 141.7560408477866076
    DFT Exchange-Correlation Energy =     -16.0629187974410179
    Empirical Dispersion Energy =           0.0000000000000000
    VV10 Nonlocal Energy =                  0.0918420182241245
    Total Energy =                       -188.5375721766158108

Computation Completed


Properties will be evaluated at   0.000000,   0.000000,   0.000000 [a0]

Properties computed using the SCF density matrix

  Nuclear Dipole Moment: [e a0]
     X:     0.0000      Y:     0.0000      Z:     0.0000

  Electronic Dipole Moment: [e a0]
     X:     0.0000      Y:     0.0000      Z:     0.0000

  Dipole Moment: [e a0]
     X:     0.0000      Y:     0.0000      Z:     0.0000     Total:     0.0000

  Dipole Moment: [D]
     X:     0.0000      Y:     0.0000      Z:     0.0000     Total:     0.0000


*** tstop() called on bp1-compute00149.data.bp.acrc.priv at Tue Apr 27 18:04:34 2021
Module time:
	user time   =      52.46 seconds =       0.87 minutes
	system time =       2.09 seconds =       0.03 minutes
	total time  =          2 seconds =       0.03 minutes
Total time:
	user time   =     105.50 seconds =       1.76 minutes
	system time =       4.04 seconds =       0.07 minutes
	total time  =          4 seconds =       0.07 minutes

  //>>>>>>>>>>>>>>>>>>>>>>>>>>>>>>>>>>>//
  //    Loading displacement 3 of 3    //
  //<<<<<<<<<<<<<<<<<<<<<<<<<<<<<<<<<<<//

*** tstart() called on bp1-compute00149.data.bp.acrc.priv
*** at Tue Apr 27 18:04:34 2021

   => Loading Basis Set <=

    Name: CC-PV(D+D)Z
    Role: ORBITAL
    Keyword: BASIS
    atoms 1   entry C          line   147 file /work/zw18965/.conda/envs/p4env/share/psi4/basis/cc-pv_dpd_z.gbs 
    atoms 2-3 entry O          line   207 file /work/zw18965/.conda/envs/p4env/share/psi4/basis/cc-pv_dpd_z.gbs 


         ---------------------------------------------------------
                                   SCF
               by Justin Turney, Rob Parrish, Andy Simmonett
                          and Daniel G. A. Smith
                              RKS Reference
                       24 Threads, 137329 MiB Core
         ---------------------------------------------------------

  ==> Geometry <==

    Molecular point group: d2h
    Full point group: D_inf_h

    Geometry (in Angstrom), charge = 0, multiplicity = 1:

       Center              X                  Y                   Z               Mass       
    ------------   -----------------  -----------------  -----------------  -----------------
         C            0.000000000000     0.000000000000     0.000000000000    12.000000000000
         O            0.000000000000     0.000000000000     1.163067805341    15.994914619570
         O            0.000000000000     0.000000000000    -1.163067805341    15.994914619570

  Running in d2h symmetry.

  Rotational constants: A = ************  B =      0.38956  C =      0.38956 [cm^-1]
  Rotational constants: A = ************  B =  11678.71900  C =  11678.71900 [MHz]
  Nuclear repulsion =   58.237948514001836

  Charge       = 0
  Multiplicity = 1
  Electrons    = 22
  Nalpha       = 11
  Nbeta        = 11

  ==> Algorithm <==

  SCF Algorithm Type is DF.
  DIIS enabled.
  MOM disabled.
  Fractional occupation disabled.
  Guess Type is SAD.
  Energy threshold   = 1.00e-08
  Density threshold  = 1.00e-08
  Integral threshold = 0.00e+00

  ==> Primary Basis <==

  Basis Set: CC-PV(D+D)Z
    Blend: CC-PV(D+D)Z
    Number of shells: 18
    Number of basis function: 42
    Number of Cartesian functions: 45
    Spherical Harmonics?: true
    Max angular momentum: 2

  ==> DFT Potential <==

   => Composite Functional: WB97X-V <= 

    wB97X-V Hyb-GGA Exchange-Correlation Functional

    N. Mardirossian and M. Head-Gordon, Phys. Chem. Chem. Phys. 16, 9904 (2014)

    Deriv               =              1
    GGA                 =           TRUE
    Meta                =          FALSE

    Exchange Hybrid     =           TRUE
    MP2 Hybrid          =          FALSE

   => Exchange-Correlation Functionals <=

    1.0000   wB97X-V range-separated functional

   => Exact (HF) Exchange <=

    0.8330            HF,LR [omega = 0.3000]
    0.1670               HF 

   => VV10 Non-Local Parameters <=

    VV10 B              =     6.0000E+00
    VV10 C              =     1.0000E-02

   => Molecular Quadrature <=

    Radial Scheme          =       TREUTLER
    Pruning Scheme         =           FLAT
    Nuclear Scheme         =       TREUTLER

    BS radius alpha        =              1
    Pruning alpha          =              1
    Radial Points          =             75
    Spherical Points       =            302
    Total Points           =          64496
    Total Blocks           =            557
    Max Points             =            254
    Max Functions          =             42

   => Loading Basis Set <=

    Name: (CC-PV(D+D)Z AUX)
    Role: JKFIT
    Keyword: DF_BASIS_SCF
    atoms 1   entry C          line   121 file /work/zw18965/.conda/envs/p4env/share/psi4/basis/cc-pvdz-jkfit.gbs 
    atoms 2-3 entry O          line   221 file /work/zw18965/.conda/envs/p4env/share/psi4/basis/cc-pvdz-jkfit.gbs 

  ==> Pre-Iterations <==

   -------------------------------------------------------
    Irrep   Nso     Nmo     Nalpha   Nbeta   Ndocc  Nsocc
   -------------------------------------------------------
     Ag        12      12       0       0       0       0
     B1g        2       2       0       0       0       0
     B2g        4       4       0       0       0       0
     B3g        4       4       0       0       0       0
     Au         1       1       0       0       0       0
     B1u        9       9       0       0       0       0
     B2u        5       5       0       0       0       0
     B3u        5       5       0       0       0       0
   -------------------------------------------------------
    Total      42      42      11      11      11       0
   -------------------------------------------------------

  ==> Integral Setup <==

  ==> DiskDFJK: Density-Fitted J/K Matrices <==

    J tasked:                  Yes
    K tasked:                  Yes
    wK tasked:                 Yes
    Omega:               3.000E-01
    OpenMP threads:             24
    Integrals threads:          24
    Memory [MiB]:           102921
    Algorithm:                Core
    Integral Cache:           NONE
    Schwarz Cutoff:          1E-12
    Fitting Condition:       1E-10

   => Auxiliary Basis Set <=

  Basis Set: (CC-PV(D+D)Z AUX)
    Blend: CC-PVDZ-JKFIT
    Number of shells: 72
    Number of basis function: 210
    Number of Cartesian functions: 243
    Spherical Harmonics?: true
    Max angular momentum: 3

  Cached 100.0% of DFT collocation blocks in 0.074 [GiB].

  Minimum eigenvalue in the overlap matrix is 1.7694148507E-02.
  Using Symmetric Orthogonalization.

  SCF Guess: Superposition of Atomic Densities via on-the-fly atomic UHF.

  ==> Iterations <==

                           Total Energy        Delta E     RMS |[F,P]|

   @DF-RKS iter SAD:  -187.89570040986175   -1.87896e+02   0.00000e+00 
   @DF-RKS iter   1:  -188.43545821270752   -5.39758e-01   3.07194e-02 DIIS
   @DF-RKS iter   2:  -188.40435071936329    3.11075e-02   3.55957e-02 DIIS
   @DF-RKS iter   3:  -188.53747234708743   -1.33122e-01   8.95435e-04 DIIS
   @DF-RKS iter   4:  -188.53758714502808   -1.14798e-04   2.31104e-04 DIIS
   @DF-RKS iter   5:  -188.53759453551581   -7.39049e-06   2.55930e-05 DIIS
   @DF-RKS iter   6:  -188.53759467503232   -1.39517e-07   4.66134e-06 DIIS
   @DF-RKS iter   7:  -188.53759468241356   -7.38123e-09   8.03622e-07 DIIS
   @DF-RKS iter   8:  -188.53759468260188   -1.88322e-10   6.71016e-08 DIIS
   @DF-RKS iter   9:  -188.53759468260299   -1.10845e-12   4.63891e-09 DIIS
  Energy and wave function converged.


  ==> Post-Iterations <==

    Orbital Energies [Eh]
    ---------------------

    Doubly Occupied:                                                      

       1B1u  -19.305391     1Ag   -19.305369     2Ag   -10.475119  
       3Ag    -1.291037     2B1u   -1.245767     4Ag    -0.675106  
       1B3u   -0.628495     1B2u   -0.628495     3B1u   -0.626304  
       1B3g   -0.468375     1B2g   -0.468375  

    Virtual:                                                              

       2B3u    0.141632     2B2u    0.141632     5Ag     0.186565  
       4B1u    0.444590     3B3u    0.523076     3B2u    0.523076  
       6Ag     0.654131     5B1u    0.867483     7Ag     0.947568  
       2B2g    0.990205     2B3g    0.990205     8Ag     1.142104  
       1B1g    1.142105     4B3u    1.213325     4B2u    1.213325  
       6B1u    1.219349     3B2g    1.410621     3B3g    1.410621  
       9Ag     1.706138     7B1u    2.144016     8B1u    2.631582  
       1Au     2.631583    10Ag     2.763200     2B1g    2.763201  
      11Ag     2.841641     5B3u    2.855920     5B2u    2.855920  
      12Ag     3.484571     4B2g    3.592139     4B3g    3.592139  
       9B1u    3.631451  

    Final Occupation by Irrep:
             Ag   B1g   B2g   B3g    Au   B1u   B2u   B3u 
    DOCC [     4,    0,    1,    1,    0,    3,    1,    1 ]

  @DF-RKS Final Energy:  -188.53759468260299

   => Energetics <=

    Nuclear Repulsion Energy =             58.2379485140018360
    One-Electron Energy =                -372.5157650374781610
    Two-Electron Energy =                 141.7097971919573354
    DFT Exchange-Correlation Energy =     -16.0614177590251934
    Empirical Dispersion Energy =           0.0000000000000000
    VV10 Nonlocal Energy =                  0.0918424079412014
    Total Energy =                       -188.5375946826029576

Computation Completed


Properties will be evaluated at   0.000000,   0.000000,   0.000000 [a0]

Properties computed using the SCF density matrix

  Nuclear Dipole Moment: [e a0]
     X:     0.0000      Y:     0.0000      Z:     0.0000

  Electronic Dipole Moment: [e a0]
     X:     0.0000      Y:     0.0000      Z:     0.0000

  Dipole Moment: [e a0]
     X:     0.0000      Y:     0.0000      Z:     0.0000     Total:     0.0000

  Dipole Moment: [D]
     X:     0.0000      Y:     0.0000      Z:     0.0000     Total:     0.0000


*** tstop() called on bp1-compute00149.data.bp.acrc.priv at Tue Apr 27 18:04:37 2021
Module time:
	user time   =      51.24 seconds =       0.85 minutes
	system time =       1.55 seconds =       0.03 minutes
	total time  =          3 seconds =       0.05 minutes
Total time:
	user time   =     156.89 seconds =       2.61 minutes
	system time =       5.60 seconds =       0.09 minutes
	total time  =          7 seconds =       0.12 minutes

         ----------------------------------------------------------
                                   FINDIF
                     R. A. King and Jonathon Misiewicz
         ---------------------------------------------------------

  Computing gradient from energies.
    Using 3-point formula.
    Energy without displacement: -188.5375843626
    Check energies below for precision!
    Forces are for mass-weighted, symmetry-adapted cartesians (in au).

     Coord      Energy(-1)        Energy(+1)            Force
        0   -188.5375721766   -188.5375946826     -0.0022505987


-------------------------------------------------------------
  ## New Matrix (Symmetry 0) ##
  Irrep: 1 Size: 3 x 3

                 1                   2                   3

    1     0.00000000000000     0.00000000000000     0.00000000000000
    2     0.00000000000000     0.00000000000000    -0.00636464276121
    3     0.00000000000000     0.00000000000000     0.00636464276121




			-----------------------------------------
			 OPTKING 2.0: for geometry optimizations 
			  - R.A. King,  Bethel University        
			-----------------------------------------
	At level 1: Red. Int., RFO, no backsteps, dynamic trust

	Internal coordinates to be generated automatically.
	Detected frag 1 with atoms:  1 2 3
	---Fragment 1 Bond Connectivity---
	 1 : 2 3
	 2 : 1
	 3 : 1

	---Fragment 1 Geometry and Gradient---
	 C           0.0000000000        0.0000000000        0.0000000000
	 O           0.0000000000        0.0000000000        2.1969955935
	 O           0.0000000000        0.0000000000       -2.1969955935
	             0.0000000000        0.0000000000        0.0000000000
	             0.0000000000        0.0000000000       -0.0063646428
	             0.0000000000        0.0000000000        0.0063646428

	Previous optimization step data not found.  Starting new optimization.

	---Fragment 1 Intrafragment Coordinates---
	 - Coordinate -           - BOHR/RAD -       - ANG/DEG -
	 R(1,2)           =         2.196996	       1.162600
	 R(1,3)           =         2.196996	       1.162600
	 L(2,1,3)         =         3.141593	     180.000000
	 l(2,1,3)         =         3.141593	     180.000000

	Current energy   :      -188.5375843626

	Generating empirical Hessian (Schlegel '84) for each fragment.
	Taking RFO optimization step.
	Going to follow RFO solution 1.
	Using RFO vector 1.
	Norm of target step-size    0.00714
	Projected energy change by RFO approximation:        -0.0000642383

	Back-transformation to cartesian coordinates...
	Successfully converged to displaced geometry.

	--- Internal Coordinate Step in ANG or DEG, aJ/ANG or AJ/DEG ---
	 ---------------------------------------------------------------------------
	   Coordinate                Previous        Force       Change         New 
	   ----------                --------       ------       ------       ------
	    1 R(1,2)          =      1.162600     0.052437     0.002671     1.165271
	    2 R(1,3)          =      1.162600     0.052437     0.002671     1.165271
	    3 L(2,1,3)        =    180.000000     0.000000     0.000000   180.000000
	    4 l(2,1,3)        =    180.000000     0.000000     0.000000   180.000000
	 ---------------------------------------------------------------------------
	Successfully symmetrized geometry.

  ==> Convergence Check <==

  Measures of convergence in internal coordinates in au.
  Criteria marked as inactive (o), active & met (*), and active & unmet ( ).
  --------------------------------------------------------------------------------------------- ~
   Step     Total Energy     Delta E     MAX Force     RMS Force      MAX Disp      RMS Disp    ~
  --------------------------------------------------------------------------------------------- ~
    Convergence Criteria    1.00e-06 *    3.00e-04 *             o    1.20e-03 *             o  ~
  --------------------------------------------------------------------------------------------- ~
      1    -188.53758436   -1.89e+02      6.36e-03      4.50e-03 o    5.05e-03      3.57e-03 o  ~
  ---------------------------------------------------------------------------------------------

	Writing optimization data to binary file.
	Structure for next step:
	Cartesian Geometry (in Angstrom)
	    C     0.0000000000  -0.0000000000   0.0000000000
	    O    -0.0000000000   0.0000000000   1.1652706219
	    O    -0.0000000000   0.0000000000  -1.1652706219
			--------------------------
			 OPTKING Finished Execution 
			--------------------------

    Structure for next step:
    Molecular point group: d2h
    Full point group: D_inf_h

    Geometry (in Angstrom), charge = 0, multiplicity = 1:

    C           -0.000000000000    -0.000000000000     0.000000000000
    O            0.000000000000     0.000000000000     1.165270626459
    O            0.000000000000     0.000000000000    -1.165270626459

gradient() will perform gradient computation by finite difference of analytic energies.

         ----------------------------------------------------------
                                   FINDIF
                     R. A. King and Jonathon Misiewicz
         ---------------------------------------------------------

  Using finite-differences of energies to determine gradients.
    Generating geometries for use with 3-point formula.
    Displacement size will be 5.00e-03.
    Number of atoms is 3.
    Number of symmetric SALCs is 1.
    Translations projected? 1. Rotations projected? 1.
    Number of geometries (including reference) is 3.

  //>>>>>>>>>>>>>>>>>>>>>>>>>>>>>>>>>>>//
  //    Loading displacement 1 of 3    //
  //<<<<<<<<<<<<<<<<<<<<<<<<<<<<<<<<<<<//

*** tstart() called on bp1-compute00149.data.bp.acrc.priv
*** at Tue Apr 27 18:04:37 2021

   => Loading Basis Set <=

    Name: CC-PV(D+D)Z
    Role: ORBITAL
    Keyword: BASIS
    atoms 1   entry C          line   147 file /work/zw18965/.conda/envs/p4env/share/psi4/basis/cc-pv_dpd_z.gbs 
    atoms 2-3 entry O          line   207 file /work/zw18965/.conda/envs/p4env/share/psi4/basis/cc-pv_dpd_z.gbs 


         ---------------------------------------------------------
                                   SCF
               by Justin Turney, Rob Parrish, Andy Simmonett
                          and Daniel G. A. Smith
                              RKS Reference
                       24 Threads, 137329 MiB Core
         ---------------------------------------------------------

  ==> Geometry <==

    Molecular point group: d2h
    Full point group: D_inf_h

    Geometry (in Angstrom), charge = 0, multiplicity = 1:

       Center              X                  Y                   Z               Mass       
    ------------   -----------------  -----------------  -----------------  -----------------
         C            0.000000000000     0.000000000000     0.000000000000    12.000000000000
         O           -0.000000000000    -0.000000000000     1.165270626459    15.994914619570
         O           -0.000000000000    -0.000000000000    -1.165270626459    15.994914619570

  Running in d2h symmetry.

  Rotational constants: A = ************  B =      0.38809  C =      0.38809 [cm^-1]
  Rotational constants: A = ************  B =  11634.60596  C =  11634.60596 [MHz]
  Nuclear repulsion =   58.127855819713190

  Charge       = 0
  Multiplicity = 1
  Electrons    = 22
  Nalpha       = 11
  Nbeta        = 11

  ==> Algorithm <==

  SCF Algorithm Type is DF.
  DIIS enabled.
  MOM disabled.
  Fractional occupation disabled.
  Guess Type is READ.
  Energy threshold   = 1.00e-08
  Density threshold  = 1.00e-08
  Integral threshold = 0.00e+00

  ==> Primary Basis <==

  Basis Set: CC-PV(D+D)Z
    Blend: CC-PV(D+D)Z
    Number of shells: 18
    Number of basis function: 42
    Number of Cartesian functions: 45
    Spherical Harmonics?: true
    Max angular momentum: 2

  ==> DFT Potential <==

   => Composite Functional: WB97X-V <= 

    wB97X-V Hyb-GGA Exchange-Correlation Functional

    N. Mardirossian and M. Head-Gordon, Phys. Chem. Chem. Phys. 16, 9904 (2014)

    Deriv               =              1
    GGA                 =           TRUE
    Meta                =          FALSE

    Exchange Hybrid     =           TRUE
    MP2 Hybrid          =          FALSE

   => Exchange-Correlation Functionals <=

    1.0000   wB97X-V range-separated functional

   => Exact (HF) Exchange <=

    0.8330            HF,LR [omega = 0.3000]
    0.1670               HF 

   => VV10 Non-Local Parameters <=

    VV10 B              =     6.0000E+00
    VV10 C              =     1.0000E-02

   => Molecular Quadrature <=

    Radial Scheme          =       TREUTLER
    Pruning Scheme         =           FLAT
    Nuclear Scheme         =       TREUTLER

    BS radius alpha        =              1
    Pruning alpha          =              1
    Radial Points          =             75
    Spherical Points       =            302
    Total Points           =          64496
    Total Blocks           =            557
    Max Points             =            254
    Max Functions          =             42

   => Loading Basis Set <=

    Name: (CC-PV(D+D)Z AUX)
    Role: JKFIT
    Keyword: DF_BASIS_SCF
    atoms 1   entry C          line   121 file /work/zw18965/.conda/envs/p4env/share/psi4/basis/cc-pvdz-jkfit.gbs 
    atoms 2-3 entry O          line   221 file /work/zw18965/.conda/envs/p4env/share/psi4/basis/cc-pvdz-jkfit.gbs 

   => Loading Basis Set <=

    Name: CC-PV(D+D)Z
    Role: ORBITAL
    Keyword: BASIS
    atoms 1   entry C          line   147 file /work/zw18965/.conda/envs/p4env/share/psi4/basis/cc-pv_dpd_z.gbs 
    atoms 2-3 entry O          line   207 file /work/zw18965/.conda/envs/p4env/share/psi4/basis/cc-pv_dpd_z.gbs 

  Reading orbitals from file 180, no projection.

  ==> Pre-Iterations <==

   -------------------------------------------------------
    Irrep   Nso     Nmo     Nalpha   Nbeta   Ndocc  Nsocc
   -------------------------------------------------------
     Ag        12      12       0       0       0       0
     B1g        2       2       0       0       0       0
     B2g        4       4       0       0       0       0
     B3g        4       4       0       0       0       0
     Au         1       1       0       0       0       0
     B1u        9       9       0       0       0       0
     B2u        5       5       0       0       0       0
     B3u        5       5       0       0       0       0
   -------------------------------------------------------
    Total      42      42      11      11      11       0
   -------------------------------------------------------

  ==> Integral Setup <==

  ==> DiskDFJK: Density-Fitted J/K Matrices <==

    J tasked:                  Yes
    K tasked:                  Yes
    wK tasked:                 Yes
    Omega:               3.000E-01
    OpenMP threads:             24
    Integrals threads:          24
    Memory [MiB]:           102921
    Algorithm:                Core
    Integral Cache:           NONE
    Schwarz Cutoff:          1E-12
    Fitting Condition:       1E-10

   => Auxiliary Basis Set <=

  Basis Set: (CC-PV(D+D)Z AUX)
    Blend: CC-PVDZ-JKFIT
    Number of shells: 72
    Number of basis function: 210
    Number of Cartesian functions: 243
    Spherical Harmonics?: true
    Max angular momentum: 3

  Cached 100.0% of DFT collocation blocks in 0.074 [GiB].

  Minimum eigenvalue in the overlap matrix is 1.7712344960E-02.
  Using Symmetric Orthogonalization.

  SCF Guess: Orbitals guess was supplied from a previous computation.

  ==> Iterations <==

                           Total Energy        Delta E     RMS |[F,P]|

   @DF-RKS iter   0:  -188.53001529488722   -1.88530e+02   7.92450e-04 
   @DF-RKS iter   1:  -188.53761392917511   -7.59863e-03   1.74600e-04 DIIS
   @DF-RKS iter   2:  -188.53761750962300   -3.58045e-06   8.14051e-05 DIIS
   @DF-RKS iter   3:  -188.53761832080130   -8.11178e-07   2.18481e-05 DIIS
   @DF-RKS iter   4:  -188.53761837209339   -5.12921e-08   4.57300e-06 DIIS
   @DF-RKS iter   5:  -188.53761837627334   -4.17995e-09   4.04945e-07 DIIS
   @DF-RKS iter   6:  -188.53761837633138   -5.80371e-11   5.97239e-08 DIIS
   @DF-RKS iter   7:  -188.53761837633203   -6.53699e-13   3.40348e-09 DIIS
  Energy and wave function converged.


  ==> Post-Iterations <==

    Orbital Energies [Eh]
    ---------------------

    Doubly Occupied:                                                      

       1B1u  -19.305913     1Ag   -19.305891     2Ag   -10.475978  
       3Ag    -1.290080     2B1u   -1.244807     4Ag    -0.675517  
       1B3u   -0.627733     1B2u   -0.627733     3B1u   -0.626190  
       1B3g   -0.468307     1B2g   -0.468307  

    Virtual:                                                              

       2B3u    0.140024     2B2u    0.140024     5Ag     0.185513  
       4B1u    0.444509     3B3u    0.523344     3B2u    0.523344  
       6Ag     0.652496     5B1u    0.865770     7Ag     0.947301  
       2B2g    0.990689     2B3g    0.990689     8Ag     1.142248  
       1B1g    1.142249     4B3u    1.212713     4B2u    1.212713  
       6B1u    1.214627     3B2g    1.407937     3B3g    1.407937  
       9Ag     1.705024     7B1u    2.144502     8B1u    2.631745  
       1Au     2.631746    10Ag     2.761977     2B1g    2.761979  
      11Ag     2.832998     5B3u    2.853347     5B2u    2.853347  
      12Ag     3.483762     4B2g    3.587730     4B3g    3.587730  
       9B1u    3.626604  

    Final Occupation by Irrep:
             Ag   B1g   B2g   B3g    Au   B1u   B2u   B3u 
    DOCC [     4,    0,    1,    1,    0,    3,    1,    1 ]

  @DF-RKS Final Energy:  -188.53761837633203

   => Energetics <=

    Nuclear Repulsion Energy =             58.1278558197131900
    One-Electron Energy =                -372.3006164643589386
    Two-Electron Energy =                 141.6011962500710126
    DFT Exchange-Correlation Energy =     -16.0578973172953923
    Empirical Dispersion Energy =           0.0000000000000000
    VV10 Nonlocal Energy =                  0.0918433355380889
    Total Energy =                       -188.5376183763320057

Computation Completed


Properties will be evaluated at   0.000000,   0.000000,   0.000000 [a0]

Properties computed using the SCF density matrix

  Nuclear Dipole Moment: [e a0]
     X:    -0.0000      Y:     0.0000      Z:     0.0000

  Electronic Dipole Moment: [e a0]
     X:     0.0000      Y:     0.0000      Z:     0.0000

  Dipole Moment: [e a0]
     X:    -0.0000      Y:     0.0000      Z:     0.0000     Total:     0.0000

  Dipole Moment: [D]
     X:    -0.0000      Y:     0.0000      Z:     0.0000     Total:     0.0000


*** tstop() called on bp1-compute00149.data.bp.acrc.priv at Tue Apr 27 18:04:38 2021
Module time:
	user time   =      37.35 seconds =       0.62 minutes
	system time =       1.31 seconds =       0.02 minutes
	total time  =          1 seconds =       0.02 minutes
Total time:
	user time   =     194.62 seconds =       3.24 minutes
	system time =       6.93 seconds =       0.12 minutes
	total time  =          8 seconds =       0.13 minutes

  //>>>>>>>>>>>>>>>>>>>>>>>>>>>>>>>>>>>//
  //    Loading displacement 2 of 3    //
  //<<<<<<<<<<<<<<<<<<<<<<<<<<<<<<<<<<<//

*** tstart() called on bp1-compute00149.data.bp.acrc.priv
*** at Tue Apr 27 18:04:38 2021

   => Loading Basis Set <=

    Name: CC-PV(D+D)Z
    Role: ORBITAL
    Keyword: BASIS
    atoms 1   entry C          line   147 file /work/zw18965/.conda/envs/p4env/share/psi4/basis/cc-pv_dpd_z.gbs 
    atoms 2-3 entry O          line   207 file /work/zw18965/.conda/envs/p4env/share/psi4/basis/cc-pv_dpd_z.gbs 


         ---------------------------------------------------------
                                   SCF
               by Justin Turney, Rob Parrish, Andy Simmonett
                          and Daniel G. A. Smith
                              RKS Reference
                       24 Threads, 137329 MiB Core
         ---------------------------------------------------------

  ==> Geometry <==

    Molecular point group: d2h
    Full point group: D_inf_h

    Geometry (in Angstrom), charge = 0, multiplicity = 1:

       Center              X                  Y                   Z               Mass       
    ------------   -----------------  -----------------  -----------------  -----------------
         C            0.000000000000     0.000000000000     0.000000000000    12.000000000000
         O           -0.000000000000    -0.000000000000     1.164802821118    15.994914619570
         O           -0.000000000000    -0.000000000000    -1.164802821118    15.994914619570

  Running in d2h symmetry.

  Rotational constants: A = ************  B =      0.38840  C =      0.38840 [cm^-1]
  Rotational constants: A = ************  B =  11643.95316  C =  11643.95316 [MHz]
  Nuclear repulsion =   58.151200991048668

  Charge       = 0
  Multiplicity = 1
  Electrons    = 22
  Nalpha       = 11
  Nbeta        = 11

  ==> Algorithm <==

  SCF Algorithm Type is DF.
  DIIS enabled.
  MOM disabled.
  Fractional occupation disabled.
  Guess Type is READ.
  Energy threshold   = 1.00e-08
  Density threshold  = 1.00e-08
  Integral threshold = 0.00e+00

  ==> Primary Basis <==

  Basis Set: CC-PV(D+D)Z
    Blend: CC-PV(D+D)Z
    Number of shells: 18
    Number of basis function: 42
    Number of Cartesian functions: 45
    Spherical Harmonics?: true
    Max angular momentum: 2

  ==> DFT Potential <==

   => Composite Functional: WB97X-V <= 

    wB97X-V Hyb-GGA Exchange-Correlation Functional

    N. Mardirossian and M. Head-Gordon, Phys. Chem. Chem. Phys. 16, 9904 (2014)

    Deriv               =              1
    GGA                 =           TRUE
    Meta                =          FALSE

    Exchange Hybrid     =           TRUE
    MP2 Hybrid          =          FALSE

   => Exchange-Correlation Functionals <=

    1.0000   wB97X-V range-separated functional

   => Exact (HF) Exchange <=

    0.8330            HF,LR [omega = 0.3000]
    0.1670               HF 

   => VV10 Non-Local Parameters <=

    VV10 B              =     6.0000E+00
    VV10 C              =     1.0000E-02

   => Molecular Quadrature <=

    Radial Scheme          =       TREUTLER
    Pruning Scheme         =           FLAT
    Nuclear Scheme         =       TREUTLER

    BS radius alpha        =              1
    Pruning alpha          =              1
    Radial Points          =             75
    Spherical Points       =            302
    Total Points           =          64496
    Total Blocks           =            557
    Max Points             =            254
    Max Functions          =             42

   => Loading Basis Set <=

    Name: (CC-PV(D+D)Z AUX)
    Role: JKFIT
    Keyword: DF_BASIS_SCF
    atoms 1   entry C          line   121 file /work/zw18965/.conda/envs/p4env/share/psi4/basis/cc-pvdz-jkfit.gbs 
    atoms 2-3 entry O          line   221 file /work/zw18965/.conda/envs/p4env/share/psi4/basis/cc-pvdz-jkfit.gbs 

   => Loading Basis Set <=

    Name: CC-PV(D+D)Z
    Role: ORBITAL
    Keyword: BASIS
    atoms 1   entry C          line   147 file /work/zw18965/.conda/envs/p4env/share/psi4/basis/cc-pv_dpd_z.gbs 
    atoms 2-3 entry O          line   207 file /work/zw18965/.conda/envs/p4env/share/psi4/basis/cc-pv_dpd_z.gbs 

  Reading orbitals from file 180, no projection.

  ==> Pre-Iterations <==

   -------------------------------------------------------
    Irrep   Nso     Nmo     Nalpha   Nbeta   Ndocc  Nsocc
   -------------------------------------------------------
     Ag        12      12       0       0       0       0
     B1g        2       2       0       0       0       0
     B2g        4       4       0       0       0       0
     B3g        4       4       0       0       0       0
     Au         1       1       0       0       0       0
     B1u        9       9       0       0       0       0
     B2u        5       5       0       0       0       0
     B3u        5       5       0       0       0       0
   -------------------------------------------------------
    Total      42      42      11      11      11       0
   -------------------------------------------------------

  ==> Integral Setup <==

  ==> DiskDFJK: Density-Fitted J/K Matrices <==

    J tasked:                  Yes
    K tasked:                  Yes
    wK tasked:                 Yes
    Omega:               3.000E-01
    OpenMP threads:             24
    Integrals threads:          24
    Memory [MiB]:           102921
    Algorithm:                Core
    Integral Cache:           NONE
    Schwarz Cutoff:          1E-12
    Fitting Condition:       1E-10

   => Auxiliary Basis Set <=

  Basis Set: (CC-PV(D+D)Z AUX)
    Blend: CC-PVDZ-JKFIT
    Number of shells: 72
    Number of basis function: 210
    Number of Cartesian functions: 243
    Spherical Harmonics?: true
    Max angular momentum: 3

  Cached 100.0% of DFT collocation blocks in 0.074 [GiB].

  Minimum eigenvalue in the overlap matrix is 1.7708458812E-02.
  Using Symmetric Orthogonalization.

  SCF Guess: Orbitals guess was supplied from a previous computation.

  ==> Iterations <==

                           Total Energy        Delta E     RMS |[F,P]|

   @DF-RKS iter   0:  -188.53894568961232   -1.88539e+02   1.38515e-04 
   @DF-RKS iter   1:  -188.53761662706972    1.32906e-03   3.05509e-05 DIIS
   @DF-RKS iter   2:  -188.53761673659295   -1.09523e-07   1.42505e-05 DIIS
   @DF-RKS iter   3:  -188.53761676143966   -2.48467e-08   3.82559e-06 DIIS
   @DF-RKS iter   4:  -188.53761676301184   -1.57218e-09   7.97995e-07 DIIS
   @DF-RKS iter   5:  -188.53761676313928   -1.27443e-10   7.07483e-08 DIIS
   @DF-RKS iter   6:  -188.53761676314093   -1.64846e-12   1.03587e-08 DIIS
   @DF-RKS iter   7:  -188.53761676314096   -2.84217e-14   5.83119e-10 DIIS
  Energy and wave function converged.


  ==> Post-Iterations <==

    Orbital Energies [Eh]
    ---------------------

    Doubly Occupied:                                                      

       1B1u  -19.305802     1Ag   -19.305780     2Ag   -10.475796  
       3Ag    -1.290283     2B1u   -1.245010     4Ag    -0.675430  
       1B2u   -0.627895     1B3u   -0.627895     3B1u   -0.626215  
       1B2g   -0.468321     1B3g   -0.468321  

    Virtual:                                                              

       2B2u    0.140365     2B3u    0.140365     5Ag     0.185737  
       4B1u    0.444526     3B2u    0.523287     3B3u    0.523287  
       6Ag     0.652841     5B1u    0.866138     7Ag     0.947357  
       2B2g    0.990586     2B3g    0.990586     8Ag     1.142218  
       1B1g    1.142218     4B3u    1.212843     4B2u    1.212843  
       6B1u    1.215622     3B2g    1.408505     3B3g    1.408505  
       9Ag     1.705260     7B1u    2.144399     8B1u    2.631711  
       1Au     2.631712    10Ag     2.762236     2B1g    2.762237  
      11Ag     2.834831     5B2u    2.853891     5B3u    2.853891  
      12Ag     3.483932     4B2g    3.588667     4B3g    3.588667  
       9B1u    3.627633  

    Final Occupation by Irrep:
             Ag   B1g   B2g   B3g    Au   B1u   B2u   B3u 
    DOCC [     4,    0,    1,    1,    0,    3,    1,    1 ]

  @DF-RKS Final Energy:  -188.53761676314096

   => Energetics <=

    Nuclear Repulsion Energy =             58.1512009910486682
    One-Electron Energy =                -372.3462445225667921
    Two-Electron Energy =                 141.6242269576721640
    DFT Exchange-Correlation Energy =     -16.0586433266614499
    Empirical Dispersion Energy =           0.0000000000000000
    VV10 Nonlocal Energy =                  0.0918431373664679
    Total Energy =                       -188.5376167631409317

Computation Completed


Properties will be evaluated at   0.000000,   0.000000,   0.000000 [a0]

Properties computed using the SCF density matrix

  Nuclear Dipole Moment: [e a0]
     X:    -0.0000      Y:     0.0000      Z:     0.0000

  Electronic Dipole Moment: [e a0]
     X:     0.0000      Y:     0.0000      Z:     0.0000

  Dipole Moment: [e a0]
     X:    -0.0000      Y:     0.0000      Z:     0.0000     Total:     0.0000

  Dipole Moment: [D]
     X:    -0.0000      Y:     0.0000      Z:     0.0000     Total:     0.0000


*** tstop() called on bp1-compute00149.data.bp.acrc.priv at Tue Apr 27 18:04:40 2021
Module time:
	user time   =      38.22 seconds =       0.64 minutes
	system time =       1.19 seconds =       0.02 minutes
	total time  =          2 seconds =       0.03 minutes
Total time:
	user time   =     232.97 seconds =       3.88 minutes
	system time =       8.12 seconds =       0.14 minutes
	total time  =         10 seconds =       0.17 minutes

  //>>>>>>>>>>>>>>>>>>>>>>>>>>>>>>>>>>>//
  //    Loading displacement 3 of 3    //
  //<<<<<<<<<<<<<<<<<<<<<<<<<<<<<<<<<<<//

*** tstart() called on bp1-compute00149.data.bp.acrc.priv
*** at Tue Apr 27 18:04:40 2021

   => Loading Basis Set <=

    Name: CC-PV(D+D)Z
    Role: ORBITAL
    Keyword: BASIS
    atoms 1   entry C          line   147 file /work/zw18965/.conda/envs/p4env/share/psi4/basis/cc-pv_dpd_z.gbs 
    atoms 2-3 entry O          line   207 file /work/zw18965/.conda/envs/p4env/share/psi4/basis/cc-pv_dpd_z.gbs 


         ---------------------------------------------------------
                                   SCF
               by Justin Turney, Rob Parrish, Andy Simmonett
                          and Daniel G. A. Smith
                              RKS Reference
                       24 Threads, 137329 MiB Core
         ---------------------------------------------------------

  ==> Geometry <==

    Molecular point group: d2h
    Full point group: D_inf_h

    Geometry (in Angstrom), charge = 0, multiplicity = 1:

       Center              X                  Y                   Z               Mass       
    ------------   -----------------  -----------------  -----------------  -----------------
         C            0.000000000000     0.000000000000     0.000000000000    12.000000000000
         O           -0.000000000000    -0.000000000000     1.165738431800    15.994914619570
         O           -0.000000000000    -0.000000000000    -1.165738431800    15.994914619570

  Running in d2h symmetry.

  Rotational constants: A = ************  B =      0.38778  C =      0.38778 [cm^-1]
  Rotational constants: A = ************  B =  11625.27001  C =  11625.27001 [MHz]
  Nuclear repulsion =   58.104529384992290

  Charge       = 0
  Multiplicity = 1
  Electrons    = 22
  Nalpha       = 11
  Nbeta        = 11

  ==> Algorithm <==

  SCF Algorithm Type is DF.
  DIIS enabled.
  MOM disabled.
  Fractional occupation disabled.
  Guess Type is READ.
  Energy threshold   = 1.00e-08
  Density threshold  = 1.00e-08
  Integral threshold = 0.00e+00

  ==> Primary Basis <==

  Basis Set: CC-PV(D+D)Z
    Blend: CC-PV(D+D)Z
    Number of shells: 18
    Number of basis function: 42
    Number of Cartesian functions: 45
    Spherical Harmonics?: true
    Max angular momentum: 2

  ==> DFT Potential <==

   => Composite Functional: WB97X-V <= 

    wB97X-V Hyb-GGA Exchange-Correlation Functional

    N. Mardirossian and M. Head-Gordon, Phys. Chem. Chem. Phys. 16, 9904 (2014)

    Deriv               =              1
    GGA                 =           TRUE
    Meta                =          FALSE

    Exchange Hybrid     =           TRUE
    MP2 Hybrid          =          FALSE

   => Exchange-Correlation Functionals <=

    1.0000   wB97X-V range-separated functional

   => Exact (HF) Exchange <=

    0.8330            HF,LR [omega = 0.3000]
    0.1670               HF 

   => VV10 Non-Local Parameters <=

    VV10 B              =     6.0000E+00
    VV10 C              =     1.0000E-02

   => Molecular Quadrature <=

    Radial Scheme          =       TREUTLER
    Pruning Scheme         =           FLAT
    Nuclear Scheme         =       TREUTLER

    BS radius alpha        =              1
    Pruning alpha          =              1
    Radial Points          =             75
    Spherical Points       =            302
    Total Points           =          64496
    Total Blocks           =            556
    Max Points             =            253
    Max Functions          =             42

   => Loading Basis Set <=

    Name: (CC-PV(D+D)Z AUX)
    Role: JKFIT
    Keyword: DF_BASIS_SCF
    atoms 1   entry C          line   121 file /work/zw18965/.conda/envs/p4env/share/psi4/basis/cc-pvdz-jkfit.gbs 
    atoms 2-3 entry O          line   221 file /work/zw18965/.conda/envs/p4env/share/psi4/basis/cc-pvdz-jkfit.gbs 

   => Loading Basis Set <=

    Name: CC-PV(D+D)Z
    Role: ORBITAL
    Keyword: BASIS
    atoms 1   entry C          line   147 file /work/zw18965/.conda/envs/p4env/share/psi4/basis/cc-pv_dpd_z.gbs 
    atoms 2-3 entry O          line   207 file /work/zw18965/.conda/envs/p4env/share/psi4/basis/cc-pv_dpd_z.gbs 

  Reading orbitals from file 180, no projection.

  ==> Pre-Iterations <==

   -------------------------------------------------------
    Irrep   Nso     Nmo     Nalpha   Nbeta   Ndocc  Nsocc
   -------------------------------------------------------
     Ag        12      12       0       0       0       0
     B1g        2       2       0       0       0       0
     B2g        4       4       0       0       0       0
     B3g        4       4       0       0       0       0
     Au         1       1       0       0       0       0
     B1u        9       9       0       0       0       0
     B2u        5       5       0       0       0       0
     B3u        5       5       0       0       0       0
   -------------------------------------------------------
    Total      42      42      11      11      11       0
   -------------------------------------------------------

  ==> Integral Setup <==

  ==> DiskDFJK: Density-Fitted J/K Matrices <==

    J tasked:                  Yes
    K tasked:                  Yes
    wK tasked:                 Yes
    Omega:               3.000E-01
    OpenMP threads:             24
    Integrals threads:          24
    Memory [MiB]:           102921
    Algorithm:                Core
    Integral Cache:           NONE
    Schwarz Cutoff:          1E-12
    Fitting Condition:       1E-10

   => Auxiliary Basis Set <=

  Basis Set: (CC-PV(D+D)Z AUX)
    Blend: CC-PVDZ-JKFIT
    Number of shells: 72
    Number of basis function: 210
    Number of Cartesian functions: 243
    Spherical Harmonics?: true
    Max angular momentum: 3

  Cached 100.0% of DFT collocation blocks in 0.074 [GiB].

  Minimum eigenvalue in the overlap matrix is 1.7716242931E-02.
  Using Symmetric Orthogonalization.

  SCF Guess: Orbitals guess was supplied from a previous computation.

  ==> Iterations <==

                           Total Energy        Delta E     RMS |[F,P]|

   @DF-RKS iter   0:  -188.53628897291537   -1.88536e+02   1.38342e-04 
   @DF-RKS iter   1:  -188.53761802104643   -1.32905e-03   3.05661e-05 DIIS
   @DF-RKS iter   2:  -188.53761813065870   -1.09612e-07   1.42660e-05 DIIS
   @DF-RKS iter   3:  -188.53761815555646   -2.48978e-08   3.85001e-06 DIIS
   @DF-RKS iter   4:  -188.53761815714958   -1.59312e-09   7.96842e-07 DIIS
   @DF-RKS iter   5:  -188.53761815727731   -1.27727e-10   7.10728e-08 DIIS
   @DF-RKS iter   6:  -188.53761815727927   -1.96110e-12   1.04372e-08 DIIS
   @DF-RKS iter   7:  -188.53761815727927    0.00000e+00   5.87316e-10 DIIS
  Energy and wave function converged.


  ==> Post-Iterations <==

    Orbital Energies [Eh]
    ---------------------

    Doubly Occupied:                                                      

       1B1u  -19.306023     1Ag   -19.306001     2Ag   -10.476160  
       3Ag    -1.289876     2B1u   -1.244603     4Ag    -0.675604  
       1B2u   -0.627572     1B3u   -0.627572     3B1u   -0.626166  
       1B3g   -0.468292     1B2g   -0.468292  

    Virtual:                                                              

       2B2u    0.139683     2B3u    0.139683     5Ag     0.185288  
       4B1u    0.444492     3B2u    0.523401     3B3u    0.523401  
       6Ag     0.652151     5B1u    0.865400     7Ag     0.947246  
       2B2g    0.990791     2B3g    0.990791     8Ag     1.142279  
       1B1g    1.142279     4B3u    1.212583     4B2u    1.212583  
       6B1u    1.213636     3B3g    1.407370     3B2g    1.407370  
       9Ag     1.704790     7B1u    2.144606     8B1u    2.631780  
       1Au     2.631781    10Ag     2.761719     2B1g    2.761720  
      11Ag     2.831167     5B2u    2.852804     5B3u    2.852804  
      12Ag     3.483594     4B3g    3.586793     4B2g    3.586793  
       9B1u    3.625574  

    Final Occupation by Irrep:
             Ag   B1g   B2g   B3g    Au   B1u   B2u   B3u 
    DOCC [     4,    0,    1,    1,    0,    3,    1,    1 ]

  @DF-RKS Final Energy:  -188.53761815727927

   => Energetics <=

    Nuclear Repulsion Energy =             58.1045293849922899
    One-Electron Energy =                -372.2550215925096495
    Two-Electron Energy =                 141.5781826499324723
    DFT Exchange-Correlation Energy =     -16.0571521340420169
    Empirical Dispersion Energy =           0.0000000000000000
    VV10 Nonlocal Energy =                  0.0918435343476071
    Total Energy =                       -188.5376181572792689

Computation Completed


Properties will be evaluated at   0.000000,   0.000000,   0.000000 [a0]

Properties computed using the SCF density matrix

  Nuclear Dipole Moment: [e a0]
     X:    -0.0000      Y:     0.0000      Z:     0.0000

  Electronic Dipole Moment: [e a0]
     X:     0.0000      Y:     0.0000      Z:     0.0000

  Dipole Moment: [e a0]
     X:    -0.0000      Y:     0.0000      Z:     0.0000     Total:     0.0000

  Dipole Moment: [D]
     X:    -0.0000      Y:     0.0000      Z:     0.0000     Total:     0.0000


*** tstop() called on bp1-compute00149.data.bp.acrc.priv at Tue Apr 27 18:04:41 2021
Module time:
	user time   =      36.91 seconds =       0.62 minutes
	system time =       1.15 seconds =       0.02 minutes
	total time  =          1 seconds =       0.02 minutes
Total time:
	user time   =     270.00 seconds =       4.50 minutes
	system time =       9.28 seconds =       0.15 minutes
	total time  =         11 seconds =       0.18 minutes

         ----------------------------------------------------------
                                   FINDIF
                     R. A. King and Jonathon Misiewicz
         ---------------------------------------------------------

  Computing gradient from energies.
    Using 3-point formula.
    Energy without displacement: -188.5376183763
    Check energies below for precision!
    Forces are for mass-weighted, symmetry-adapted cartesians (in au).

     Coord      Energy(-1)        Energy(+1)            Force
        0   -188.5376167631   -188.5376181573     -0.0001394138


-------------------------------------------------------------
  ## New Matrix (Symmetry 0) ##
  Irrep: 1 Size: 3 x 3

                 1                   2                   3

    1     0.00000000000000     0.00000000000000     0.00000000000000
    2     0.00000000000000     0.00000000000000    -0.00039425919095
    3     0.00000000000000     0.00000000000000     0.00039425919095




			-----------------------------------------
			 OPTKING 2.0: for geometry optimizations 
			  - R.A. King,  Bethel University        
			-----------------------------------------
	At level 1: Red. Int., RFO, no backsteps, dynamic trust

	Previous internal coordinate definitions found.
	---Fragment 1 Geometry and Gradient---
	 C          -0.0000000000       -0.0000000000        0.0000000000
	 O           0.0000000000        0.0000000000        2.2020423460
	 O           0.0000000000        0.0000000000       -2.2020423460
	             0.0000000000        0.0000000000        0.0000000000
	             0.0000000000        0.0000000000       -0.0003942592
	             0.0000000000        0.0000000000        0.0003942592

	---Fragment 1 Intrafragment Coordinates---
	 - Coordinate -           - BOHR/RAD -       - ANG/DEG -
	 R(1,2)           =         2.202042	       1.165271
	 R(1,3)           =         2.202042	       1.165271
	 L(2,1,3)         =         3.141593	     180.000000
	 l(2,1,3)         =         3.141593	     180.000000

	Current energy   :      -188.5376183763

	Energy change for the previous step:
		Projected    :        -0.0000642383
		Actual       :        -0.0000340137

	Performing BFGS update.
	Previous computed or guess Hessian on step 1.
	Steps to be used in Hessian update: 1
	Taking RFO optimization step.
	Going to follow RFO solution 1.
	Using RFO vector 1.
	Norm of target step-size    0.00047
	Projected energy change by RFO approximation:        -0.0000002628

	Back-transformation to cartesian coordinates...
	Successfully converged to displaced geometry.

	--- Internal Coordinate Step in ANG or DEG, aJ/ANG or AJ/DEG ---
	 ---------------------------------------------------------------------------
	   Coordinate                Previous        Force       Change         New 
	   ----------                --------       ------       ------       ------
	    1 R(1,2)          =      1.165271     0.003248     0.000176     1.165447
	    2 R(1,3)          =      1.165271     0.003248     0.000176     1.165447
	    3 L(2,1,3)        =    180.000000     0.000000     0.000000   180.000000
	    4 l(2,1,3)        =    180.000000    -0.000000     0.000000   180.000000
	 ---------------------------------------------------------------------------
	Successfully symmetrized geometry.

  ==> Convergence Check <==

  Measures of convergence in internal coordinates in au.
  Criteria marked as inactive (o), active & met (*), and active & unmet ( ).
  ---------------------------------------------------------------------------------------------
   Step     Total Energy     Delta E     MAX Force     RMS Force      MAX Disp      RMS Disp   
  ---------------------------------------------------------------------------------------------
    Convergence Criteria    1.00e-06 *    3.00e-04 *             o    1.20e-03 *             o
  ---------------------------------------------------------------------------------------------
      2    -188.53761838   -3.40e-05      3.94e-04      2.79e-04 o    3.33e-04 *    2.36e-04 o  ~
  ---------------------------------------------------------------------------------------------

	Writing optimization data to binary file.
	Structure for next step:
	Cartesian Geometry (in Angstrom)
	    C     0.0000000000  -0.0000000000   0.0000000000
	    O     0.0000000000   0.0000000000   1.1654469789
	    O     0.0000000000   0.0000000000  -1.1654469789
			--------------------------
			 OPTKING Finished Execution 
			--------------------------

    Structure for next step:
    Molecular point group: d2h
    Full point group: D_inf_h

    Geometry (in Angstrom), charge = 0, multiplicity = 1:

    C           -0.000000000000     0.000000000000     0.000000000000
    O            0.000000000000     0.000000000000     1.165446983435
    O            0.000000000000     0.000000000000    -1.165446983435

gradient() will perform gradient computation by finite difference of analytic energies.

         ----------------------------------------------------------
                                   FINDIF
                     R. A. King and Jonathon Misiewicz
         ---------------------------------------------------------

  Using finite-differences of energies to determine gradients.
    Generating geometries for use with 3-point formula.
    Displacement size will be 5.00e-03.
    Number of atoms is 3.
    Number of symmetric SALCs is 1.
    Translations projected? 1. Rotations projected? 1.
    Number of geometries (including reference) is 3.

  //>>>>>>>>>>>>>>>>>>>>>>>>>>>>>>>>>>>//
  //    Loading displacement 1 of 3    //
  //<<<<<<<<<<<<<<<<<<<<<<<<<<<<<<<<<<<//

*** tstart() called on bp1-compute00149.data.bp.acrc.priv
*** at Tue Apr 27 18:04:41 2021

   => Loading Basis Set <=

    Name: CC-PV(D+D)Z
    Role: ORBITAL
    Keyword: BASIS
    atoms 1   entry C          line   147 file /work/zw18965/.conda/envs/p4env/share/psi4/basis/cc-pv_dpd_z.gbs 
    atoms 2-3 entry O          line   207 file /work/zw18965/.conda/envs/p4env/share/psi4/basis/cc-pv_dpd_z.gbs 


         ---------------------------------------------------------
                                   SCF
               by Justin Turney, Rob Parrish, Andy Simmonett
                          and Daniel G. A. Smith
                              RKS Reference
                       24 Threads, 137329 MiB Core
         ---------------------------------------------------------

  ==> Geometry <==

    Molecular point group: d2h
    Full point group: D_inf_h

    Geometry (in Angstrom), charge = 0, multiplicity = 1:

       Center              X                  Y                   Z               Mass       
    ------------   -----------------  -----------------  -----------------  -----------------
         C            0.000000000000     0.000000000000     0.000000000000    12.000000000000
         O           -0.000000000000     0.000000000000     1.165446983435    15.994914619570
         O           -0.000000000000     0.000000000000    -1.165446983435    15.994914619570

  Running in d2h symmetry.

  Rotational constants: A = ************  B =      0.38797  C =      0.38797 [cm^-1]
  Rotational constants: A = ************  B =  11631.08510  C =  11631.08510 [MHz]
  Nuclear repulsion =   58.119059835828104

  Charge       = 0
  Multiplicity = 1
  Electrons    = 22
  Nalpha       = 11
  Nbeta        = 11

  ==> Algorithm <==

  SCF Algorithm Type is DF.
  DIIS enabled.
  MOM disabled.
  Fractional occupation disabled.
  Guess Type is READ.
  Energy threshold   = 1.00e-08
  Density threshold  = 1.00e-08
  Integral threshold = 0.00e+00

  ==> Primary Basis <==

  Basis Set: CC-PV(D+D)Z
    Blend: CC-PV(D+D)Z
    Number of shells: 18
    Number of basis function: 42
    Number of Cartesian functions: 45
    Spherical Harmonics?: true
    Max angular momentum: 2

  ==> DFT Potential <==

   => Composite Functional: WB97X-V <= 

    wB97X-V Hyb-GGA Exchange-Correlation Functional

    N. Mardirossian and M. Head-Gordon, Phys. Chem. Chem. Phys. 16, 9904 (2014)

    Deriv               =              1
    GGA                 =           TRUE
    Meta                =          FALSE

    Exchange Hybrid     =           TRUE
    MP2 Hybrid          =          FALSE

   => Exchange-Correlation Functionals <=

    1.0000   wB97X-V range-separated functional

   => Exact (HF) Exchange <=

    0.8330            HF,LR [omega = 0.3000]
    0.1670               HF 

   => VV10 Non-Local Parameters <=

    VV10 B              =     6.0000E+00
    VV10 C              =     1.0000E-02

   => Molecular Quadrature <=

    Radial Scheme          =       TREUTLER
    Pruning Scheme         =           FLAT
    Nuclear Scheme         =       TREUTLER

    BS radius alpha        =              1
    Pruning alpha          =              1
    Radial Points          =             75
    Spherical Points       =            302
    Total Points           =          64496
    Total Blocks           =            557
    Max Points             =            254
    Max Functions          =             42

   => Loading Basis Set <=

    Name: (CC-PV(D+D)Z AUX)
    Role: JKFIT
    Keyword: DF_BASIS_SCF
    atoms 1   entry C          line   121 file /work/zw18965/.conda/envs/p4env/share/psi4/basis/cc-pvdz-jkfit.gbs 
    atoms 2-3 entry O          line   221 file /work/zw18965/.conda/envs/p4env/share/psi4/basis/cc-pvdz-jkfit.gbs 

   => Loading Basis Set <=

    Name: CC-PV(D+D)Z
    Role: ORBITAL
    Keyword: BASIS
    atoms 1   entry C          line   147 file /work/zw18965/.conda/envs/p4env/share/psi4/basis/cc-pv_dpd_z.gbs 
    atoms 2-3 entry O          line   207 file /work/zw18965/.conda/envs/p4env/share/psi4/basis/cc-pv_dpd_z.gbs 

  Reading orbitals from file 180, no projection.

  ==> Pre-Iterations <==

   -------------------------------------------------------
    Irrep   Nso     Nmo     Nalpha   Nbeta   Ndocc  Nsocc
   -------------------------------------------------------
     Ag        12      12       0       0       0       0
     B1g        2       2       0       0       0       0
     B2g        4       4       0       0       0       0
     B3g        4       4       0       0       0       0
     Au         1       1       0       0       0       0
     B1u        9       9       0       0       0       0
     B2u        5       5       0       0       0       0
     B3u        5       5       0       0       0       0
   -------------------------------------------------------
    Total      42      42      11      11      11       0
   -------------------------------------------------------

  ==> Integral Setup <==

  ==> DiskDFJK: Density-Fitted J/K Matrices <==

    J tasked:                  Yes
    K tasked:                  Yes
    wK tasked:                 Yes
    Omega:               3.000E-01
    OpenMP threads:             24
    Integrals threads:          24
    Memory [MiB]:           102921
    Algorithm:                Core
    Integral Cache:           NONE
    Schwarz Cutoff:          1E-12
    Fitting Condition:       1E-10

   => Auxiliary Basis Set <=

  Basis Set: (CC-PV(D+D)Z AUX)
    Blend: CC-PVDZ-JKFIT
    Number of shells: 72
    Number of basis function: 210
    Number of Cartesian functions: 243
    Spherical Harmonics?: true
    Max angular momentum: 3

  Cached 100.0% of DFT collocation blocks in 0.074 [GiB].

  Minimum eigenvalue in the overlap matrix is 1.7713813058E-02.
  Using Symmetric Orthogonalization.

  SCF Guess: Orbitals guess was supplied from a previous computation.

  ==> Iterations <==

                           Total Energy        Delta E     RMS |[F,P]|

   @DF-RKS iter   0:  -188.53711745256103   -1.88537e+02   5.21735e-05 
   @DF-RKS iter   1:  -188.53761848929838   -5.01037e-04   1.15214e-05 DIIS
   @DF-RKS iter   2:  -188.53761850487260   -1.55742e-08   5.37647e-06 DIIS
   @DF-RKS iter   3:  -188.53761850840903   -3.53643e-09   1.44868e-06 DIIS
   @DF-RKS iter   4:  -188.53761850863455   -2.25526e-10   3.00518e-07 DIIS
   @DF-RKS iter   5:  -188.53761850865268   -1.81331e-11   2.67561e-08 DIIS
   @DF-RKS iter   6:  -188.53761850865297   -2.84217e-13   3.92540e-09 DIIS
  Energy and wave function converged.


  ==> Post-Iterations <==

    Orbital Energies [Eh]
    ---------------------

    Doubly Occupied:                                                      

       1B1u  -19.305954     1Ag   -19.305932     2Ag   -10.476047  
       3Ag    -1.290003     2B1u   -1.244730     4Ag    -0.675550  
       1B3u   -0.627672     1B2u   -0.627672     3B1u   -0.626181  
       1B3g   -0.468301     1B2g   -0.468301  

    Virtual:                                                              

       2B3u    0.139895     2B2u    0.139895     5Ag     0.185428  
       4B1u    0.444503     3B3u    0.523366     3B2u    0.523366  
       6Ag     0.652366     5B1u    0.865631     7Ag     0.947280  
       2B2g    0.990727     2B3g    0.990727     8Ag     1.142260  
       1B1g    1.142260     4B3u    1.212664     4B2u    1.212664  
       6B1u    1.214253     3B3g    1.407723     3B2g    1.407723  
       9Ag     1.704936     7B1u    2.144541     8B1u    2.631758  
       1Au     2.631759    10Ag     2.761880     2B1g    2.761881  
      11Ag     2.832308     5B3u    2.853142     5B2u    2.853142  
      12Ag     3.483699     4B2g    3.587377     4B3g    3.587377  
       9B1u    3.626216  

    Final Occupation by Irrep:
             Ag   B1g   B2g   B3g    Au   B1u   B2u   B3u 
    DOCC [     4,    0,    1,    1,    0,    3,    1,    1 ]

  @DF-RKS Final Energy:  -188.53761850865297

   => Energetics <=

    Nuclear Repulsion Energy =             58.1190598358281036
    One-Electron Energy =                -372.2834237777669273
    Two-Electron Energy =                 141.5925183126958018
    DFT Exchange-Correlation Energy =     -16.0576162898241819
    Empirical Dispersion Energy =           0.0000000000000000
    VV10 Nonlocal Energy =                  0.0918434104142219
    Total Energy =                       -188.5376185086529688

Computation Completed


Properties will be evaluated at   0.000000,   0.000000,   0.000000 [a0]

Properties computed using the SCF density matrix

  Nuclear Dipole Moment: [e a0]
     X:     0.0000      Y:     0.0000      Z:     0.0000

  Electronic Dipole Moment: [e a0]
     X:     0.0000      Y:     0.0000      Z:     0.0000

  Dipole Moment: [e a0]
     X:     0.0000      Y:     0.0000      Z:     0.0000     Total:     0.0000

  Dipole Moment: [D]
     X:     0.0000      Y:     0.0000      Z:     0.0000     Total:     0.0000


*** tstop() called on bp1-compute00149.data.bp.acrc.priv at Tue Apr 27 18:04:43 2021
Module time:
	user time   =      35.33 seconds =       0.59 minutes
	system time =       1.05 seconds =       0.02 minutes
	total time  =          2 seconds =       0.03 minutes
Total time:
	user time   =     305.70 seconds =       5.09 minutes
	system time =      10.36 seconds =       0.17 minutes
	total time  =         13 seconds =       0.22 minutes

[...]
       1A2    -0.468301     4B2    -0.468301  

    Virtual:                                                              

       6A1     0.139892     2B1     0.139895     7A1     0.185432  
       5B2     0.444503     8A1     0.523366     3B1     0.523366  
       9A1     0.652366     6B2     0.865631    10A1     0.947280  
       2A2     0.990727     7B2     0.990728    11A1     1.142260  
       4B1     1.142260    12A1     1.212663     5B1     1.212664  
       8B2     1.214248     3A2     1.407722     9B2     1.407728  
      13A1     1.704937    10B2     2.144540    11B2     2.631758  
       4A2     2.631760    14A1     2.761879     6B1     2.761880  
      15A1     2.832188     7B1     2.853143    16A1     2.853260  
      17A1     3.483699    12B2     3.587374     5A2     3.587375  
      13B2     3.626215  

    Final Occupation by Irrep:
             A1    A2    B1    B2 
    DOCC [     5,    1,    1,    4 ]

  @DF-RKS Final Energy:  -188.53761829658259

   => Energetics <=

    Nuclear Repulsion Energy =             58.1190469632364142
    One-Electron Energy =                -372.2833990963231372
    Two-Electron Energy =                 141.5925061786606420
    DFT Exchange-Correlation Energy =     -16.0576157520156535
    Empirical Dispersion Energy =           0.0000000000000000
    VV10 Nonlocal Energy =                  0.0918434098591340
    Total Energy =                       -188.5376182965825933

Computation Completed


Properties will be evaluated at   0.000000,   0.000000,   0.000000 [a0]

Properties computed using the SCF density matrix

  Nuclear Dipole Moment: [e a0]
     X:     0.0000      Y:     0.0000      Z:     0.0000

  Electronic Dipole Moment: [e a0]
     X:     0.0000      Y:    -0.0009      Z:     0.0000

  Dipole Moment: [e a0]
     X:     0.0000      Y:    -0.0009      Z:     0.0000     Total:     0.0009

  Dipole Moment: [D]
     X:     0.0000      Y:    -0.0024      Z:     0.0000     Total:     0.0024


*** tstop() called on bp1-compute00149.data.bp.acrc.priv at Tue Apr 27 18:05:04 2021
Module time:
	user time   =      53.19 seconds =       0.89 minutes
	system time =       1.59 seconds =       0.03 minutes
	total time  =          2 seconds =       0.03 minutes
Total time:
	user time   =     804.94 seconds =      13.42 minutes
	system time =      25.54 seconds =       0.43 minutes
	total time  =         34 seconds =       0.57 minutes

  //>>>>>>>>>>>>>>>>>>>>>>>>>>>>>>>>>>>//
  //    Loading displacement 6 of 6    //
  //<<<<<<<<<<<<<<<<<<<<<<<<<<<<<<<<<<<//

*** tstart() called on bp1-compute00149.data.bp.acrc.priv
*** at Tue Apr 27 18:05:04 2021

   => Loading Basis Set <=

    Name: CC-PV(D+D)Z
    Role: ORBITAL
    Keyword: BASIS
    atoms 1   entry C          line   147 file /work/zw18965/.conda/envs/p4env/share/psi4/basis/cc-pv_dpd_z.gbs 
    atoms 2-3 entry O          line   207 file /work/zw18965/.conda/envs/p4env/share/psi4/basis/cc-pv_dpd_z.gbs 


         ---------------------------------------------------------
                                   SCF
               by Justin Turney, Rob Parrish, Andy Simmonett
                          and Daniel G. A. Smith
                              RKS Reference
                       24 Threads, 137329 MiB Core
         ---------------------------------------------------------

  ==> Geometry <==

    Molecular point group: c2v
    Full point group: C2v

    Geometry (in Angstrom), charge = 0, multiplicity = 1:

       Center              X                  Y                   Z               Mass       
    ------------   -----------------  -----------------  -----------------  -----------------
         C           -0.000651343880     0.000000000000     0.000000000000    12.000000000000
         O            0.000244331612     0.000000000000     1.165446983435    15.994914619570
         O            0.000244331612     0.000000000000    -1.165446983435    15.994914619570

  Running in c2v symmetry.

  Rotational constants: A = 2407987.46702  B =      0.38797  C =      0.38797 [cm^-1]
  Rotational constants: A = 72189648157.17372  B =  11631.08510  C =  11631.08323 [MHz]
  Nuclear repulsion =   58.119046963236414

  Charge       = 0
  Multiplicity = 1
  Electrons    = 22
  Nalpha       = 11
  Nbeta        = 11

  ==> Algorithm <==

  SCF Algorithm Type is DF.
  DIIS enabled.
  MOM disabled.
  Fractional occupation disabled.
  Guess Type is SAD.
  Energy threshold   = 1.00e-10
  Density threshold  = 1.00e-10
  Integral threshold = 0.00e+00

  ==> Primary Basis <==

  Basis Set: CC-PV(D+D)Z
    Blend: CC-PV(D+D)Z
    Number of shells: 18
    Number of basis function: 42
    Number of Cartesian functions: 45
    Spherical Harmonics?: true
    Max angular momentum: 2

  ==> DFT Potential <==

   => Composite Functional: WB97X-V <= 

    wB97X-V Hyb-GGA Exchange-Correlation Functional

    N. Mardirossian and M. Head-Gordon, Phys. Chem. Chem. Phys. 16, 9904 (2014)

    Deriv               =              1
    GGA                 =           TRUE
    Meta                =          FALSE

    Exchange Hybrid     =           TRUE
    MP2 Hybrid          =          FALSE

   => Exchange-Correlation Functionals <=

    1.0000   wB97X-V range-separated functional

   => Exact (HF) Exchange <=

    0.8330            HF,LR [omega = 0.3000]
    0.1670               HF 

   => VV10 Non-Local Parameters <=

    VV10 B              =     6.0000E+00
    VV10 C              =     1.0000E-02

   => Molecular Quadrature <=

    Radial Scheme          =       TREUTLER
    Pruning Scheme         =           FLAT
    Nuclear Scheme         =       TREUTLER

    BS radius alpha        =              1
    Pruning alpha          =              1
    Radial Points          =             75
    Spherical Points       =            302
    Total Points           =          64496
    Total Blocks           =            559
    Max Points             =            256
    Max Functions          =             42

   => Loading Basis Set <=

    Name: (CC-PV(D+D)Z AUX)
    Role: JKFIT
    Keyword: DF_BASIS_SCF
    atoms 1   entry C          line   121 file /work/zw18965/.conda/envs/p4env/share/psi4/basis/cc-pvdz-jkfit.gbs 
    atoms 2-3 entry O          line   221 file /work/zw18965/.conda/envs/p4env/share/psi4/basis/cc-pvdz-jkfit.gbs 

  ==> Pre-Iterations <==

   -------------------------------------------------------
    Irrep   Nso     Nmo     Nalpha   Nbeta   Ndocc  Nsocc
   -------------------------------------------------------
     A1        17      17       0       0       0       0
     A2         5       5       0       0       0       0
     B1         7       7       0       0       0       0
     B2        13      13       0       0       0       0
   -------------------------------------------------------
    Total      42      42      11      11      11       0
   -------------------------------------------------------

  ==> Integral Setup <==

  ==> DiskDFJK: Density-Fitted J/K Matrices <==

    J tasked:                  Yes
    K tasked:                  Yes
    wK tasked:                 Yes
    Omega:               3.000E-01
    OpenMP threads:             24
    Integrals threads:          24
    Memory [MiB]:           102921
    Algorithm:                Core
    Integral Cache:           NONE
    Schwarz Cutoff:          1E-12
    Fitting Condition:       1E-10

   => Auxiliary Basis Set <=

  Basis Set: (CC-PV(D+D)Z AUX)
    Blend: CC-PVDZ-JKFIT
    Number of shells: 72
    Number of basis function: 210
    Number of Cartesian functions: 243
    Spherical Harmonics?: true
    Max angular momentum: 3

  Cached 100.0% of DFT collocation blocks in 0.074 [GiB].

  Minimum eigenvalue in the overlap matrix is 1.7713844357E-02.
  Using Symmetric Orthogonalization.

  SCF Guess: Superposition of Atomic Densities via on-the-fly atomic UHF.

  ==> Iterations <==

                           Total Energy        Delta E     RMS |[F,P]|

   @DF-RKS iter SAD:  -187.88682176174399   -1.87887e+02   0.00000e+00 
   @DF-RKS iter   1:  -188.43500504016313   -5.48183e-01   2.35597e-02 DIIS
   @DF-RKS iter   2:  -188.40244474397193    3.25603e-02   2.74356e-02 DIIS
   @DF-RKS iter   3:  -188.53749652382027   -1.35052e-01   6.83327e-04 DIIS
   @DF-RKS iter   4:  -188.53761066177071   -1.14138e-04   1.77471e-04 DIIS
   @DF-RKS iter   5:  -188.53761814135720   -7.47959e-06   2.00459e-05 DIIS
   @DF-RKS iter   6:  -188.53761828849213   -1.47135e-07   3.69703e-06 DIIS
   @DF-RKS iter   7:  -188.53761829639561   -7.90348e-09   6.33677e-07 DIIS
   @DF-RKS iter   8:  -188.53761829659305   -1.97446e-10   5.25134e-08 DIIS
   @DF-RKS iter   9:  -188.53761829659425   -1.19371e-12   3.69840e-09 DIIS
   @DF-RKS iter  10:  -188.53761829659422    2.84217e-14   2.33282e-10 DIIS
   @DF-RKS iter  11:  -188.53761829659430   -8.52651e-14   2.96037e-11 DIIS
  Energy and wave function converged.


  ==> Post-Iterations <==

    Orbital Energies [Eh]
    ---------------------

    Doubly Occupied:                                                      

       1B2   -19.305954     1A1   -19.305932     2A1   -10.476047  
       3A1    -1.290003     2B2    -1.244730     4A1    -0.675550  
       5A1    -0.627672     1B1    -0.627672     3B2    -0.626181  
       1A2    -0.468301     4B2    -0.468301  

    Virtual:                                                              

       6A1     0.139892     2B1     0.139895     7A1     0.185432  
       5B2     0.444503     8A1     0.523366     3B1     0.523366  
       9A1     0.652366     6B2     0.865631    10A1     0.947280  
       2A2     0.990727     7B2     0.990728    11A1     1.142260  
       4B1     1.142260    12A1     1.212663     5B1     1.212664  
       8B2     1.214248     3A2     1.407722     9B2     1.407728  
      13A1     1.704937    10B2     2.144540    11B2     2.631758  
       4A2     2.631760    14A1     2.761879     6B1     2.761880  
      15A1     2.832188     7B1     2.853143    16A1     2.853260  
      17A1     3.483699    12B2     3.587374     5A2     3.587375  
      13B2     3.626215  

    Final Occupation by Irrep:
             A1    A2    B1    B2 
    DOCC [     5,    1,    1,    4 ]

  @DF-RKS Final Energy:  -188.53761829659430

   => Energetics <=

    Nuclear Repulsion Energy =             58.1190469632364142
    One-Electron Energy =                -372.2833990962928397
    Two-Electron Energy =                 141.5925061786154515
    DFT Exchange-Correlation Energy =     -16.0576157520124738
    Empirical Dispersion Energy =           0.0000000000000000
    VV10 Nonlocal Energy =                  0.0918434098591261
    Total Energy =                       -188.5376182965943030

Computation Completed


Properties will be evaluated at   0.000000,   0.000000,   0.000000 [a0]

Properties computed using the SCF density matrix

  Nuclear Dipole Moment: [e a0]
     X:     0.0000      Y:     0.0000      Z:     0.0000

  Electronic Dipole Moment: [e a0]
     X:    -0.0009      Y:     0.0000      Z:     0.0000

  Dipole Moment: [e a0]
     X:    -0.0009      Y:     0.0000      Z:     0.0000     Total:     0.0009

  Dipole Moment: [D]
     X:    -0.0024      Y:     0.0000      Z:     0.0000     Total:     0.0024


*** tstop() called on bp1-compute00149.data.bp.acrc.priv at Tue Apr 27 18:05:07 2021
Module time:
	user time   =      53.51 seconds =       0.89 minutes
	system time =       1.65 seconds =       0.03 minutes
	total time  =          3 seconds =       0.05 minutes
Total time:
	user time   =     858.58 seconds =      14.31 minutes
	system time =      27.20 seconds =       0.45 minutes
	total time  =         37 seconds =       0.62 minutes

         ----------------------------------------------------------
                                   FINDIF
                     R. A. King and Jonathon Misiewicz
         ---------------------------------------------------------

  Computing second-derivative from energies using projected, 
  symmetry-adapted, cartesian coordinates.

  6 energies passed in, including the reference geometry.
    Using 3-point formula.
    Energy without displacement: -188.5376185087
    Check energies below for precision!
    0: -1 :      -188.5376175868
    0: 1  :      -188.5376176003
    1: -1 :      -188.5376156598
    2: -1 :      -188.5376182966
    3: -1 :      -188.5376182966

-------------------------------------------------------------


  ==> Harmonic Vibrational Analysis <==

  non-mass-weighted Hessian:       Symmetric? True   Hermitian? True   Lin Dep Dim?  5 (0)
  projection of translations (True) and rotations (True) removed 5 degrees of freedom (5)
  total projector:                 Symmetric? True   Hermitian? True   Lin Dep Dim?  5 (5)
  mass-weighted Hessian:           Symmetric? True   Hermitian? True   Lin Dep Dim?  5 (0)
  pre-proj  low-frequency mode:    0.0000i [cm^-1]
  pre-proj  low-frequency mode:    0.0000  [cm^-1]
  pre-proj  low-frequency mode:    0.0000  [cm^-1]
  pre-proj  low-frequency mode:    0.0000  [cm^-1]
  pre-proj  low-frequency mode:    0.0000  [cm^-1]
  pre-proj  all modes:['0.0000i' '0.0000' '0.0000' '0.0000' '0.0000' '669.5412' '669.5597'
 '1390.8465' '2454.0593']
  projected mass-weighted Hessian: Symmetric? True   Hermitian? True   Lin Dep Dim?  5 (5)
  post-proj low-frequency mode:    0.0000i [cm^-1] (TR)
  post-proj low-frequency mode:    0.0000i [cm^-1] (TR)
  post-proj low-frequency mode:    0.0000  [cm^-1] (TR)
  post-proj low-frequency mode:    0.0000  [cm^-1] (TR)
  post-proj low-frequency mode:    0.0000  [cm^-1] (TR)
  post-proj  all modes:['0.0000i' '0.0000i' '0.0000' '0.0000' '0.0000' '669.5412' '669.5597'
 '1390.8465' '2454.0593']

  Vibration                       6                   7                   8           
  Freq [cm^-1]                 669.5412            669.5597           1390.8465       
  Irrep                          B3u                 B2u                  Ag          
  Reduced mass [u]             12.8774             12.8774             15.9949        
  Force const [mDyne/A]         3.4012              3.4014             18.2302        
  Turning point v=0 [a0]        0.1182              0.1182              0.0736        
  RMS dev v=0 [a0 u^1/2]        0.2999              0.2998              0.2080        
  Char temp [K]                963.3207            963.3473           2001.1184       
  ----------------------------------------------------------------------------------
      1   C                0.88  0.00 -0.00   -0.00  0.88  0.00   -0.00 -0.00  0.00   
      2   O               -0.33 -0.00 -0.00    0.00 -0.33  0.00   -0.00 -0.00  0.71   
      3   O               -0.33  0.00 -0.00    0.00 -0.33  0.00   -0.00  0.00 -0.71   

  Vibration                       9           
  Freq [cm^-1]                2454.0593       
  Irrep                          B1u          
  Reduced mass [u]             12.8774        
  Force const [mDyne/A]        45.6928        
  Turning point v=0 [a0]        0.0617        
  RMS dev v=0 [a0 u^1/2]        0.1566        
  Char temp [K]               3530.8450       
  ----------------------------------------------------------------------------------
      1   C               -0.00  0.00  0.88   
      2   O               -0.00  0.00 -0.33   
      3   O                0.00 -0.00 -0.33   

  ==> Thermochemistry Components <==

  Entropy, S
    Electronic S            0.000 [cal/(mol K)]        0.000 [J/(mol K)]       0.00000000 [mEh/K] (multiplicity = 1)
    Translational S        37.270 [cal/(mol K)]      155.938 [J/(mol K)]       0.05939371 [mEh/K] (mol. weight = 43.9898 [u], P = 101325.00 [Pa])
    Rotational S           13.091 [cal/(mol K)]       54.771 [J/(mol K)]       0.02086130 [mEh/K] (symmetry no. = 2)
    Vibrational S           0.707 [cal/(mol K)]        2.960 [J/(mol K)]       0.00112734 [mEh/K]
  Total S                  51.068 [cal/(mol K)]      213.669 [J/(mol K)]       0.08138235 [mEh/K]
  Correction S              0.000 [cal/(mol K)]        0.000 [J/(mol K)]       0.00000000 [mEh/K]

  Constant volume heat capacity, Cv
    Electronic Cv           0.000 [cal/(mol K)]        0.000 [J/(mol K)]       0.00000000 [mEh/K]
    Translational Cv        2.981 [cal/(mol K)]       12.472 [J/(mol K)]       0.00475022 [mEh/K]
    Rotational Cv           1.987 [cal/(mol K)]        8.314 [J/(mol K)]       0.00316681 [mEh/K]
    Vibrational Cv          1.888 [cal/(mol K)]        7.901 [J/(mol K)]       0.00300943 [mEh/K]
  Total Cv                  6.856 [cal/(mol K)]       28.687 [J/(mol K)]       0.01092645 [mEh/K]
  Correction Cv             0.000 [cal/(mol K)]        0.000 [J/(mol K)]       0.00000000 [mEh/K]

  Constant pressure heat capacity, Cp
    Electronic Cp           0.000 [cal/(mol K)]        0.000 [J/(mol K)]       0.00000000 [mEh/K]
    Translational Cp        4.968 [cal/(mol K)]       20.786 [J/(mol K)]       0.00791703 [mEh/K]
    Rotational Cp           1.987 [cal/(mol K)]        8.314 [J/(mol K)]       0.00316681 [mEh/K]
    Vibrational Cp          1.888 [cal/(mol K)]        7.901 [J/(mol K)]       0.00300943 [mEh/K]
  Total Cp                  8.844 [cal/(mol K)]       37.002 [J/(mol K)]       0.01409327 [mEh/K]
  Correction Cp             0.000 [cal/(mol K)]        0.000 [J/(mol K)]       0.00000000 [mEh/K]

  ==> Thermochemistry Energy Analysis <==

  Raw electronic energy, E0
  Total E0, Electronic energy at well bottom at 0 [K]                 -188.53761851 [Eh]

  Zero-point energy, ZPE_vib = Sum_i nu_i / 2
    Electronic ZPE          0.000 [kcal/mol]        0.000 [kJ/mol]       0.00000000 [Eh]
    Translational ZPE       0.000 [kcal/mol]        0.000 [kJ/mol]       0.00000000 [Eh]
    Rotational ZPE          0.000 [kcal/mol]        0.000 [kJ/mol]       0.00000000 [Eh]
    Vibrational ZPE         7.411 [kcal/mol]       31.007 [kJ/mol]       0.01181004 [Eh]        2592.003 [cm^-1]
  Correction ZPE            7.411 [kcal/mol]       31.007 [kJ/mol]       0.01181004 [Eh]        2592.003 [cm^-1]
  Total ZPE, Electronic energy at 0 [K]                               -188.52580847 [Eh]

  Thermal Energy, E (includes ZPE)
    Electronic E            0.000 [kcal/mol]        0.000 [kJ/mol]       0.00000000 [Eh]
    Translational E         0.889 [kcal/mol]        3.718 [kJ/mol]       0.00141628 [Eh]
    Rotational E            0.592 [kcal/mol]        2.479 [kJ/mol]       0.00094418 [Eh]
    Vibrational E           7.573 [kcal/mol]       31.687 [kJ/mol]       0.01206886 [Eh]
  Correction E              9.055 [kcal/mol]       37.884 [kJ/mol]       0.01442932 [Eh]
  Total E, Electronic energy at  298.15 [K]                           -188.52318919 [Eh]

  Enthalpy, H_trans = E_trans + k_B * T
    Electronic H            0.000 [kcal/mol]        0.000 [kJ/mol]       0.00000000 [Eh]
    Translational H         1.481 [kcal/mol]        6.197 [kJ/mol]       0.00236046 [Eh]
    Rotational H            0.592 [kcal/mol]        2.479 [kJ/mol]       0.00094418 [Eh]
    Vibrational H           7.573 [kcal/mol]       31.687 [kJ/mol]       0.01206886 [Eh]
  Correction H              9.647 [kcal/mol]       40.363 [kJ/mol]       0.01537351 [Eh]
  Total H, Enthalpy at  298.15 [K]                                    -188.52224500 [Eh]

  Gibbs free energy, G = H - T * S
    Electronic G            0.000 [kcal/mol]        0.000 [kJ/mol]       0.00000000 [Eh]
    Translational G        -9.631 [kcal/mol]      -40.296 [kJ/mol]      -0.01534777 [Eh]
    Rotational G           -3.310 [kcal/mol]      -13.851 [kJ/mol]      -0.00527561 [Eh]
    Vibrational G           7.362 [kcal/mol]       30.804 [kJ/mol]       0.01173274 [Eh]
  Correction G             -5.579 [kcal/mol]      -23.342 [kJ/mol]      -0.00889064 [Eh]
  Total G, Free enthalpy at  298.15 [K]                               -188.54650915 [Eh]

    Psi4 stopped on: Tuesday, 27 April 2021 06:05PM
    Psi4 wall time for execution: 0:00:37.67

*** Psi4 exiting successfully. Buy a developer a beer!
