
    -----------------------------------------------------------------------
          Psi4: An Open-Source Ab Initio Electronic Structure Package
                               Psi4 1.3.2 release

                         Git: Rev {HEAD} ecbda83 


    R. M. Parrish, L. A. Burns, D. G. A. Smith, A. C. Simmonett,
    A. E. DePrince III, E. G. Hohenstein, U. Bozkaya, A. Yu. Sokolov,
    R. Di Remigio, R. M. Richard, J. F. Gonthier, A. M. James,
    H. R. McAlexander, A. Kumar, M. Saitow, X. Wang, B. P. Pritchard,
    P. Verma, H. F. Schaefer III, K. Patkowski, R. A. King, E. F. Valeev,
    F. A. Evangelista, J. M. Turney, T. D. Crawford, and C. D. Sherrill,
    J. Chem. Theory Comput. 13(7) pp 3185--3197 (2017).
    (doi: 10.1021/acs.jctc.7b00174)


                         Additional Contributions by
    P. Kraus, H. Kruse, M. H. Lechner, M. C. Schieber, R. A. Shaw,
    A. Alenaizan, R. Galvelis, Z. L. Glick, S. Lehtola, and J. P. Misiewicz

    -----------------------------------------------------------------------


    Psi4 started on: Tuesday, 27 April 2021 06:04PM

    Process ID: 199938
    Host:       bp1-compute00115.data.bp.acrc.priv
    PSIDATADIR: /work/zw18965/.conda/envs/p4env/share/psi4
    Memory:     500.0 MiB
    Threads:    24
    
  ==> Input File <==

--------------------------------------------------------------------------
memory 144 GB

molecule {
0 1
C 0.0000000000 0.0000000000 0.0000000000
S 0.0000000000 0.0000000000 1.5415329200
}

set dynamic_level 1
set basis cc-pV(D+d)Z
 
optimize("wB97X-V")
frequencies("wB97X-V")
--------------------------------------------------------------------------

  Memory set to 134.110 GiB by Python driver.
gradient() will perform gradient computation by finite difference of analytic energies.

         ----------------------------------------------------------
                                   FINDIF
                     R. A. King and Jonathon Misiewicz
         ---------------------------------------------------------

  Using finite-differences of energies to determine gradients.
    Generating geometries for use with 3-point formula.
    Displacement size will be 5.00e-03.
    Number of atoms is 2.
    Number of symmetric SALCs is 1.
    Translations projected? 1. Rotations projected? 1.
    Number of geometries (including reference) is 3.

  //>>>>>>>>>>>>>>>>>>>>>>>>>>>>>>>>>>>//
  //    Loading displacement 1 of 3    //
  //<<<<<<<<<<<<<<<<<<<<<<<<<<<<<<<<<<<//

*** tstart() called on bp1-compute00115.data.bp.acrc.priv
*** at Tue Apr 27 18:04:53 2021

   => Loading Basis Set <=

    Name: CC-PV(D+D)Z
    Role: ORBITAL
    Keyword: BASIS
    atoms 1 entry C          line   147 file /work/zw18965/.conda/envs/p4env/share/psi4/basis/cc-pv_dpd_z.gbs 
    atoms 2 entry S          line   613 file /work/zw18965/.conda/envs/p4env/share/psi4/basis/cc-pv_dpd_z.gbs 


         ---------------------------------------------------------
                                   SCF
               by Justin Turney, Rob Parrish, Andy Simmonett
                          and Daniel G. A. Smith
                              RKS Reference
                       24 Threads, 137329 MiB Core
         ---------------------------------------------------------

  ==> Geometry <==

    Molecular point group: c2v
    Full point group: C_inf_v

    Geometry (in Angstrom), charge = 0, multiplicity = 1:

       Center              X                  Y                   Z               Mass       
    ------------   -----------------  -----------------  -----------------  -----------------
         C            0.000000000000     0.000000000000    -1.120847822711    12.000000000000
         S            0.000000000000     0.000000000000     0.420685097289    31.972071174400

  Running in c2v symmetry.

  Rotational constants: A = ************  B =      0.81305  C =      0.81305 [cm^-1]
  Rotational constants: A = ************  B =  24374.54386  C =  24374.54386 [MHz]
  Nuclear repulsion =   32.954866915407813

  Charge       = 0
  Multiplicity = 1
  Electrons    = 22
  Nalpha       = 11
  Nbeta        = 11

  ==> Algorithm <==

  SCF Algorithm Type is DF.
  DIIS enabled.
  MOM disabled.
  Fractional occupation disabled.
  Guess Type is SAD.
  Energy threshold   = 1.00e-08
  Density threshold  = 1.00e-08
  Integral threshold = 0.00e+00

  ==> Primary Basis <==

  Basis Set: CC-PV(D+D)Z
    Blend: CC-PV(D+D)Z
    Number of shells: 15
    Number of basis function: 37
    Number of Cartesian functions: 40
    Spherical Harmonics?: true
    Max angular momentum: 2

  ==> DFT Potential <==

   => Composite Functional: WB97X-V <= 

    wB97X-V Hyb-GGA Exchange-Correlation Functional

    N. Mardirossian and M. Head-Gordon, Phys. Chem. Chem. Phys. 16, 9904 (2014)

    Deriv               =              1
    GGA                 =           TRUE
    Meta                =          FALSE

    Exchange Hybrid     =           TRUE
    MP2 Hybrid          =          FALSE

   => Exchange-Correlation Functionals <=

    1.0000   wB97X-V range-separated functional

   => Exact (HF) Exchange <=

    0.8330            HF,LR [omega = 0.3000]
    0.1670               HF 

   => VV10 Non-Local Parameters <=

    VV10 B              =     6.0000E+00
    VV10 C              =     1.0000E-02

   => Molecular Quadrature <=

    Radial Scheme          =       TREUTLER
    Pruning Scheme         =           FLAT
    Nuclear Scheme         =       TREUTLER

    BS radius alpha        =              1
    Pruning alpha          =              1
    Radial Points          =             75
    Spherical Points       =            302
    Total Points           =          42258
    Total Blocks           =            379
    Max Points             =            256
    Max Functions          =             37

   => Loading Basis Set <=

    Name: (CC-PV(D+D)Z AUX)
    Role: JKFIT
    Keyword: DF_BASIS_SCF
    atoms 1 entry C          line   121 file /work/zw18965/.conda/envs/p4env/share/psi4/basis/cc-pvdz-jkfit.gbs 
    atoms 2 entry S          line   593 file /work/zw18965/.conda/envs/p4env/share/psi4/basis/cc-pvdz-jkfit.gbs 

  ==> Pre-Iterations <==

   -------------------------------------------------------
    Irrep   Nso     Nmo     Nalpha   Nbeta   Ndocc  Nsocc
   -------------------------------------------------------
     A1        18      18       0       0       0       0
     A2         3       3       0       0       0       0
     B1         8       8       0       0       0       0
     B2         8       8       0       0       0       0
   -------------------------------------------------------
    Total      37      37      11      11      11       0
   -------------------------------------------------------

  ==> Integral Setup <==

  ==> DiskDFJK: Density-Fitted J/K Matrices <==

    J tasked:                  Yes
    K tasked:                  Yes
    wK tasked:                 Yes
    Omega:               3.000E-01
    OpenMP threads:             24
    Integrals threads:          24
    Memory [MiB]:           102951
    Algorithm:                Core
    Integral Cache:           NONE
    Schwarz Cutoff:          1E-12
    Fitting Condition:       1E-10

   => Auxiliary Basis Set <=

  Basis Set: (CC-PV(D+D)Z AUX)
    Blend: CC-PVDZ-JKFIT
    Number of shells: 60
    Number of basis function: 182
    Number of Cartesian functions: 211
    Spherical Harmonics?: true
    Max angular momentum: 3

  Cached 100.0% of DFT collocation blocks in 0.044 [GiB].

  Minimum eigenvalue in the overlap matrix is 1.0152315874E-02.
  Using Symmetric Orthogonalization.

  SCF Guess: Superposition of Atomic Densities via on-the-fly atomic UHF.

  ==> Iterations <==

                           Total Energy        Delta E     RMS |[F,P]|

   @DF-RKS iter SAD:  -435.58354650009227   -4.35584e+02   0.00000e+00 
   @DF-RKS iter   1:  -436.12062272036610   -5.37076e-01   9.17863e-03 DIIS
   @DF-RKS iter   2:  -436.11566576526513    4.95696e-03   1.07952e-02 DIIS
   @DF-RKS iter   3:  -436.14563601874869   -2.99703e-02   7.31339e-04 DIIS
   @DF-RKS iter   4:  -436.14582389187655   -1.87873e-04   2.67750e-04 DIIS
   @DF-RKS iter   5:  -436.14585260693980   -2.87151e-05   6.40735e-05 DIIS
   @DF-RKS iter   6:  -436.14585444980975   -1.84287e-06   2.07596e-05 DIIS
   @DF-RKS iter   7:  -436.14585467311127   -2.23302e-07   2.99885e-06 DIIS
   @DF-RKS iter   8:  -436.14585468052150   -7.41022e-09   3.54050e-07 DIIS
   @DF-RKS iter   9:  -436.14585468061597   -9.44738e-11   5.38942e-08 DIIS
   @DF-RKS iter  10:  -436.14585468061767   -1.70530e-12   6.32240e-09 DIIS
  Energy and wave function converged.


  ==> Post-Iterations <==

    Orbital Energies [Eh]
    ---------------------

    Doubly Occupied:                                                      

       1A1   -88.918397     2A1   -10.384103     3A1    -8.090625  
       1B2    -6.042322     1B1    -6.042322     4A1    -6.042240  
       5A1    -0.964958     6A1    -0.633577     2B2    -0.452248  
       2B1    -0.452248     7A1    -0.415675  

    Virtual:                                                              

       3B2     0.008696     3B1     0.008696     8A1     0.202702  
       9A1     0.472152     4B2     0.535566     4B1     0.535566  
      10A1     0.580063    11A1     0.594981     1A2     0.594982  
      12A1     0.635653     5B2     0.642256     5B1     0.642256  
       6B2     0.678899     6B1     0.678899    13A1     0.981743  
      14A1     1.154830    15A1     1.276036     2A2     1.276037  
       7B1     1.551769     7B2     1.551769    16A1     1.947357  
      17A1     4.485547     3A2     4.485552     8B2     4.587294  
       8B1     4.587294    18A1     4.714340  

    Final Occupation by Irrep:
             A1    A2    B1    B2 
    DOCC [     7,    0,    2,    2 ]

  @DF-RKS Final Energy:  -436.14585468061767

   => Energetics <=

    Nuclear Repulsion Energy =             32.9548669154078127
    One-Electron Energy =                -665.6368449678952857
    Two-Electron Energy =                 219.5074632333180205
    DFT Exchange-Correlation Energy =     -23.0634783103602743
    Empirical Dispersion Energy =           0.0000000000000000
    VV10 Nonlocal Energy =                  0.0921384489120616
    Total Energy =                       -436.1458546806176173

Computation Completed


Properties will be evaluated at   0.000000,   0.000000,   0.000000 [a0]

Properties computed using the SCF density matrix

  Nuclear Dipole Moment: [e a0]
     X:     0.0000      Y:     0.0000      Z:     0.0111

  Electronic Dipole Moment: [e a0]
     X:     0.0000      Y:     0.0000      Z:     0.6754

  Dipole Moment: [e a0]
     X:     0.0000      Y:     0.0000      Z:     0.6865     Total:     0.6865

  Dipole Moment: [D]
     X:     0.0000      Y:     0.0000      Z:     1.7448     Total:     1.7448


*** tstop() called on bp1-compute00115.data.bp.acrc.priv at Tue Apr 27 18:04:55 2021
Module time:
	user time   =      42.78 seconds =       0.71 minutes
	system time =       1.82 seconds =       0.03 minutes
	total time  =          2 seconds =       0.03 minutes
Total time:
	user time   =      42.78 seconds =       0.71 minutes
	system time =       1.82 seconds =       0.03 minutes
	total time  =          2 seconds =       0.03 minutes

  //>>>>>>>>>>>>>>>>>>>>>>>>>>>>>>>>>>>//
  //    Loading displacement 2 of 3    //
  //<<<<<<<<<<<<<<<<<<<<<<<<<<<<<<<<<<<//

*** tstart() called on bp1-compute00115.data.bp.acrc.priv
*** at Tue Apr 27 18:04:55 2021

   => Loading Basis Set <=

    Name: CC-PV(D+D)Z
    Role: ORBITAL
    Keyword: BASIS
    atoms 1 entry C          line   147 file /work/zw18965/.conda/envs/p4env/share/psi4/basis/cc-pv_dpd_z.gbs 
    atoms 2 entry S          line   613 file /work/zw18965/.conda/envs/p4env/share/psi4/basis/cc-pv_dpd_z.gbs 


         ---------------------------------------------------------
                                   SCF
               by Justin Turney, Rob Parrish, Andy Simmonett
                          and Daniel G. A. Smith
                              RKS Reference
                       24 Threads, 137329 MiB Core
         ---------------------------------------------------------

  ==> Geometry <==

    Molecular point group: c2v
    Full point group: C_inf_v

    Geometry (in Angstrom), charge = 0, multiplicity = 1:

       Center              X                  Y                   Z               Mass       
    ------------   -----------------  -----------------  -----------------  -----------------
         C            0.000000000000     0.000000000000    -1.121499117253    12.000000000000
         S            0.000000000000     0.000000000000     0.420929546091    31.972071174400

  Running in c2v symmetry.

  Rotational constants: A = ************  B =      0.81210  C =      0.81210 [cm^-1]
  Rotational constants: A = ************  B =  24346.24174  C =  24346.24174 [MHz]
  Nuclear repulsion =   32.935728848677002

  Charge       = 0
  Multiplicity = 1
  Electrons    = 22
  Nalpha       = 11
  Nbeta        = 11

  ==> Algorithm <==

  SCF Algorithm Type is DF.
  DIIS enabled.
  MOM disabled.
  Fractional occupation disabled.
  Guess Type is SAD.
  Energy threshold   = 1.00e-08
  Density threshold  = 1.00e-08
  Integral threshold = 0.00e+00

  ==> Primary Basis <==

  Basis Set: CC-PV(D+D)Z
    Blend: CC-PV(D+D)Z
    Number of shells: 15
    Number of basis function: 37
    Number of Cartesian functions: 40
    Spherical Harmonics?: true
    Max angular momentum: 2

  ==> DFT Potential <==

   => Composite Functional: WB97X-V <= 

    wB97X-V Hyb-GGA Exchange-Correlation Functional

    N. Mardirossian and M. Head-Gordon, Phys. Chem. Chem. Phys. 16, 9904 (2014)

    Deriv               =              1
    GGA                 =           TRUE
    Meta                =          FALSE

    Exchange Hybrid     =           TRUE
    MP2 Hybrid          =          FALSE

   => Exchange-Correlation Functionals <=

    1.0000   wB97X-V range-separated functional

   => Exact (HF) Exchange <=

    0.8330            HF,LR [omega = 0.3000]
    0.1670               HF 

   => VV10 Non-Local Parameters <=

    VV10 B              =     6.0000E+00
    VV10 C              =     1.0000E-02

   => Molecular Quadrature <=

    Radial Scheme          =       TREUTLER
    Pruning Scheme         =           FLAT
    Nuclear Scheme         =       TREUTLER

    BS radius alpha        =              1
    Pruning alpha          =              1
    Radial Points          =             75
    Spherical Points       =            302
    Total Points           =          42258
    Total Blocks           =            380
    Max Points             =            256
    Max Functions          =             37

   => Loading Basis Set <=

    Name: (CC-PV(D+D)Z AUX)
    Role: JKFIT
    Keyword: DF_BASIS_SCF
    atoms 1 entry C          line   121 file /work/zw18965/.conda/envs/p4env/share/psi4/basis/cc-pvdz-jkfit.gbs 
    atoms 2 entry S          line   593 file /work/zw18965/.conda/envs/p4env/share/psi4/basis/cc-pvdz-jkfit.gbs 

  ==> Pre-Iterations <==

   -------------------------------------------------------
    Irrep   Nso     Nmo     Nalpha   Nbeta   Ndocc  Nsocc
   -------------------------------------------------------
     A1        18      18       0       0       0       0
     A2         3       3       0       0       0       0
     B1         8       8       0       0       0       0
     B2         8       8       0       0       0       0
   -------------------------------------------------------
    Total      37      37      11      11      11       0
   -------------------------------------------------------

  ==> Integral Setup <==

  ==> DiskDFJK: Density-Fitted J/K Matrices <==

    J tasked:                  Yes
    K tasked:                  Yes
    wK tasked:                 Yes
    Omega:               3.000E-01
    OpenMP threads:             24
    Integrals threads:          24
    Memory [MiB]:           102951
    Algorithm:                Core
    Integral Cache:           NONE
    Schwarz Cutoff:          1E-12
    Fitting Condition:       1E-10

   => Auxiliary Basis Set <=

  Basis Set: (CC-PV(D+D)Z AUX)
    Blend: CC-PVDZ-JKFIT
    Number of shells: 60
    Number of basis function: 182
    Number of Cartesian functions: 211
    Spherical Harmonics?: true
    Max angular momentum: 3

  Cached 100.0% of DFT collocation blocks in 0.044 [GiB].

  Minimum eigenvalue in the overlap matrix is 1.0174922410E-02.
  Using Symmetric Orthogonalization.

  SCF Guess: Superposition of Atomic Densities via on-the-fly atomic UHF.

  ==> Iterations <==

                           Total Energy        Delta E     RMS |[F,P]|

   @DF-RKS iter SAD:  -435.58218867674282   -4.35582e+02   0.00000e+00 
   @DF-RKS iter   1:  -436.12078236263977   -5.38594e-01   9.14225e-03 DIIS
   @DF-RKS iter   2:  -436.11587951271548    4.90285e-03   1.07527e-02 DIIS
   @DF-RKS iter   3:  -436.14561965104554   -2.97401e-02   7.32944e-04 DIIS
   @DF-RKS iter   4:  -436.14580828277775   -1.88632e-04   2.67810e-04 DIIS
   @DF-RKS iter   5:  -436.14583703284183   -2.87501e-05   6.40755e-05 DIIS
   @DF-RKS iter   6:  -436.14583887835602   -1.84551e-06   2.07709e-05 DIIS
   @DF-RKS iter   7:  -436.14583910231346   -2.23957e-07   3.00131e-06 DIIS
   @DF-RKS iter   8:  -436.14583910974119   -7.42773e-09   3.54064e-07 DIIS
   @DF-RKS iter   9:  -436.14583910983555   -9.43601e-11   5.39372e-08 DIIS
   @DF-RKS iter  10:  -436.14583910983742   -1.87583e-12   6.32140e-09 DIIS
  Energy and wave function converged.


  ==> Post-Iterations <==

    Orbital Energies [Eh]
    ---------------------

    Doubly Occupied:                                                      

       1A1   -88.918460     2A1   -10.384370     3A1    -8.090636  
       1B2    -6.042337     1B1    -6.042337     4A1    -6.042256  
       5A1    -0.964711     6A1    -0.633633     2B1    -0.452101  
       2B2    -0.452101     7A1    -0.415766  

    Virtual:                                                              

       3B1     0.008541     3B2     0.008541     8A1     0.202529  
       9A1     0.472259     4B1     0.535692     4B2     0.535692  
      10A1     0.580028    11A1     0.595067     1A2     0.595067  
      12A1     0.635374     5B1     0.642037     5B2     0.642037  
       6B2     0.678792     6B1     0.678792    13A1     0.981445  
      14A1     1.153926    15A1     1.275887     2A2     1.275888  
       7B1     1.551175     7B2     1.551175    16A1     1.946880  
      17A1     4.485541     3A2     4.485547     8B2     4.587208  
       8B1     4.587208    18A1     4.714273  

    Final Occupation by Irrep:
             A1    A2    B1    B2 
    DOCC [     7,    0,    2,    2 ]

  @DF-RKS Final Energy:  -436.14583910983742

   => Energetics <=

    Nuclear Repulsion Energy =             32.9357288486770017
    One-Electron Energy =                -665.5988496875206692
    Two-Electron Energy =                 219.4881493282627218
    DFT Exchange-Correlation Energy =     -23.0630062849585684
    Empirical Dispersion Energy =           0.0000000000000000
    VV10 Nonlocal Energy =                  0.0921386857021226
    Total Energy =                       -436.1458391098374818

Computation Completed


Properties will be evaluated at   0.000000,   0.000000,   0.000000 [a0]

Properties computed using the SCF density matrix

  Nuclear Dipole Moment: [e a0]
     X:     0.0000      Y:     0.0000      Z:     0.0111

  Electronic Dipole Moment: [e a0]
     X:     0.0000      Y:     0.0000      Z:     0.6738

  Dipole Moment: [e a0]
     X:     0.0000      Y:     0.0000      Z:     0.6849     Total:     0.6849

  Dipole Moment: [D]
     X:     0.0000      Y:     0.0000      Z:     1.7408     Total:     1.7408


*** tstop() called on bp1-compute00115.data.bp.acrc.priv at Tue Apr 27 18:04:57 2021
Module time:
	user time   =      45.16 seconds =       0.75 minutes
	system time =       1.71 seconds =       0.03 minutes
	total time  =          2 seconds =       0.03 minutes
Total time:
	user time   =      88.07 seconds =       1.47 minutes
	system time =       3.54 seconds =       0.06 minutes
	total time  =          4 seconds =       0.07 minutes

  //>>>>>>>>>>>>>>>>>>>>>>>>>>>>>>>>>>>//
  //    Loading displacement 3 of 3    //
  //<<<<<<<<<<<<<<<<<<<<<<<<<<<<<<<<<<<//

*** tstart() called on bp1-compute00115.data.bp.acrc.priv
*** at Tue Apr 27 18:04:57 2021

   => Loading Basis Set <=

    Name: CC-PV(D+D)Z
    Role: ORBITAL
    Keyword: BASIS
    atoms 1 entry C          line   147 file /work/zw18965/.conda/envs/p4env/share/psi4/basis/cc-pv_dpd_z.gbs 
    atoms 2 entry S          line   613 file /work/zw18965/.conda/envs/p4env/share/psi4/basis/cc-pv_dpd_z.gbs 


         ---------------------------------------------------------
                                   SCF
               by Justin Turney, Rob Parrish, Andy Simmonett
                          and Daniel G. A. Smith
                              RKS Reference
                       24 Threads, 137329 MiB Core
         ---------------------------------------------------------

  ==> Geometry <==

    Molecular point group: c2v
    Full point group: C_inf_v

    Geometry (in Angstrom), charge = 0, multiplicity = 1:

       Center              X                  Y                   Z               Mass       
    ------------   -----------------  -----------------  -----------------  -----------------
         C            0.000000000000     0.000000000000    -1.120196528169    12.000000000000
         S            0.000000000000     0.000000000000     0.420440648487    31.972071174400

  Running in c2v symmetry.

  Rotational constants: A = ************  B =      0.81399  C =      0.81399 [cm^-1]
  Rotational constants: A = ************  B =  24402.89535  C =  24402.89535 [MHz]
  Nuclear repulsion =   32.974027236302241

  Charge       = 0
  Multiplicity = 1
  Electrons    = 22
  Nalpha       = 11
  Nbeta        = 11

  ==> Algorithm <==

  SCF Algorithm Type is DF.
  DIIS enabled.
  MOM disabled.
  Fractional occupation disabled.
  Guess Type is SAD.
  Energy threshold   = 1.00e-08
  Density threshold  = 1.00e-08
  Integral threshold = 0.00e+00

  ==> Primary Basis <==

  Basis Set: CC-PV(D+D)Z
    Blend: CC-PV(D+D)Z
    Number of shells: 15
    Number of basis function: 37
    Number of Cartesian functions: 40
    Spherical Harmonics?: true
    Max angular momentum: 2

  ==> DFT Potential <==

   => Composite Functional: WB97X-V <= 

    wB97X-V Hyb-GGA Exchange-Correlation Functional

    N. Mardirossian and M. Head-Gordon, Phys. Chem. Chem. Phys. 16, 9904 (2014)

    Deriv               =              1
    GGA                 =           TRUE
    Meta                =          FALSE

    Exchange Hybrid     =           TRUE
    MP2 Hybrid          =          FALSE

   => Exchange-Correlation Functionals <=

    1.0000   wB97X-V range-separated functional

   => Exact (HF) Exchange <=

    0.8330            HF,LR [omega = 0.3000]
    0.1670               HF 

   => VV10 Non-Local Parameters <=

    VV10 B              =     6.0000E+00
    VV10 C              =     1.0000E-02

   => Molecular Quadrature <=

    Radial Scheme          =       TREUTLER
    Pruning Scheme         =           FLAT
    Nuclear Scheme         =       TREUTLER

    BS radius alpha        =              1
    Pruning alpha          =              1
    Radial Points          =             75
    Spherical Points       =            302
    Total Points           =          42258
    Total Blocks           =            379
    Max Points             =            256
    Max Functions          =             37

   => Loading Basis Set <=

    Name: (CC-PV(D+D)Z AUX)
    Role: JKFIT
    Keyword: DF_BASIS_SCF
    atoms 1 entry C          line   121 file /work/zw18965/.conda/envs/p4env/share/psi4/basis/cc-pvdz-jkfit.gbs 
    atoms 2 entry S          line   593 file /work/zw18965/.conda/envs/p4env/share/psi4/basis/cc-pvdz-jkfit.gbs 

  ==> Pre-Iterations <==

   -------------------------------------------------------
    Irrep   Nso     Nmo     Nalpha   Nbeta   Ndocc  Nsocc
   -------------------------------------------------------
     A1        18      18       0       0       0       0
     A2         3       3       0       0       0       0
     B1         8       8       0       0       0       0
     B2         8       8       0       0       0       0
   -------------------------------------------------------
    Total      37      37      11      11      11       0
   -------------------------------------------------------

  ==> Integral Setup <==

  ==> DiskDFJK: Density-Fitted J/K Matrices <==

    J tasked:                  Yes
    K tasked:                  Yes
    wK tasked:                 Yes
    Omega:               3.000E-01
    OpenMP threads:             24
    Integrals threads:          24
    Memory [MiB]:           102951
    Algorithm:                Core
    Integral Cache:           NONE
    Schwarz Cutoff:          1E-12
    Fitting Condition:       1E-10

   => Auxiliary Basis Set <=

  Basis Set: (CC-PV(D+D)Z AUX)
    Blend: CC-PVDZ-JKFIT
    Number of shells: 60
    Number of basis function: 182
    Number of Cartesian functions: 211
    Spherical Harmonics?: true
    Max angular momentum: 3

  Cached 100.0% of DFT collocation blocks in 0.044 [GiB].

  Minimum eigenvalue in the overlap matrix is 1.0129749977E-02.
  Using Symmetric Orthogonalization.

  SCF Guess: Superposition of Atomic Densities via on-the-fly atomic UHF.

  ==> Iterations <==

                           Total Energy        Delta E     RMS |[F,P]|

   @DF-RKS iter SAD:  -435.58490756630903   -4.35585e+02   0.00000e+00 
   @DF-RKS iter   1:  -436.12046090325009   -5.35553e-01   9.21500e-03 DIIS
   @DF-RKS iter   2:  -436.11545039380798    5.01051e-03   1.08376e-02 DIIS
   @DF-RKS iter   3:  -436.14565065050527   -3.02003e-02   7.29781e-04 DIIS
   @DF-RKS iter   4:  -436.14583778429500   -1.87134e-04   2.67686e-04 DIIS
   @DF-RKS iter   5:  -436.14586646353047   -2.86792e-05   6.40709e-05 DIIS
   @DF-RKS iter   6:  -436.14586830371752   -1.84019e-06   2.07484e-05 DIIS
   @DF-RKS iter   7:  -436.14586852636899   -2.22651e-07   2.99635e-06 DIIS
   @DF-RKS iter   8:  -436.14586853376147   -7.39249e-09   3.54041e-07 DIIS
   @DF-RKS iter   9:  -436.14586853385617   -9.47011e-11   5.38513e-08 DIIS
   @DF-RKS iter  10:  -436.14586853385759   -1.42109e-12   6.32320e-09 DIIS
  Energy and wave function converged.


  ==> Post-Iterations <==

    Orbital Energies [Eh]
    ---------------------

    Doubly Occupied:                                                      

       1A1   -88.918333     2A1   -10.383835     3A1    -8.090614  
       1B1    -6.042307     1B2    -6.042307     4A1    -6.042225  
       5A1    -0.965206     6A1    -0.633521     2B1    -0.452395  
       2B2    -0.452395     7A1    -0.415584  

    Virtual:                                                              

       3B1     0.008851     3B2     0.008851     8A1     0.202875  
       9A1     0.472046     4B1     0.535440     4B2     0.535440  
      10A1     0.580098    11A1     0.594896     1A2     0.594897  
      12A1     0.635932     5B1     0.642474     5B2     0.642474  
       6B1     0.679007     6B2     0.679007    13A1     0.982039  
      14A1     1.155736    15A1     1.276185     2A2     1.276186  
       7B2     1.552363     7B1     1.552363    16A1     1.947833  
      17A1     4.485552     3A2     4.485557     8B1     4.587379  
       8B2     4.587379    18A1     4.714406  

    Final Occupation by Irrep:
             A1    A2    B1    B2 
    DOCC [     7,    0,    2,    2 ]

  @DF-RKS Final Energy:  -436.14586853385759

   => Energetics <=

    Nuclear Repulsion Energy =             32.9740272363022413
    One-Electron Energy =                -665.6748819164888573
    Two-Electron Energy =                 219.5267990661961335
    DFT Exchange-Correlation Energy =     -23.0639511328164240
    Empirical Dispersion Energy =           0.0000000000000000
    VV10 Nonlocal Energy =                  0.0921382129492814
    Total Energy =                       -436.1458685338575947

Computation Completed


Properties will be evaluated at   0.000000,   0.000000,   0.000000 [a0]

Properties computed using the SCF density matrix

  Nuclear Dipole Moment: [e a0]
     X:     0.0000      Y:     0.0000      Z:     0.0111

  Electronic Dipole Moment: [e a0]
     X:     0.0000      Y:     0.0000      Z:     0.6769

  Dipole Moment: [e a0]
     X:     0.0000      Y:     0.0000      Z:     0.6880     Total:     0.6880

  Dipole Moment: [D]
     X:     0.0000      Y:     0.0000      Z:     1.7488     Total:     1.7488


*** tstop() called on bp1-compute00115.data.bp.acrc.priv at Tue Apr 27 18:04:58 2021
Module time:
	user time   =      42.04 seconds =       0.70 minutes
	system time =       1.43 seconds =       0.02 minutes
	total time  =          1 seconds =       0.02 minutes
Total time:
	user time   =     130.24 seconds =       2.17 minutes
	system time =       4.98 seconds =       0.08 minutes
	total time  =          5 seconds =       0.08 minutes

         ----------------------------------------------------------
                                   FINDIF
                     R. A. King and Jonathon Misiewicz
         ---------------------------------------------------------

  Computing gradient from energies.
    Using 3-point formula.
    Energy without displacement: -436.1458546806
    Check energies below for precision!
    Forces are for mass-weighted, symmetry-adapted cartesians (in au).

     Coord      Energy(-1)        Energy(+1)            Force
        0   -436.1458391098   -436.1458685339     -0.0029424020


-------------------------------------------------------------
  ## New Matrix (Symmetry 0) ##
  Irrep: 1 Size: 2 x 3

                 1                   2                   3

    1     0.00000000000000     0.00000000000000    -0.00869139638446
    2     0.00000000000000     0.00000000000000     0.00869139638446




			-----------------------------------------
			 OPTKING 2.0: for geometry optimizations 
			  - R.A. King,  Bethel University        
			-----------------------------------------
	At level 1: Red. Int., RFO, no backsteps, dynamic trust

	Internal coordinates to be generated automatically.
	Detected frag 1 with atoms:  1 2
	---Fragment 1 Bond Connectivity---
	 1 : 2
	 2 : 1

	---Fragment 1 Geometry and Gradient---
	 C           0.0000000000        0.0000000000       -2.1180954132
	 S           0.0000000000        0.0000000000        0.7949796189
	             0.0000000000        0.0000000000       -0.0086913964
	             0.0000000000        0.0000000000        0.0086913964

	Previous optimization step data not found.  Starting new optimization.

	---Fragment 1 Intrafragment Coordinates---
	 - Coordinate -           - BOHR/RAD -       - ANG/DEG -
	 R(1,2)           =         2.913075	       1.541533

	Current energy   :      -436.1458546806

	Generating empirical Hessian (Schlegel '84) for each fragment.
	Taking RFO optimization step.
	Going to follow RFO solution 1.
	Using RFO vector 1.
	Norm of target step-size    0.01349
	Projected energy change by RFO approximation:        -0.0000262519

	Back-transformation to cartesian coordinates...
	Successfully converged to displaced geometry.

	--- Internal Coordinate Step in ANG or DEG, aJ/ANG or AJ/DEG ---
	 ---------------------------------------------------------------------------
	   Coordinate                Previous        Force       Change         New 
	   ----------                --------       ------       ------       ------
	    1 R(1,2)          =      1.541533    -0.071606    -0.007139     1.534394
	 ---------------------------------------------------------------------------
	Successfully symmetrized geometry.

  ==> Convergence Check <==

  Measures of convergence in internal coordinates in au.
  Criteria marked as inactive (o), active & met (*), and active & unmet ( ).
  --------------------------------------------------------------------------------------------- ~
   Step     Total Energy     Delta E     MAX Force     RMS Force      MAX Disp      RMS Disp    ~
  --------------------------------------------------------------------------------------------- ~
    Convergence Criteria    1.00e-06 *    3.00e-04 *             o    1.20e-03 *             o  ~
  --------------------------------------------------------------------------------------------- ~
      1    -436.14585468   -4.36e+02      8.69e-03      8.69e-03 o    1.35e-02      1.35e-02 o  ~
  ---------------------------------------------------------------------------------------------

	Writing optimization data to binary file.
	Structure for next step:
	Cartesian Geometry (in Angstrom)
	    C     0.0000000000   0.0000000000  -1.1172785087
	    S     0.0000000000   0.0000000000   0.4171157860
			--------------------------
			 OPTKING Finished Execution 
			--------------------------

    Structure for next step:
    Molecular point group: c2v
    Full point group: C_inf_v

    Geometry (in Angstrom), charge = 0, multiplicity = 1:

    C            0.000000000000     0.000000000000    -1.115657336136
    S            0.000000000000     0.000000000000     0.418736964540

gradient() will perform gradient computation by finite difference of analytic energies.

         ----------------------------------------------------------
                                   FINDIF
                     R. A. King and Jonathon Misiewicz
         ---------------------------------------------------------

  Using finite-differences of energies to determine gradients.
    Generating geometries for use with 3-point formula.
    Displacement size will be 5.00e-03.
    Number of atoms is 2.
    Number of symmetric SALCs is 1.
    Translations projected? 1. Rotations projected? 1.
    Number of geometries (including reference) is 3.

  //>>>>>>>>>>>>>>>>>>>>>>>>>>>>>>>>>>>//
  //    Loading displacement 1 of 3    //
  //<<<<<<<<<<<<<<<<<<<<<<<<<<<<<<<<<<<//

*** tstart() called on bp1-compute00115.data.bp.acrc.priv
*** at Tue Apr 27 18:04:58 2021

   => Loading Basis Set <=

    Name: CC-PV(D+D)Z
    Role: ORBITAL
    Keyword: BASIS
    atoms 1 entry C          line   147 file /work/zw18965/.conda/envs/p4env/share/psi4/basis/cc-pv_dpd_z.gbs 
    atoms 2 entry S          line   613 file /work/zw18965/.conda/envs/p4env/share/psi4/basis/cc-pv_dpd_z.gbs 


         ---------------------------------------------------------
                                   SCF
               by Justin Turney, Rob Parrish, Andy Simmonett
                          and Daniel G. A. Smith
                              RKS Reference
                       24 Threads, 137329 MiB Core
         ---------------------------------------------------------

  ==> Geometry <==

    Molecular point group: c2v
    Full point group: C_inf_v

    Geometry (in Angstrom), charge = 0, multiplicity = 1:

       Center              X                  Y                   Z               Mass       
    ------------   -----------------  -----------------  -----------------  -----------------
         C            0.000000000000     0.000000000000    -1.115657336136    12.000000000000
         S            0.000000000000     0.000000000000     0.418736964540    31.972071174400

  Running in c2v symmetry.

  Rotational constants: A = ************  B =      0.82063  C =      0.82063 [cm^-1]
  Rotational constants: A = ************  B =  24601.87180  C =  24601.87180 [MHz]
  Nuclear repulsion =   33.108186208677054

  Charge       = 0
  Multiplicity = 1
  Electrons    = 22
  Nalpha       = 11
  Nbeta        = 11

  ==> Algorithm <==

  SCF Algorithm Type is DF.
  DIIS enabled.
  MOM disabled.
  Fractional occupation disabled.
  Guess Type is READ.
  Energy threshold   = 1.00e-08
  Density threshold  = 1.00e-08
  Integral threshold = 0.00e+00

  ==> Primary Basis <==

  Basis Set: CC-PV(D+D)Z
    Blend: CC-PV(D+D)Z
    Number of shells: 15
    Number of basis function: 37
    Number of Cartesian functions: 40
    Spherical Harmonics?: true
    Max angular momentum: 2

  ==> DFT Potential <==

   => Composite Functional: WB97X-V <= 

    wB97X-V Hyb-GGA Exchange-Correlation Functional

    N. Mardirossian and M. Head-Gordon, Phys. Chem. Chem. Phys. 16, 9904 (2014)

    Deriv               =              1
    GGA                 =           TRUE
    Meta                =          FALSE

    Exchange Hybrid     =           TRUE
    MP2 Hybrid          =          FALSE

   => Exchange-Correlation Functionals <=

    1.0000   wB97X-V range-separated functional

   => Exact (HF) Exchange <=

    0.8330            HF,LR [omega = 0.3000]
    0.1670               HF 

   => VV10 Non-Local Parameters <=

    VV10 B              =     6.0000E+00
    VV10 C              =     1.0000E-02

   => Molecular Quadrature <=

    Radial Scheme          =       TREUTLER
    Pruning Scheme         =           FLAT
    Nuclear Scheme         =       TREUTLER

    BS radius alpha        =              1
    Pruning alpha          =              1
    Radial Points          =             75
    Spherical Points       =            302
    Total Points           =          42258
    Total Blocks           =            379
    Max Points             =            256
    Max Functions          =             37

   => Loading Basis Set <=

    Name: (CC-PV(D+D)Z AUX)
    Role: JKFIT
    Keyword: DF_BASIS_SCF
    atoms 1 entry C          line   121 file /work/zw18965/.conda/envs/p4env/share/psi4/basis/cc-pvdz-jkfit.gbs 
    atoms 2 entry S          line   593 file /work/zw18965/.conda/envs/p4env/share/psi4/basis/cc-pvdz-jkfit.gbs 

   => Loading Basis Set <=

    Name: CC-PV(D+D)Z
    Role: ORBITAL
    Keyword: BASIS
    atoms 1 entry C          line   147 file /work/zw18965/.conda/envs/p4env/share/psi4/basis/cc-pv_dpd_z.gbs 
    atoms 2 entry S          line   613 file /work/zw18965/.conda/envs/p4env/share/psi4/basis/cc-pv_dpd_z.gbs 

  Reading orbitals from file 180, no projection.

  ==> Pre-Iterations <==

   -------------------------------------------------------
    Irrep   Nso     Nmo     Nalpha   Nbeta   Ndocc  Nsocc
   -------------------------------------------------------
     A1        18      18       0       0       0       0
     A2         3       3       0       0       0       0
     B1         8       8       0       0       0       0
     B2         8       8       0       0       0       0
   -------------------------------------------------------
    Total      37      37      11      11      11       0
   -------------------------------------------------------

  ==> Integral Setup <==

  ==> DiskDFJK: Density-Fitted J/K Matrices <==

    J tasked:                  Yes
    K tasked:                  Yes
    wK tasked:                 Yes
    Omega:               3.000E-01
    OpenMP threads:             24
    Integrals threads:          24
    Memory [MiB]:           102951
    Algorithm:                Core
    Integral Cache:           NONE
    Schwarz Cutoff:          1E-12
    Fitting Condition:       1E-10

   => Auxiliary Basis Set <=

  Basis Set: (CC-PV(D+D)Z AUX)
    Blend: CC-PVDZ-JKFIT
    Number of shells: 60
    Number of basis function: 182
    Number of Cartesian functions: 211
    Spherical Harmonics?: true
    Max angular momentum: 3

  Cached 100.0% of DFT collocation blocks in 0.044 [GiB].

  Minimum eigenvalue in the overlap matrix is 9.9736009486E-03.
  Using Symmetric Orthogonalization.

  SCF Guess: Orbitals guess was supplied from a previous computation.

  ==> Iterations <==

                           Total Energy        Delta E     RMS |[F,P]|

   @DF-RKS iter   0:  -436.15187151094864   -4.36152e+02   1.00709e-03 
   @DF-RKS iter   1:  -436.14590919237571    5.96232e-03   1.62490e-04 DIIS
   @DF-RKS iter   2:  -436.14591269613152   -3.50376e-06   1.27183e-04 DIIS
   @DF-RKS iter   3:  -436.14591628763617   -3.59150e-06   4.09363e-05 DIIS
   @DF-RKS iter   4:  -436.14591669110217   -4.03466e-07   3.21084e-06 DIIS
   @DF-RKS iter   5:  -436.14591669564726   -4.54509e-09   5.99848e-07 DIIS
   @DF-RKS iter   6:  -436.14591669589453   -2.47269e-10   8.34860e-08 DIIS
   @DF-RKS iter   7:  -436.14591669590067   -6.13909e-12   3.33206e-08 DIIS
   @DF-RKS iter   8:  -436.14591669590141   -7.38964e-13   6.49698e-09 DIIS
  Energy and wave function converged.


  ==> Post-Iterations <==

    Orbital Energies [Eh]
    ---------------------

    Doubly Occupied:                                                      

       1A1   -88.917883     2A1   -10.381963     3A1    -8.090536  
       1B2    -6.042202     1B1    -6.042202     4A1    -6.042116  
       5A1    -0.966934     6A1    -0.633135     2B1    -0.453424  
       2B2    -0.453424     7A1    -0.414941  

    Virtual:                                                              

       3B2     0.009931     3B1     0.009931     8A1     0.204068  
       9A1     0.471308     4B2     0.534561     4B1     0.534561  
      10A1     0.580338    11A1     0.594302     1A2     0.594302  
      12A1     0.637895     5B2     0.643973     5B1     0.643973  
       6B2     0.679804     6B1     0.679804    13A1     0.984078  
      14A1     1.162142    15A1     1.277230     2A2     1.277231  
       7B2     1.556523     7B1     1.556523    16A1     1.951158  
      17A1     4.485594     3A2     4.485598     8B2     4.587958  
       8B1     4.587958    18A1     4.714881  

    Final Occupation by Irrep:
             A1    A2    B1    B2 
    DOCC [     7,    0,    2,    2 ]

  @DF-RKS Final Energy:  -436.14591669590141

   => Energetics <=

    Nuclear Repulsion Energy =             33.1081862086770542
    One-Electron Energy =                -665.9411432033092524
    Two-Electron Energy =                 219.6621724534372504
    DFT Exchange-Correlation Energy =     -23.0672687457828580
    Empirical Dispersion Energy =           0.0000000000000000
    VV10 Nonlocal Energy =                  0.0921365910764748
    Total Energy =                       -436.1459166959013487

Computation Completed


Properties will be evaluated at   0.000000,   0.000000,   0.000000 [a0]

Properties computed using the SCF density matrix

  Nuclear Dipole Moment: [e a0]
     X:     0.0000      Y:     0.0000      Z:     0.0111

  Electronic Dipole Moment: [e a0]
     X:     0.0000      Y:     0.0000      Z:     0.6879

  Dipole Moment: [e a0]
     X:     0.0000      Y:     0.0000      Z:     0.6990     Total:     0.6990

  Dipole Moment: [D]
     X:     0.0000      Y:     0.0000      Z:     1.7766     Total:     1.7766


*** tstop() called on bp1-compute00115.data.bp.acrc.priv at Tue Apr 27 18:05:00 2021
Module time:
	user time   =      30.14 seconds =       0.50 minutes
	system time =       0.96 seconds =       0.02 minutes
	total time  =          2 seconds =       0.03 minutes
Total time:
	user time   =     160.75 seconds =       2.68 minutes
	system time =       5.96 seconds =       0.10 minutes
	total time  =          7 seconds =       0.12 minutes

  //>>>>>>>>>>>>>>>>>>>>>>>>>>>>>>>>>>>//
  //    Loading displacement 2 of 3    //
  //<<<<<<<<<<<<<<<<<<<<<<<<<<<<<<<<<<<//

*** tstart() called on bp1-compute00115.data.bp.acrc.priv
*** at Tue Apr 27 18:05:00 2021

   => Loading Basis Set <=

    Name: CC-PV(D+D)Z
    Role: ORBITAL
    Keyword: BASIS
    atoms 1 entry C          line   147 file /work/zw18965/.conda/envs/p4env/share/psi4/basis/cc-pv_dpd_z.gbs 
    atoms 2 entry S          line   613 file /work/zw18965/.conda/envs/p4env/share/psi4/basis/cc-pv_dpd_z.gbs 


         ---------------------------------------------------------
                                   SCF
               by Justin Turney, Rob Parrish, Andy Simmonett
                          and Daniel G. A. Smith
                              RKS Reference
                       24 Threads, 137329 MiB Core
         ---------------------------------------------------------

  ==> Geometry <==

    Molecular point group: c2v
    Full point group: C_inf_v

    Geometry (in Angstrom), charge = 0, multiplicity = 1:

       Center              X                  Y                   Z               Mass       
    ------------   -----------------  -----------------  -----------------  -----------------
         C            0.000000000000     0.000000000000    -1.116308630678    12.000000000000
         S            0.000000000000     0.000000000000     0.418981413342    31.972071174400

  Running in c2v symmetry.

  Rotational constants: A = ************  B =      0.81967  C =      0.81967 [cm^-1]
  Rotational constants: A = ************  B =  24573.17294  C =  24573.17294 [MHz]
  Nuclear repulsion =   33.088869703930236

  Charge       = 0
  Multiplicity = 1
  Electrons    = 22
  Nalpha       = 11
  Nbeta        = 11

  ==> Algorithm <==

  SCF Algorithm Type is DF.
  DIIS enabled.
  MOM disabled.
  Fractional occupation disabled.
  Guess Type is READ.
  Energy threshold   = 1.00e-08
  Density threshold  = 1.00e-08
  Integral threshold = 0.00e+00

  ==> Primary Basis <==

  Basis Set: CC-PV(D+D)Z
    Blend: CC-PV(D+D)Z
    Number of shells: 15
    Number of basis function: 37
    Number of Cartesian functions: 40
    Spherical Harmonics?: true
    Max angular momentum: 2

  ==> DFT Potential <==

   => Composite Functional: WB97X-V <= 

    wB97X-V Hyb-GGA Exchange-Correlation Functional

    N. Mardirossian and M. Head-Gordon, Phys. Chem. Chem. Phys. 16, 9904 (2014)

    Deriv               =              1
    GGA                 =           TRUE
    Meta                =          FALSE

    Exchange Hybrid     =           TRUE
    MP2 Hybrid          =          FALSE

   => Exchange-Correlation Functionals <=

    1.0000   wB97X-V range-separated functional

   => Exact (HF) Exchange <=

    0.8330            HF,LR [omega = 0.3000]
    0.1670               HF 

   => VV10 Non-Local Parameters <=

    VV10 B              =     6.0000E+00
    VV10 C              =     1.0000E-02

   => Molecular Quadrature <=

    Radial Scheme          =       TREUTLER
    Pruning Scheme         =           FLAT
    Nuclear Scheme         =       TREUTLER

    BS radius alpha        =              1
    Pruning alpha          =              1
    Radial Points          =             75
    Spherical Points       =            302
    Total Points           =          42258
    Total Blocks           =            379
    Max Points             =            256
    Max Functions          =             37

   => Loading Basis Set <=

    Name: (CC-PV(D+D)Z AUX)
    Role: JKFIT
    Keyword: DF_BASIS_SCF
    atoms 1 entry C          line   121 file /work/zw18965/.conda/envs/p4env/share/psi4/basis/cc-pvdz-jkfit.gbs 
    atoms 2 entry S          line   593 file /work/zw18965/.conda/envs/p4env/share/psi4/basis/cc-pvdz-jkfit.gbs 

   => Loading Basis Set <=

    Name: CC-PV(D+D)Z
    Role: ORBITAL
    Keyword: BASIS
    atoms 1 entry C          line   147 file /work/zw18965/.conda/envs/p4env/share/psi4/basis/cc-pv_dpd_z.gbs 
    atoms 2 entry S          line   613 file /work/zw18965/.conda/envs/p4env/share/psi4/basis/cc-pv_dpd_z.gbs 

  Reading orbitals from file 180, no projection.

  ==> Pre-Iterations <==

   -------------------------------------------------------
    Irrep   Nso     Nmo     Nalpha   Nbeta   Ndocc  Nsocc
   -------------------------------------------------------
     A1        18      18       0       0       0       0
     A2         3       3       0       0       0       0
     B1         8       8       0       0       0       0
     B2         8       8       0       0       0       0
   -------------------------------------------------------
    Total      37      37      11      11      11       0
   -------------------------------------------------------

  ==> Integral Setup <==

  ==> DiskDFJK: Density-Fitted J/K Matrices <==

    J tasked:                  Yes
    K tasked:                  Yes
    wK tasked:                 Yes
    Omega:               3.000E-01
    OpenMP threads:             24
    Integrals threads:          24
    Memory [MiB]:           102951
    Algorithm:                Core
    Integral Cache:           NONE
    Schwarz Cutoff:          1E-12
    Fitting Condition:       1E-10

   => Auxiliary Basis Set <=

  Basis Set: (CC-PV(D+D)Z AUX)
    Blend: CC-PVDZ-JKFIT
    Number of shells: 60
    Number of basis function: 182
    Number of Cartesian functions: 211
    Spherical Harmonics?: true
    Max angular momentum: 3

  Cached 100.0% of DFT collocation blocks in 0.044 [GiB].

  Minimum eigenvalue in the overlap matrix is 9.9958852166E-03.
  Using Symmetric Orthogonalization.

  SCF Guess: Orbitals guess was supplied from a previous computation.

  ==> Iterations <==

                           Total Energy        Delta E     RMS |[F,P]|

   @DF-RKS iter   0:  -436.14516959869479   -4.36145e+02   1.27139e-04 
   @DF-RKS iter   1:  -436.14591492515581   -7.45326e-04   2.04169e-05 DIIS
   @DF-RKS iter   2:  -436.14591497999822   -5.48424e-08   1.60444e-05 DIIS
   @DF-RKS iter   3:  -436.14591503722102   -5.72228e-08   5.14987e-06 DIIS
   @DF-RKS iter   4:  -436.14591504360891   -6.38789e-09   4.04007e-07 DIIS
   @DF-RKS iter   5:  -436.14591504368070   -7.17932e-11   7.56649e-08 DIIS
   @DF-RKS iter   6:  -436.14591504368440   -3.69482e-12   1.05726e-08 DIIS
   @DF-RKS iter   7:  -436.14591504368491   -5.11591e-13   4.23882e-09 DIIS
  Energy and wave function converged.


  ==> Post-Iterations <==

    Orbital Energies [Eh]
    ---------------------

    Doubly Occupied:                                                      

       1A1   -88.917948     2A1   -10.382232     3A1    -8.090548  
       1B1    -6.042218     1B2    -6.042218     4A1    -6.042132  
       5A1    -0.966686     6A1    -0.633190     2B1    -0.453276  
       2B2    -0.453276     7A1    -0.415034  

    Virtual:                                                              

       3B2     0.009776     3B1     0.009776     8A1     0.203898  
       9A1     0.471413     4B1     0.534687     4B2     0.534687  
      10A1     0.580304    11A1     0.594387     1A2     0.594387  
      12A1     0.637612     5B2     0.643760     5B1     0.643760  
       6B2     0.679685     6B1     0.679685    13A1     0.983788  
      14A1     1.161213    15A1     1.277080     2A2     1.277080  
       7B2     1.555924     7B1     1.555924    16A1     1.950680  
      17A1     4.485588     3A2     4.485592     8B1     4.587876  
       8B2     4.587876    18A1     4.714811  

    Final Occupation by Irrep:
             A1    A2    B1    B2 
    DOCC [     7,    0,    2,    2 ]

  @DF-RKS Final Energy:  -436.14591504368491

   => Energetics <=

    Nuclear Repulsion Energy =             33.0888697039302357
    One-Electron Energy =                -665.9028137767400040
    Two-Electron Energy =                 219.6426825366135347
    DFT Exchange-Correlation Energy =     -23.0667903289156513
    Empirical Dispersion Energy =           0.0000000000000000
    VV10 Nonlocal Energy =                  0.0921368214270277
    Total Energy =                       -436.1459150436849654

Computation Completed


Properties will be evaluated at   0.000000,   0.000000,   0.000000 [a0]

Properties computed using the SCF density matrix

  Nuclear Dipole Moment: [e a0]
     X:     0.0000      Y:     0.0000      Z:     0.0111

  Electronic Dipole Moment: [e a0]
     X:     0.0000      Y:     0.0000      Z:     0.6863

  Dipole Moment: [e a0]
     X:     0.0000      Y:     0.0000      Z:     0.6974     Total:     0.6974

  Dipole Moment: [D]
     X:     0.0000      Y:     0.0000      Z:     1.7726     Total:     1.7726


*** tstop() called on bp1-compute00115.data.bp.acrc.priv at Tue Apr 27 18:05:01 2021
Module time:
	user time   =      30.42 seconds =       0.51 minutes
	system time =       1.14 seconds =       0.02 minutes
	total time  =          1 seconds =       0.02 minutes
Total time:
	user time   =     191.29 seconds =       3.19 minutes
	system time =       7.11 seconds =       0.12 minutes
	total time  =          8 seconds =       0.13 minutes

  //>>>>>>>>>>>>>>>>>>>>>>>>>>>>>>>>>>>//
  //    Loading displacement 3 of 3    //
  //<<<<<<<<<<<<<<<<<<<<<<<<<<<<<<<<<<<//

*** tstart() called on bp1-compute00115.data.bp.acrc.priv
*** at Tue Apr 27 18:05:01 2021

   => Loading Basis Set <=

    Name: CC-PV(D+D)Z
    Role: ORBITAL
    Keyword: BASIS
    atoms 1 entry C          line   147 file /work/zw18965/.conda/envs/p4env/share/psi4/basis/cc-pv_dpd_z.gbs 
    atoms 2 entry S          line   613 file /work/zw18965/.conda/envs/p4env/share/psi4/basis/cc-pv_dpd_z.gbs 


         ---------------------------------------------------------
                                   SCF
               by Justin Turney, Rob Parrish, Andy Simmonett
                          and Daniel G. A. Smith
                              RKS Reference
                       24 Threads, 137329 MiB Core
         ---------------------------------------------------------

  ==> Geometry <==

    Molecular point group: c2v
    Full point group: C_inf_v

    Geometry (in Angstrom), charge = 0, multiplicity = 1:

       Center              X                  Y                   Z               Mass       
    ------------   -----------------  -----------------  -----------------  -----------------
         C            0.000000000000     0.000000000000    -1.115006041594    12.000000000000
         S            0.000000000000     0.000000000000     0.418492515738    31.972071174400

  Running in c2v symmetry.

  Rotational constants: A = ************  B =      0.82159  C =      0.82159 [cm^-1]
  Rotational constants: A = ************  B =  24630.62096  C =  24630.62096 [MHz]
  Nuclear repulsion =   33.127525279640778

  Charge       = 0
  Multiplicity = 1
  Electrons    = 22
  Nalpha       = 11
  Nbeta        = 11

  ==> Algorithm <==

  SCF Algorithm Type is DF.
  DIIS enabled.
  MOM disabled.
  Fractional occupation disabled.
  Guess Type is READ.
  Energy threshold   = 1.00e-08
  Density threshold  = 1.00e-08
  Integral threshold = 0.00e+00

  ==> Primary Basis <==

  Basis Set: CC-PV(D+D)Z
    Blend: CC-PV(D+D)Z
    Number of shells: 15
    Number of basis function: 37
    Number of Cartesian functions: 40
    Spherical Harmonics?: true
    Max angular momentum: 2

  ==> DFT Potential <==

   => Composite Functional: WB97X-V <= 

    wB97X-V Hyb-GGA Exchange-Correlation Functional

    N. Mardirossian and M. Head-Gordon, Phys. Chem. Chem. Phys. 16, 9904 (2014)

    Deriv               =              1
    GGA                 =           TRUE
    Meta                =          FALSE

    Exchange Hybrid     =           TRUE
    MP2 Hybrid          =          FALSE

   => Exchange-Correlation Functionals <=

    1.0000   wB97X-V range-separated functional

   => Exact (HF) Exchange <=

    0.8330            HF,LR [omega = 0.3000]
    0.1670               HF 

   => VV10 Non-Local Parameters <=

    VV10 B              =     6.0000E+00
    VV10 C              =     1.0000E-02

   => Molecular Quadrature <=

    Radial Scheme          =       TREUTLER
    Pruning Scheme         =           FLAT
    Nuclear Scheme         =       TREUTLER

    BS radius alpha        =              1
    Pruning alpha          =              1
    Radial Points          =             75
    Spherical Points       =            302
    Total Points           =          42258
    Total Blocks           =            379
    Max Points             =            256
    Max Functions          =             37

   => Loading Basis Set <=

    Name: (CC-PV(D+D)Z AUX)
    Role: JKFIT
    Keyword: DF_BASIS_SCF
    atoms 1 entry C          line   121 file /work/zw18965/.conda/envs/p4env/share/psi4/basis/cc-pvdz-jkfit.gbs 
    atoms 2 entry S          line   593 file /work/zw18965/.conda/envs/p4env/share/psi4/basis/cc-pvdz-jkfit.gbs 

   => Loading Basis Set <=

    Name: CC-PV(D+D)Z
    Role: ORBITAL
    Keyword: BASIS
    atoms 1 entry C          line   147 file /work/zw18965/.conda/envs/p4env/share/psi4/basis/cc-pv_dpd_z.gbs 
    atoms 2 entry S          line   613 file /work/zw18965/.conda/envs/p4env/share/psi4/basis/cc-pv_dpd_z.gbs 

  Reading orbitals from file 180, no projection.

  ==> Pre-Iterations <==

   -------------------------------------------------------
    Irrep   Nso     Nmo     Nalpha   Nbeta   Ndocc  Nsocc
   -------------------------------------------------------
     A1        18      18       0       0       0       0
     A2         3       3       0       0       0       0
     B1         8       8       0       0       0       0
     B2         8       8       0       0       0       0
   -------------------------------------------------------
    Total      37      37      11      11      11       0
   -------------------------------------------------------

  ==> Integral Setup <==

  ==> DiskDFJK: Density-Fitted J/K Matrices <==

    J tasked:                  Yes
    K tasked:                  Yes
    wK tasked:                 Yes
    Omega:               3.000E-01
    OpenMP threads:             24
    Integrals threads:          24
    Memory [MiB]:           102951
    Algorithm:                Core
    Integral Cache:           NONE
    Schwarz Cutoff:          1E-12
    Fitting Condition:       1E-10

   => Auxiliary Basis Set <=

  Basis Set: (CC-PV(D+D)Z AUX)
    Blend: CC-PVDZ-JKFIT
    Number of shells: 60
    Number of basis function: 182
    Number of Cartesian functions: 211
    Spherical Harmonics?: true
    Max angular momentum: 3

  Cached 100.0% of DFT collocation blocks in 0.044 [GiB].

  Minimum eigenvalue in the overlap matrix is 9.9513568606E-03.
  Using Symmetric Orthogonalization.

  SCF Guess: Orbitals guess was supplied from a previous computation.

  ==> Iterations <==

                           Total Energy        Delta E     RMS |[F,P]|

   @DF-RKS iter   0:  -436.14666281534551   -4.36147e+02   1.27447e-04 
   @DF-RKS iter   1:  -436.14591644588802    7.46369e-04   2.04019e-05 DIIS
   @DF-RKS iter   2:  -436.14591650089818   -5.50102e-08   1.60043e-05 DIIS
   @DF-RKS iter   3:  -436.14591655781788   -5.69197e-08   5.13089e-06 DIIS
   @DF-RKS iter   4:  -436.14591656415365   -6.33577e-09   4.03752e-07 DIIS
   @DF-RKS iter   5:  -436.14591656422562   -7.19638e-11   7.55890e-08 DIIS
   @DF-RKS iter   6:  -436.14591656422931   -3.69482e-12   1.05525e-08 DIIS
   @DF-RKS iter   7:  -436.14591656422948   -1.70530e-13   4.22458e-09 DIIS
  Energy and wave function converged.


  ==> Post-Iterations <==

    Orbital Energies [Eh]
    ---------------------

    Doubly Occupied:                                                      

       1A1   -88.917817     2A1   -10.381694     3A1    -8.090525  
       1B2    -6.042187     1B1    -6.042187     4A1    -6.042100  
       5A1    -0.967183     6A1    -0.633080     2B2    -0.453572  
       2B1    -0.453572     7A1    -0.414848  

    Virtual:                                                              

       3B2     0.010086     3B1     0.010086     8A1     0.204237  
       9A1     0.471202     4B2     0.534434     4B1     0.534434  
      10A1     0.580372    11A1     0.594216     1A2     0.594217  
      12A1     0.638179     5B2     0.644184     5B1     0.644184  
       6B2     0.679924     6B1     0.679924    13A1     0.984368  
      14A1     1.163074    15A1     1.277381     2A2     1.277381  
       7B2     1.557122     7B1     1.557122    16A1     1.951635  
      17A1     4.485600     3A2     4.485604     8B2     4.588039  
       8B1     4.588039    18A1     4.714950  

    Final Occupation by Irrep:
             A1    A2    B1    B2 
    DOCC [     7,    0,    2,    2 ]

  @DF-RKS Final Energy:  -436.14591656422948

   => Energetics <=

    Nuclear Repulsion Energy =             33.1275252796407784
    One-Electron Energy =                -665.9795140599575234
    Two-Electron Energy =                 219.6816838075668272
    DFT Exchange-Correlation Energy =     -23.0677479530132139
    Empirical Dispersion Energy =           0.0000000000000000
    VV10 Nonlocal Energy =                  0.0921363615337140
    Total Energy =                       -436.1459165642294238

Computation Completed


Properties will be evaluated at   0.000000,   0.000000,   0.000000 [a0]

Properties computed using the SCF density matrix

  Nuclear Dipole Moment: [e a0]
     X:     0.0000      Y:     0.0000      Z:     0.0110

  Electronic Dipole Moment: [e a0]
     X:     0.0000      Y:     0.0000      Z:     0.6895

  Dipole Moment: [e a0]
     X:     0.0000      Y:     0.0000      Z:     0.7005     Total:     0.7005

  Dipole Moment: [D]
     X:     0.0000      Y:     0.0000      Z:     1.7805     Total:     1.7805


*** tstop() called on bp1-compute00115.data.bp.acrc.priv at Tue Apr 27 18:05:02 2021
Module time:
	user time   =      29.93 seconds =       0.50 minutes
	system time =       1.03 seconds =       0.02 minutes
	total time  =          1 seconds =       0.02 minutes
Total time:
	user time   =     221.36 seconds =       3.69 minutes
	system time =       8.14 seconds =       0.14 minutes
	total time  =          9 seconds =       0.15 minutes

         ----------------------------------------------------------
                                   FINDIF
                     R. A. King and Jonathon Misiewicz
         ---------------------------------------------------------

  Computing gradient from energies.
    Using 3-point formula.
    Energy without displacement: -436.1459166959
    Check energies below for precision!
    Forces are for mass-weighted, symmetry-adapted cartesians (in au).

     Coord      Energy(-1)        Energy(+1)            Force
        0   -436.1459150437   -436.1459165642     -0.0001520545


-------------------------------------------------------------
  ## New Matrix (Symmetry 0) ##
  Irrep: 1 Size: 2 x 3

                 1                   2                   3

    1     0.00000000000000     0.00000000000000    -0.00044914513787
    2     0.00000000000000     0.00000000000000     0.00044914513787




			-----------------------------------------
			 OPTKING 2.0: for geometry optimizations 
			  - R.A. King,  Bethel University        
			-----------------------------------------
	At level 1: Red. Int., RFO, no backsteps, dynamic trust

	Previous internal coordinate definitions found.
	---Fragment 1 Geometry and Gradient---
	 C           0.0000000000        0.0000000000       -2.1082868152
	 S           0.0000000000        0.0000000000        0.7912981816
	             0.0000000000        0.0000000000       -0.0004491451
	             0.0000000000        0.0000000000        0.0004491451

	---Fragment 1 Intrafragment Coordinates---
	 - Coordinate -           - BOHR/RAD -       - ANG/DEG -
	 R(1,2)           =         2.899585	       1.534394

	Current energy   :      -436.1459166959

	Energy change for the previous step:
		Projected    :        -0.0000262519
		Actual       :        -0.0000620153
	Energy ratio indicates good step: Trust radius increased to 1.000e+00.


	Performing BFGS update.
	Previous computed or guess Hessian on step 1.
	Steps to be used in Hessian update: 1
	Taking RFO optimization step.
	Going to follow RFO solution 1.
	Using RFO vector 1.
	Norm of target step-size    0.00074
	Projected energy change by RFO approximation:        -0.0000000600

	Back-transformation to cartesian coordinates...
	Successfully converged to displaced geometry.

	--- Internal Coordinate Step in ANG or DEG, aJ/ANG or AJ/DEG ---
	 ---------------------------------------------------------------------------
	   Coordinate                Previous        Force       Change         New 
	   ----------                --------       ------       ------       ------
	    1 R(1,2)          =      1.534394    -0.003700    -0.000389     1.534005
	 ---------------------------------------------------------------------------
	Successfully symmetrized geometry.

  ==> Convergence Check <==

  Measures of convergence in internal coordinates in au.
  Criteria marked as inactive (o), active & met (*), and active & unmet ( ).
  ---------------------------------------------------------------------------------------------
   Step     Total Energy     Delta E     MAX Force     RMS Force      MAX Disp      RMS Disp   
  ---------------------------------------------------------------------------------------------
    Convergence Criteria    1.00e-06 *    3.00e-04 *             o    1.20e-03 *             o
  ---------------------------------------------------------------------------------------------
      2    -436.14591670   -6.20e-05      4.49e-04      4.49e-04 o    7.35e-04 *    7.35e-04 o  ~
  ---------------------------------------------------------------------------------------------

	Writing optimization data to binary file.
	Structure for next step:
	Cartesian Geometry (in Angstrom)
	    C     0.0000000000   0.0000000000  -1.1154628294
	    S     0.0000000000   0.0000000000   0.4185424605
			--------------------------
			 OPTKING Finished Execution 
			--------------------------

    Structure for next step:
    Molecular point group: c2v
    Full point group: C_inf_v

    Geometry (in Angstrom), charge = 0, multiplicity = 1:

    C            0.000000000000     0.000000000000    -1.115374491015
    S            0.000000000000     0.000000000000     0.418630804966

gradient() will perform gradient computation by finite difference of analytic energies.

         ----------------------------------------------------------
                                   FINDIF
                     R. A. King and Jonathon Misiewicz
         ---------------------------------------------------------

  Using finite-differences of energies to determine gradients.
    Generating geometries for use with 3-point formula.
    Displacement size will be 5.00e-03.
    Number of atoms is 2.
    Number of symmetric SALCs is 1.
    Translations projected? 1. Rotations projected? 1.
    Number of geometries (including reference) is 3.

  //>>>>>>>>>>>>>>>>>>>>>>>>>>>>>>>>>>>//
  //    Loading displacement 1 of 3    //
  //<<<<<<<<<<<<<<<<<<<<<<<<<<<<<<<<<<<//

*** tstart() called on bp1-compute00115.data.bp.acrc.priv
*** at Tue Apr 27 18:05:02 2021

   => Loading Basis Set <=

    Name: CC-PV(D+D)Z
    Role: ORBITAL
    Keyword: BASIS
    atoms 1 entry C          line   147 file /work/zw18965/.conda/envs/p4env/share/psi4/basis/cc-pv_dpd_z.gbs 
    atoms 2 entry S          line   613 file /work/zw18965/.conda/envs/p4env/share/psi4/basis/cc-pv_dpd_z.gbs 


         ---------------------------------------------------------
                                   SCF
               by Justin Turney, Rob Parrish, Andy Simmonett
                          and Daniel G. A. Smith
                              RKS Reference
                       24 Threads, 137329 MiB Core
         ---------------------------------------------------------

  ==> Geometry <==

    Molecular point group: c2v
    Full point group: C_inf_v

    Geometry (in Angstrom), charge = 0, multiplicity = 1:

       Center              X                  Y                   Z               Mass       
    ------------   -----------------  -----------------  -----------------  -----------------
         C            0.000000000000     0.000000000000    -1.115374491015    12.000000000000
         S            0.000000000000     0.000000000000     0.418630804966    31.972071174400

  Running in c2v symmetry.

  Rotational constants: A = ************  B =      0.82105  C =      0.82105 [cm^-1]
  Rotational constants: A = ************  B =  24614.35084  C =  24614.35084 [MHz]
  Nuclear repulsion =   33.116582033576449

  Charge       = 0
  Multiplicity = 1
  Electrons    = 22
  Nalpha       = 11
  Nbeta        = 11

  ==> Algorithm <==

  SCF Algorithm Type is DF.
  DIIS enabled.
  MOM disabled.
  Fractional occupation disabled.
  Guess Type is READ.
  Energy threshold   = 1.00e-08
  Density threshold  = 1.00e-08
  Integral threshold = 0.00e+00

  ==> Primary Basis <==

  Basis Set: CC-PV(D+D)Z
    Blend: CC-PV(D+D)Z
    Number of shells: 15
    Number of basis function: 37
    Number of Cartesian functions: 40
    Spherical Harmonics?: true
    Max angular momentum: 2

  ==> DFT Potential <==

   => Composite Functional: WB97X-V <= 

    wB97X-V Hyb-GGA Exchange-Correlation Functional

    N. Mardirossian and M. Head-Gordon, Phys. Chem. Chem. Phys. 16, 9904 (2014)

    Deriv               =              1
    GGA                 =           TRUE
    Meta                =          FALSE

    Exchange Hybrid     =           TRUE
    MP2 Hybrid          =          FALSE

   => Exchange-Correlation Functionals <=

    1.0000   wB97X-V range-separated functional

   => Exact (HF) Exchange <=

    0.8330            HF,LR [omega = 0.3000]
    0.1670               HF 

   => VV10 Non-Local Parameters <=

    VV10 B              =     6.0000E+00
    VV10 C              =     1.0000E-02

   => Molecular Quadrature <=

    Radial Scheme          =       TREUTLER
    Pruning Scheme         =           FLAT
    Nuclear Scheme         =       TREUTLER

    BS radius alpha        =              1
    Pruning alpha          =              1
    Radial Points          =             75
    Spherical Points       =            302
    Total Points           =          42258
    Total Blocks           =            379
    Max Points             =            256
    Max Functions          =             37

   => Loading Basis Set <=

    Name: (CC-PV(D+D)Z AUX)
    Role: JKFIT
    Keyword: DF_BASIS_SCF
    atoms 1 entry C          line   121 file /work/zw18965/.conda/envs/p4env/share/psi4/basis/cc-pvdz-jkfit.gbs 
    atoms 2 entry S          line   593 file /work/zw18965/.conda/envs/p4env/share/psi4/basis/cc-pvdz-jkfit.gbs 

   => Loading Basis Set <=

    Name: CC-PV(D+D)Z
    Role: ORBITAL
    Keyword: BASIS
    atoms 1 entry C          line   147 file /work/zw18965/.conda/envs/p4env/share/psi4/basis/cc-pv_dpd_z.gbs 
    atoms 2 entry S          line   613 file /work/zw18965/.conda/envs/p4env/share/psi4/basis/cc-pv_dpd_z.gbs 

  Reading orbitals from file 180, no projection.

  ==> Pre-Iterations <==

   -------------------------------------------------------
    Irrep   Nso     Nmo     Nalpha   Nbeta   Ndocc  Nsocc
   -------------------------------------------------------
     A1        18      18       0       0       0       0
     A2         3       3       0       0       0       0
     B1         8       8       0       0       0       0
     B2         8       8       0       0       0       0
   -------------------------------------------------------
    Total      37      37      11      11      11       0
   -------------------------------------------------------

  ==> Integral Setup <==

  ==> DiskDFJK: Density-Fitted J/K Matrices <==

    J tasked:                  Yes
    K tasked:                  Yes
    wK tasked:                 Yes
    Omega:               3.000E-01
    OpenMP threads:             24
    Integrals threads:          24
    Memory [MiB]:           102951
    Algorithm:                Core
    Integral Cache:           NONE
    Schwarz Cutoff:          1E-12
    Fitting Condition:       1E-10

   => Auxiliary Basis Set <=

  Basis Set: (CC-PV(D+D)Z AUX)
    Blend: CC-PVDZ-JKFIT
    Number of shells: 60
    Number of basis function: 182
    Number of Cartesian functions: 211
    Spherical Harmonics?: true
    Max angular momentum: 3

  Cached 100.0% of DFT collocation blocks in 0.044 [GiB].

  Minimum eigenvalue in the overlap matrix is 9.9639358220E-03.
  Using Symmetric Orthogonalization.

  SCF Guess: Orbitals guess was supplied from a previous computation.

  ==> Iterations <==

                           Total Energy        Delta E     RMS |[F,P]|

   @DF-RKS iter   0:  -436.14624084202808   -4.36146e+02   5.53102e-05 
   @DF-RKS iter   1:  -436.14591683600344    3.24006e-04   8.86222e-06 DIIS
   @DF-RKS iter   2:  -436.14591684636849   -1.03651e-08   6.95582e-06 DIIS
   @DF-RKS iter   3:  -436.14591685712185   -1.07534e-08   2.23058e-06 DIIS
   @DF-RKS iter   4:  -436.14591685831914   -1.19729e-09   1.75375e-07 DIIS
   @DF-RKS iter   5:  -436.14591685833301   -1.38698e-11   3.28353e-08 DIIS
   @DF-RKS iter   6:  -436.14591685833363   -6.25278e-13   4.58615e-09 DIIS
  Energy and wave function converged.


  ==> Post-Iterations <==

    Orbital Energies [Eh]
    ---------------------

    Doubly Occupied:                                                      

       1A1   -88.917854     2A1   -10.381846     3A1    -8.090531  
       1B2    -6.042196     1B1    -6.042196     4A1    -6.042109  
       5A1    -0.967042     6A1    -0.633111     2B1    -0.453489  
       2B2    -0.453489     7A1    -0.414900  

    Virtual:                                                              

       3B1     0.009998     3B2     0.009998     8A1     0.204142  
       9A1     0.471262     4B1     0.534506     4B2     0.534506  
      10A1     0.580353    11A1     0.594265     1A2     0.594265  
      12A1     0.638018     5B1     0.644065     5B2     0.644065  
       6B1     0.679856     6B2     0.679856    13A1     0.984204  
      14A1     1.162546    15A1     1.277296     2A2     1.277296  
       7B2     1.556783     7B1     1.556783    16A1     1.951365  
      17A1     4.485597     3A2     4.485600     8B1     4.587993  
       8B2     4.587993    18A1     4.714911  

    Final Occupation by Irrep:
             A1    A2    B1    B2 
    DOCC [     7,    0,    2,    2 ]

  @DF-RKS Final Energy:  -436.14591685833363

   => Energetics <=

    Nuclear Repulsion Energy =             33.1165820335764494
    One-Electron Energy =                -665.9578017348119374
    Two-Electron Energy =                 219.6706431246701641
    DFT Exchange-Correlation Energy =     -23.0674767731192567
    Empirical Dispersion Energy =           0.0000000000000000
    VV10 Nonlocal Energy =                  0.0921364913509368
    Total Energy =                       -436.1459168583336350

Computation Completed


Properties will be evaluated at   0.000000,   0.000000,   0.000000 [a0]

Properties computed using the SCF density matrix

  Nuclear Dipole Moment: [e a0]
     X:     0.0000      Y:     0.0000      Z:     0.0110

  Electronic Dipole Moment: [e a0]
     X:     0.0000      Y:     0.0000      Z:     0.6886

  Dipole Moment: [e a0]
     X:     0.0000      Y:     0.0000      Z:     0.6996     Total:     0.6996

  Dipole Moment: [D]
     X:     0.0000      Y:     0.0000      Z:     1.7783     Total:     1.7783


*** tstop() called on bp1-compute00115.data.bp.acrc.priv at Tue Apr 27 18:05:04 2021
Module time:
	user time   =      27.41 seconds =       0.46 minutes
	system time =       0.88 seconds =       0.01 minutes
	total time  =          2 seconds =       0.03 minutes
Total time:
	user time   =     249.06 seconds =       4.15 minutes
	system time =       9.03 seconds =       0.15 minutes
	total time  =         11 seconds =       0.18 minutes

  //>>>>>>>>>>>>>>>>>>>>>>>>>>>>>>>>>>>//
  //    Loading displacement 2 of 3    //
  //<<<<<<<<<<<<<<<<<<<<<<<<<<<<<<<<<<<//

*** tstart() called on bp1-compute00115.data.bp.acrc.priv
*** at Tue Apr 27 18:05:04 2021

   => Loading Basis Set <=

    Name: CC-PV(D+D)Z
    Role: ORBITAL
    Keyword: BASIS
    atoms 1 entry C          line   147 file /work/zw18965/.conda/envs/p4env/share/psi4/basis/cc-pv_dpd_z.gbs 
    atoms 2 entry S          line   613 file /work/zw18965/.conda/envs/p4env/share/psi4/basis/cc-pv_dpd_z.gbs 


         ---------------------------------------------------------
                                   SCF
               by Justin Turney, Rob Parrish, Andy Simmonett
                          and Daniel G. A. Smith
                              RKS Reference
                       24 Threads, 137329 MiB Core
         ---------------------------------------------------------

  ==> Geometry <==

    Molecular point group: c2v
    Full point group: C_inf_v

    Geometry (in Angstrom), charge = 0, multiplicity = 1:

       Center              X                  Y                   Z               Mass       
    ------------   -----------------  -----------------  -----------------  -----------------
         C            0.000000000000     0.000000000000    -1.116025785557    12.000000000000
         S            0.000000000000     0.000000000000     0.418875253769    31.972071174400

  Running in c2v symmetry.

  Rotational constants: A = ************  B =      0.82009  C =      0.82009 [cm^-1]
  Rotational constants: A = ************  B =  24585.63015  C =  24585.63015 [MHz]
  Nuclear repulsion =   33.097255733595354

  Charge       = 0
  Multiplicity = 1
  Electrons    = 22
  Nalpha       = 11
  Nbeta        = 11

  ==> Algorithm <==

  SCF Algorithm Type is DF.
  DIIS enabled.
  MOM disabled.
  Fractional occupation disabled.
  Guess Type is READ.
  Energy threshold   = 1.00e-08
  Density threshold  = 1.00e-08
  Integral threshold = 0.00e+00

  ==> Primary Basis <==

  Basis Set: CC-PV(D+D)Z
    Blend: CC-PV(D+D)Z
    Number of shells: 15
    Number of basis function: 37
    Number of Cartesian functions: 40
    Spherical Harmonics?: true
    Max angular momentum: 2

  ==> DFT Potential <==

   => Composite Functional: WB97X-V <= 

    wB97X-V Hyb-GGA Exchange-Correlation Functional

    N. Mardirossian and M. Head-Gordon, Phys. Chem. Chem. Phys. 16, 9904 (2014)

    Deriv               =              1
    GGA                 =           TRUE
    Meta                =          FALSE

    Exchange Hybrid     =           TRUE
    MP2 Hybrid          =          FALSE

   => Exchange-Correlation Functionals <=

    1.0000   wB97X-V range-separated functional

   => Exact (HF) Exchange <=

    0.8330            HF,LR [omega = 0.3000]
    0.1670               HF 

   => VV10 Non-Local Parameters <=

    VV10 B              =     6.0000E+00
    VV10 C              =     1.0000E-02

   => Molecular Quadrature <=

    Radial Scheme          =       TREUTLER
    Pruning Scheme         =           FLAT
    Nuclear Scheme         =       TREUTLER

    BS radius alpha        =              1
    Pruning alpha          =              1
    Radial Points          =             75
    Spherical Points       =            302
    Total Points           =          42258
    Total Blocks           =            379
    Max Points             =            256
    Max Functions          =             37

   => Loading Basis Set <=

    Name: (CC-PV(D+D)Z AUX)
    Role: JKFIT
    Keyword: DF_BASIS_SCF
    atoms 1 entry C          line   121 file /work/zw18965/.conda/envs/p4env/share/psi4/basis/cc-pvdz-jkfit.gbs 
    atoms 2 entry S          line   593 file /work/zw18965/.conda/envs/p4env/share/psi4/basis/cc-pvdz-jkfit.gbs 

   => Loading Basis Set <=

    Name: CC-PV(D+D)Z
    Role: ORBITAL
    Keyword: BASIS
    atoms 1 entry C          line   147 file /work/zw18965/.conda/envs/p4env/share/psi4/basis/cc-pv_dpd_z.gbs 
    atoms 2 entry S          line   613 file /work/zw18965/.conda/envs/p4env/share/psi4/basis/cc-pv_dpd_z.gbs 

  Reading orbitals from file 180, no projection.

  ==> Pre-Iterations <==

   -------------------------------------------------------
    Irrep   Nso     Nmo     Nalpha   Nbeta   Ndocc  Nsocc
   -------------------------------------------------------
     A1        18      18       0       0       0       0
     A2         3       3       0       0       0       0
     B1         8       8       0       0       0       0
     B2         8       8       0       0       0       0
[...]

  ==> Iterations <==

                           Total Energy        Delta E     RMS |[F,P]|

   @DF-RKS iter SAD:  -435.59366048949175   -4.35594e+02   0.00000e+00 
   @DF-RKS iter   1:  -436.11936753827939   -5.25707e-01   9.44882e-03 DIIS
   @DF-RKS iter   2:  -436.11402403666142    5.34350e-03   1.11070e-02 DIIS
   @DF-RKS iter   3:  -436.14570269589535   -3.16787e-02   7.20750e-04 DIIS
   @DF-RKS iter   4:  -436.14588548790795   -1.82792e-04   2.67238e-04 DIIS
   @DF-RKS iter   5:  -436.14591393106309   -2.84432e-05   6.40507e-05 DIIS
   @DF-RKS iter   6:  -436.14591575404052   -1.82298e-06   2.06747e-05 DIIS
   @DF-RKS iter   7:  -436.14591597253343   -2.18493e-07   2.98036e-06 DIIS
   @DF-RKS iter   8:  -436.14591597981570   -7.28227e-09   3.54081e-07 DIIS
   @DF-RKS iter   9:  -436.14591597991023   -9.45306e-11   5.35783e-08 DIIS
   @DF-RKS iter  10:  -436.14591597991182   -1.59162e-12   6.32895e-09 DIIS
   @DF-RKS iter  11:  -436.14591597991210   -2.84217e-13   4.55711e-10 DIIS
   @DF-RKS iter  12:  -436.14591597991193    1.70530e-13   5.36888e-11 DIIS
  Energy and wave function converged.


  ==> Post-Iterations <==

    Orbital Energies [Eh]
    ---------------------

    Doubly Occupied:                                                      

       1A1   -88.917920     2A1   -10.382116     3A1    -8.090543  
       1B1    -6.042211     1B2    -6.042211     4A1    -6.042125  
       5A1    -0.966794     6A1    -0.633166     2B1    -0.453340  
       2B2    -0.453340     7A1    -0.414994  

    Virtual:                                                              

       3B1     0.009843     3B2     0.009843     8A1     0.203972  
       9A1     0.471367     4B1     0.534632     4B2     0.534632  
      10A1     0.580319    11A1     0.594350     1A2     0.594350  
      12A1     0.637735     5B1     0.643852     5B2     0.643852  
       6B1     0.679737     6B2     0.679737    13A1     0.983914  
      14A1     1.161616    15A1     1.277145     2A2     1.277145  
       7B2     1.556184     7B1     1.556184    16A1     1.950888  
      17A1     4.485590     3A2     4.485594     8B1     4.587911  
       8B2     4.587911    18A1     4.714841  

    Final Occupation by Irrep:
             A1    A2    B1    B2 
    DOCC [     7,    0,    2,    2 ]

  @DF-RKS Final Energy:  -436.14591597991193

   => Energetics <=

    Nuclear Repulsion Energy =             33.0972557335953539
    One-Electron Energy =                -665.9194542184778811
    Two-Electron Energy =                 219.6511437720258755
    DFT Exchange-Correlation Energy =     -23.0669979883271523
    Empirical Dispersion Energy =           0.0000000000000000
    VV10 Nonlocal Energy =                  0.0921367212718657
    Total Energy =                       -436.1459159799119334

Computation Completed


Properties will be evaluated at   0.000000,   0.000000,   0.000000 [a0]

Properties computed using the SCF density matrix

  Nuclear Dipole Moment: [e a0]
     X:     0.0000      Y:     0.0000      Z:     0.0111

  Electronic Dipole Moment: [e a0]
     X:     0.0000      Y:     0.0000      Z:     0.6870

  Dipole Moment: [e a0]
     X:     0.0000      Y:     0.0000      Z:     0.6981     Total:     0.6981

  Dipole Moment: [D]
     X:     0.0000      Y:     0.0000      Z:     1.7743     Total:     1.7743


*** tstop() called on bp1-compute00115.data.bp.acrc.priv at Tue Apr 27 18:05:16 2021
Module time:
	user time   =      45.21 seconds =       0.75 minutes
	system time =       1.52 seconds =       0.03 minutes
	total time  =          2 seconds =       0.03 minutes
Total time:
	user time   =     526.84 seconds =       8.78 minutes
	system time =      18.74 seconds =       0.31 minutes
	total time  =         23 seconds =       0.38 minutes

  //>>>>>>>>>>>>>>>>>>>>>>>>>>>>>>>>>>>//
  //    Loading displacement 3 of 3    //
  //<<<<<<<<<<<<<<<<<<<<<<<<<<<<<<<<<<<//

*** tstart() called on bp1-compute00115.data.bp.acrc.priv
*** at Tue Apr 27 18:05:16 2021

   => Loading Basis Set <=

    Name: CC-PV(D+D)Z
    Role: ORBITAL
    Keyword: BASIS
    atoms 1 entry C          line   147 file /work/zw18965/.conda/envs/p4env/share/psi4/basis/cc-pv_dpd_z.gbs 
    atoms 2 entry S          line   613 file /work/zw18965/.conda/envs/p4env/share/psi4/basis/cc-pv_dpd_z.gbs 


         ---------------------------------------------------------
                                   SCF
               by Justin Turney, Rob Parrish, Andy Simmonett
                          and Daniel G. A. Smith
                              RKS Reference
                       24 Threads, 137329 MiB Core
         ---------------------------------------------------------

  ==> Geometry <==

    Molecular point group: c2v
    Full point group: C_inf_v

    Geometry (in Angstrom), charge = 0, multiplicity = 1:

       Center              X                  Y                   Z               Mass       
    ------------   -----------------  -----------------  -----------------  -----------------
         C            0.000000000000     0.000000000000    -1.114723196474    12.000000000000
         S            0.000000000000     0.000000000000     0.418386356164    31.972071174400

  Running in c2v symmetry.

  Rotational constants: A = ************  B =      0.82201  C =      0.82201 [cm^-1]
  Rotational constants: A = ************  B =  24643.12188  C =  24643.12188 [MHz]
  Nuclear repulsion =   33.135930916946378

  Charge       = 0
  Multiplicity = 1
  Electrons    = 22
  Nalpha       = 11
  Nbeta        = 11

  ==> Algorithm <==

  SCF Algorithm Type is DF.
  DIIS enabled.
  MOM disabled.
  Fractional occupation disabled.
  Guess Type is SAD.
  Energy threshold   = 1.00e-10
  Density threshold  = 1.00e-10
  Integral threshold = 0.00e+00

  ==> Primary Basis <==

  Basis Set: CC-PV(D+D)Z
    Blend: CC-PV(D+D)Z
    Number of shells: 15
    Number of basis function: 37
    Number of Cartesian functions: 40
    Spherical Harmonics?: true
    Max angular momentum: 2

  ==> DFT Potential <==

   => Composite Functional: WB97X-V <= 

    wB97X-V Hyb-GGA Exchange-Correlation Functional

    N. Mardirossian and M. Head-Gordon, Phys. Chem. Chem. Phys. 16, 9904 (2014)

    Deriv               =              1
    GGA                 =           TRUE
    Meta                =          FALSE

    Exchange Hybrid     =           TRUE
    MP2 Hybrid          =          FALSE

   => Exchange-Correlation Functionals <=

    1.0000   wB97X-V range-separated functional

   => Exact (HF) Exchange <=

    0.8330            HF,LR [omega = 0.3000]
    0.1670               HF 

   => VV10 Non-Local Parameters <=

    VV10 B              =     6.0000E+00
    VV10 C              =     1.0000E-02

   => Molecular Quadrature <=

    Radial Scheme          =       TREUTLER
    Pruning Scheme         =           FLAT
    Nuclear Scheme         =       TREUTLER

    BS radius alpha        =              1
    Pruning alpha          =              1
    Radial Points          =             75
    Spherical Points       =            302
    Total Points           =          42258
    Total Blocks           =            379
    Max Points             =            256
    Max Functions          =             37

   => Loading Basis Set <=

    Name: (CC-PV(D+D)Z AUX)
    Role: JKFIT
    Keyword: DF_BASIS_SCF
    atoms 1 entry C          line   121 file /work/zw18965/.conda/envs/p4env/share/psi4/basis/cc-pvdz-jkfit.gbs 
    atoms 2 entry S          line   593 file /work/zw18965/.conda/envs/p4env/share/psi4/basis/cc-pvdz-jkfit.gbs 

  ==> Pre-Iterations <==

   -------------------------------------------------------
    Irrep   Nso     Nmo     Nalpha   Nbeta   Ndocc  Nsocc
   -------------------------------------------------------
     A1        18      18       0       0       0       0
     A2         3       3       0       0       0       0
     B1         8       8       0       0       0       0
     B2         8       8       0       0       0       0
   -------------------------------------------------------
    Total      37      37      11      11      11       0
   -------------------------------------------------------

  ==> Integral Setup <==

  ==> DiskDFJK: Density-Fitted J/K Matrices <==

    J tasked:                  Yes
    K tasked:                  Yes
    wK tasked:                 Yes
    Omega:               3.000E-01
    OpenMP threads:             24
    Integrals threads:          24
    Memory [MiB]:           102951
    Algorithm:                Core
    Integral Cache:           NONE
    Schwarz Cutoff:          1E-12
    Fitting Condition:       1E-10

   => Auxiliary Basis Set <=

  Basis Set: (CC-PV(D+D)Z AUX)
    Blend: CC-PVDZ-JKFIT
    Number of shells: 60
    Number of basis function: 182
    Number of Cartesian functions: 211
    Spherical Harmonics?: true
    Max angular momentum: 3

  Cached 100.0% of DFT collocation blocks in 0.044 [GiB].

  Minimum eigenvalue in the overlap matrix is 9.9417091655E-03.
  Using Symmetric Orthogonalization.

  SCF Guess: Superposition of Atomic Densities via on-the-fly atomic UHF.

  ==> Iterations <==

                           Total Energy        Delta E     RMS |[F,P]|

   @DF-RKS iter SAD:  -435.59640415269001   -4.35596e+02   0.00000e+00 
   @DF-RKS iter   1:  -436.11900521846320   -5.22601e-01   9.52220e-03 DIIS
   @DF-RKS iter   2:  -436.11356106959090    5.44415e-03   1.11905e-02 DIIS
   @DF-RKS iter   3:  -436.14570397581264   -3.21429e-02   7.18235e-04 DIIS
   @DF-RKS iter   4:  -436.14588553898795   -1.81563e-04   2.67090e-04 DIIS
   @DF-RKS iter   5:  -436.14591390702839   -2.83680e-05   6.40438e-05 DIIS
   @DF-RKS iter   6:  -436.14591572468720   -1.81766e-06   2.06505e-05 DIIS
   @DF-RKS iter   7:  -436.14591594187453   -2.17187e-07   2.97544e-06 DIIS
   @DF-RKS iter   8:  -436.14591594912258   -7.24805e-09   3.54129e-07 DIIS
   @DF-RKS iter   9:  -436.14591594921689   -9.43032e-11   5.34931e-08 DIIS
   @DF-RKS iter  10:  -436.14591594921865   -1.76215e-12   6.33093e-09 DIIS
   @DF-RKS iter  11:  -436.14591594921836    2.84217e-13   4.56285e-10 DIIS
   @DF-RKS iter  12:  -436.14591594921848   -1.13687e-13   5.35346e-11 DIIS
  Energy and wave function converged.


  ==> Post-Iterations <==

    Orbital Energies [Eh]
    ---------------------

    Doubly Occupied:                                                      

       1A1   -88.917789     2A1   -10.381577     3A1    -8.090520  
       1B2    -6.042180     1B1    -6.042180     4A1    -6.042093  
       5A1    -0.967291     6A1    -0.633056     2B2    -0.453637  
       2B1    -0.453637     7A1    -0.414807  

    Virtual:                                                              

       3B2     0.010153     3B1     0.010153     8A1     0.204310  
       9A1     0.471157     4B2     0.534379     4B1     0.534379  
      10A1     0.580387    11A1     0.594179     1A2     0.594179  
      12A1     0.638302     5B2     0.644276     5B1     0.644276  
       6B2     0.679977     6B1     0.679977    13A1     0.984493  
      14A1     1.163480    15A1     1.277447     2A2     1.277447  
       7B1     1.557382     7B2     1.557382    16A1     1.951842  
      17A1     4.485603     3A2     4.485606     8B2     4.588074  
       8B1     4.588074    18A1     4.714981  

    Final Occupation by Irrep:
             A1    A2    B1    B2 
    DOCC [     7,    0,    2,    2 ]

  @DF-RKS Final Energy:  -436.14591594921848

   => Energetics <=

    Nuclear Repulsion Energy =             33.1359309169463785
    One-Electron Energy =                -665.9961910595142172
    Two-Electron Energy =                 219.6901642630990636
    DFT Exchange-Correlation Energy =     -23.0679563318988912
    Empirical Dispersion Energy =           0.0000000000000000
    VV10 Nonlocal Energy =                  0.0921362621492224
    Total Energy =                       -436.1459159492184767

Computation Completed


Properties will be evaluated at   0.000000,   0.000000,   0.000000 [a0]

Properties computed using the SCF density matrix

  Nuclear Dipole Moment: [e a0]
     X:     0.0000      Y:     0.0000      Z:     0.0110

  Electronic Dipole Moment: [e a0]
     X:     0.0000      Y:     0.0000      Z:     0.6902

  Dipole Moment: [e a0]
     X:     0.0000      Y:     0.0000      Z:     0.7012     Total:     0.7012

  Dipole Moment: [D]
     X:     0.0000      Y:     0.0000      Z:     1.7823     Total:     1.7823


*** tstop() called on bp1-compute00115.data.bp.acrc.priv at Tue Apr 27 18:05:18 2021
Module time:
	user time   =      43.98 seconds =       0.73 minutes
	system time =       1.50 seconds =       0.03 minutes
	total time  =          2 seconds =       0.03 minutes
Total time:
	user time   =     570.95 seconds =       9.52 minutes
	system time =      20.24 seconds =       0.34 minutes
	total time  =         25 seconds =       0.42 minutes

         ----------------------------------------------------------
                                   FINDIF
                     R. A. King and Jonathon Misiewicz
         ---------------------------------------------------------

  Computing second-derivative from energies using projected, 
  symmetry-adapted, cartesian coordinates.

  3 energies passed in, including the reference geometry.
    Using 3-point formula.
    Energy without displacement: -436.1459168583
    Check energies below for precision!
    0: -1 :      -436.1459159799
    0: 1  :      -436.1459159492

-------------------------------------------------------------


  ==> Harmonic Vibrational Analysis <==

  non-mass-weighted Hessian:       Symmetric? True   Hermitian? True   Lin Dep Dim?  5 (0)
  projection of translations (True) and rotations (True) removed 5 degrees of freedom (5)
  total projector:                 Symmetric? True   Hermitian? True   Lin Dep Dim?  5 (5)
  mass-weighted Hessian:           Symmetric? True   Hermitian? True   Lin Dep Dim?  5 (0)
  pre-proj  low-frequency mode:    0.0000  [cm^-1]
  pre-proj  low-frequency mode:    0.0000  [cm^-1]
  pre-proj  low-frequency mode:    0.0000  [cm^-1]
  pre-proj  low-frequency mode:    0.0000  [cm^-1]
  pre-proj  low-frequency mode:    0.0000  [cm^-1]
  pre-proj  all modes:['0.0000' '0.0000' '0.0000' '0.0000' '0.0000' '1374.5540']
  projected mass-weighted Hessian: Symmetric? True   Hermitian? True   Lin Dep Dim?  5 (5)
  post-proj low-frequency mode:    0.0000  [cm^-1] (TR)
  post-proj low-frequency mode:    0.0000  [cm^-1] (TR)
  post-proj low-frequency mode:    0.0000  [cm^-1] (TR)
  post-proj low-frequency mode:    0.0000  [cm^-1] (TR)
  post-proj low-frequency mode:    0.0000  [cm^-1] (TR)
  post-proj  all modes:['0.0000' '0.0000' '0.0000' '0.0000' '0.0000' '1374.5540']

  Vibration                       6           
  Freq [cm^-1]                1374.5540       
  Irrep                           A1          
  Reduced mass [u]             14.4661        
  Force const [mDyne/A]        16.1037        
  Turning point v=0 [a0]        0.0778        
  RMS dev v=0 [a0 u^1/2]        0.2093        
  Char temp [K]               1977.6771       
  ----------------------------------------------------------------------------------
      1   C                0.00  0.00  0.94   
      2   S                0.00  0.00 -0.35   

  ==> Thermochemistry Components <==

  Entropy, S
    Electronic S            0.000 [cal/(mol K)]        0.000 [J/(mol K)]       0.00000000 [mEh/K] (multiplicity = 1)
    Translational S        37.269 [cal/(mol K)]      155.933 [J/(mol K)]       0.05939180 [mEh/K] (mol. weight = 43.9721 [u], P = 101325.00 [Pa])
    Rotational S           12.978 [cal/(mol K)]       54.302 [J/(mol K)]       0.02068237 [mEh/K] (symmetry no. = 1)
    Vibrational S           0.020 [cal/(mol K)]        0.084 [J/(mol K)]       0.00003185 [mEh/K]
  Total S                  50.267 [cal/(mol K)]      210.318 [J/(mol K)]       0.08010602 [mEh/K]
  Correction S              0.000 [cal/(mol K)]        0.000 [J/(mol K)]       0.00000000 [mEh/K]

  Constant volume heat capacity, Cv
    Electronic Cv           0.000 [cal/(mol K)]        0.000 [J/(mol K)]       0.00000000 [mEh/K]
    Translational Cv        2.981 [cal/(mol K)]       12.472 [J/(mol K)]       0.00475022 [mEh/K]
    Rotational Cv           1.987 [cal/(mol K)]        8.314 [J/(mol K)]       0.00316681 [mEh/K]
    Vibrational Cv          0.115 [cal/(mol K)]        0.483 [J/(mol K)]       0.00018385 [mEh/K]
  Total Cv                  5.083 [cal/(mol K)]       21.269 [J/(mol K)]       0.00810088 [mEh/K]
  Correction Cv             0.000 [cal/(mol K)]        0.000 [J/(mol K)]       0.00000000 [mEh/K]

  Constant pressure heat capacity, Cp
    Electronic Cp           0.000 [cal/(mol K)]        0.000 [J/(mol K)]       0.00000000 [mEh/K]
    Translational Cp        4.968 [cal/(mol K)]       20.786 [J/(mol K)]       0.00791703 [mEh/K]
    Rotational Cp           1.987 [cal/(mol K)]        8.314 [J/(mol K)]       0.00316681 [mEh/K]
    Vibrational Cp          0.115 [cal/(mol K)]        0.483 [J/(mol K)]       0.00018385 [mEh/K]
  Total Cp                  7.071 [cal/(mol K)]       29.583 [J/(mol K)]       0.01126769 [mEh/K]
  Correction Cp             0.000 [cal/(mol K)]        0.000 [J/(mol K)]       0.00000000 [mEh/K]

  ==> Thermochemistry Energy Analysis <==

  Raw electronic energy, E0
  Total E0, Electronic energy at well bottom at 0 [K]                 -436.14591686 [Eh]

  Zero-point energy, ZPE_vib = Sum_i nu_i / 2
    Electronic ZPE          0.000 [kcal/mol]        0.000 [kJ/mol]       0.00000000 [Eh]
    Translational ZPE       0.000 [kcal/mol]        0.000 [kJ/mol]       0.00000000 [Eh]
    Rotational ZPE          0.000 [kcal/mol]        0.000 [kJ/mol]       0.00000000 [Eh]
    Vibrational ZPE         1.965 [kcal/mol]        8.222 [kJ/mol]       0.00313146 [Eh]         687.277 [cm^-1]
  Correction ZPE            1.965 [kcal/mol]        8.222 [kJ/mol]       0.00313146 [Eh]         687.277 [cm^-1]
  Total ZPE, Electronic energy at 0 [K]                               -436.14278539 [Eh]

  Thermal Energy, E (includes ZPE)
    Electronic E            0.000 [kcal/mol]        0.000 [kJ/mol]       0.00000000 [Eh]
    Translational E         0.889 [kcal/mol]        3.718 [kJ/mol]       0.00141628 [Eh]
    Rotational E            0.592 [kcal/mol]        2.479 [kJ/mol]       0.00094418 [Eh]
    Vibrational E           1.970 [kcal/mol]        8.243 [kJ/mol]       0.00313972 [Eh]
  Correction E              3.451 [kcal/mol]       14.441 [kJ/mol]       0.00550018 [Eh]
  Total E, Electronic energy at  298.15 [K]                           -436.14041668 [Eh]

  Enthalpy, H_trans = E_trans + k_B * T
    Electronic H            0.000 [kcal/mol]        0.000 [kJ/mol]       0.00000000 [Eh]
    Translational H         1.481 [kcal/mol]        6.197 [kJ/mol]       0.00236046 [Eh]
    Rotational H            0.592 [kcal/mol]        2.479 [kJ/mol]       0.00094418 [Eh]
    Vibrational H           1.970 [kcal/mol]        8.243 [kJ/mol]       0.00313972 [Eh]
  Correction H              4.044 [kcal/mol]       16.920 [kJ/mol]       0.00644436 [Eh]
  Total H, Enthalpy at  298.15 [K]                                    -436.13947250 [Eh]

  Gibbs free energy, G = H - T * S
    Electronic G            0.000 [kcal/mol]        0.000 [kJ/mol]       0.00000000 [Eh]
    Translational G        -9.631 [kcal/mol]      -40.294 [kJ/mol]      -0.01534720 [Eh]
    Rotational G           -3.277 [kcal/mol]      -13.711 [kJ/mol]      -0.00522226 [Eh]
    Vibrational G           1.964 [kcal/mol]        8.218 [kJ/mol]       0.00313022 [Eh]
  Correction G            -10.943 [kcal/mol]      -45.787 [kJ/mol]      -0.01743925 [Eh]
  Total G, Free enthalpy at  298.15 [K]                               -436.16335610 [Eh]

    Psi4 stopped on: Tuesday, 27 April 2021 06:05PM
    Psi4 wall time for execution: 0:00:25.47

*** Psi4 exiting successfully. Buy a developer a beer!
