
    -----------------------------------------------------------------------
          Psi4: An Open-Source Ab Initio Electronic Structure Package
                               Psi4 1.3.2 release

                         Git: Rev {HEAD} ecbda83 


    R. M. Parrish, L. A. Burns, D. G. A. Smith, A. C. Simmonett,
    A. E. DePrince III, E. G. Hohenstein, U. Bozkaya, A. Yu. Sokolov,
    R. Di Remigio, R. M. Richard, J. F. Gonthier, A. M. James,
    H. R. McAlexander, A. Kumar, M. Saitow, X. Wang, B. P. Pritchard,
    P. Verma, H. F. Schaefer III, K. Patkowski, R. A. King, E. F. Valeev,
    F. A. Evangelista, J. M. Turney, T. D. Crawford, and C. D. Sherrill,
    J. Chem. Theory Comput. 13(7) pp 3185--3197 (2017).
    (doi: 10.1021/acs.jctc.7b00174)


                         Additional Contributions by
    P. Kraus, H. Kruse, M. H. Lechner, M. C. Schieber, R. A. Shaw,
    A. Alenaizan, R. Galvelis, Z. L. Glick, S. Lehtola, and J. P. Misiewicz

    -----------------------------------------------------------------------


    Psi4 started on: Tuesday, 27 April 2021 06:05PM

    Process ID: 200111
    Host:       bp1-compute00115.data.bp.acrc.priv
    PSIDATADIR: /work/zw18965/.conda/envs/p4env/share/psi4
    Memory:     500.0 MiB
    Threads:    24
    
  ==> Input File <==

--------------------------------------------------------------------------
memory 144 GB

molecule {
0 1
O 0.0000000000 0.0000000000 0.0000000000
H 0.0000000000 0.0000000000 0.9579000000
H 0.9289588892 0.0000000000 -0.2336831018
}

set dynamic_level 1
set basis cc-pV(D+d)Z
 
optimize("wB97X-V")
frequencies("wB97X-V")
--------------------------------------------------------------------------

  Memory set to 134.110 GiB by Python driver.
gradient() will perform gradient computation by finite difference of analytic energies.

         ----------------------------------------------------------
                                   FINDIF
                     R. A. King and Jonathon Misiewicz
         ---------------------------------------------------------

  Using finite-differences of energies to determine gradients.
    Generating geometries for use with 3-point formula.
    Displacement size will be 5.00e-03.
    Number of atoms is 3.
    Number of symmetric SALCs is 2.
    Translations projected? 1. Rotations projected? 1.
    Number of geometries (including reference) is 5.

  //>>>>>>>>>>>>>>>>>>>>>>>>>>>>>>>>>>>//
  //    Loading displacement 1 of 5    //
  //<<<<<<<<<<<<<<<<<<<<<<<<<<<<<<<<<<<//

*** tstart() called on bp1-compute00115.data.bp.acrc.priv
*** at Tue Apr 27 18:05:24 2021

   => Loading Basis Set <=

    Name: CC-PV(D+D)Z
    Role: ORBITAL
    Keyword: BASIS
    atoms 1   entry O          line   207 file /work/zw18965/.conda/envs/p4env/share/psi4/basis/cc-pv_dpd_z.gbs 
    atoms 2-3 entry H          line    31 file /work/zw18965/.conda/envs/p4env/share/psi4/basis/cc-pv_dpd_z.gbs 


         ---------------------------------------------------------
                                   SCF
               by Justin Turney, Rob Parrish, Andy Simmonett
                          and Daniel G. A. Smith
                              RKS Reference
                       24 Threads, 137329 MiB Core
         ---------------------------------------------------------

  ==> Geometry <==

    Molecular point group: c2v
    Full point group: C2v

    Geometry (in Angstrom), charge = 0, multiplicity = 1:

       Center              X                  Y                   Z               Mass       
    ------------   -----------------  -----------------  -----------------  -----------------
         O            0.000000000000     0.000000000000    -0.065912414824    15.994914619570
         H           -0.000000000000     0.755452663361     0.523038927279     1.007825032230
         H            0.000000000000    -0.755452663361     0.523038927279     1.007825032230

  Running in c2v symmetry.

  Rotational constants: A =     27.14988  B =     14.65436  C =      9.51731 [cm^-1]
  Rotational constants: A = 813932.95770  B = 439326.65046  C = 285321.92187 [MHz]
  Nuclear repulsion =    9.189193889971767

  Charge       = 0
  Multiplicity = 1
  Electrons    = 10
  Nalpha       = 5
  Nbeta        = 5

  ==> Algorithm <==

  SCF Algorithm Type is DF.
  DIIS enabled.
  MOM disabled.
  Fractional occupation disabled.
  Guess Type is SAD.
  Energy threshold   = 1.00e-08
  Density threshold  = 1.00e-08
  Integral threshold = 0.00e+00

  ==> Primary Basis <==

  Basis Set: CC-PV(D+D)Z
    Blend: CC-PV(D+D)Z
    Number of shells: 12
    Number of basis function: 24
    Number of Cartesian functions: 25
    Spherical Harmonics?: true
    Max angular momentum: 2

  ==> DFT Potential <==

   => Composite Functional: WB97X-V <= 

    wB97X-V Hyb-GGA Exchange-Correlation Functional

    N. Mardirossian and M. Head-Gordon, Phys. Chem. Chem. Phys. 16, 9904 (2014)

    Deriv               =              1
    GGA                 =           TRUE
    Meta                =          FALSE

    Exchange Hybrid     =           TRUE
    MP2 Hybrid          =          FALSE

   => Exchange-Correlation Functionals <=

    1.0000   wB97X-V range-separated functional

   => Exact (HF) Exchange <=

    0.8330            HF,LR [omega = 0.3000]
    0.1670               HF 

   => VV10 Non-Local Parameters <=

    VV10 B              =     6.0000E+00
    VV10 C              =     1.0000E-02

   => Molecular Quadrature <=

    Radial Scheme          =       TREUTLER
    Pruning Scheme         =           FLAT
    Nuclear Scheme         =       TREUTLER

    BS radius alpha        =              1
    Pruning alpha          =              1
    Radial Points          =             75
    Spherical Points       =            302
    Total Points           =          66409
    Total Blocks           =            570
    Max Points             =            256
    Max Functions          =             24

   => Loading Basis Set <=

    Name: (CC-PV(D+D)Z AUX)
    Role: JKFIT
    Keyword: DF_BASIS_SCF
    atoms 1   entry O          line   221 file /work/zw18965/.conda/envs/p4env/share/psi4/basis/cc-pvdz-jkfit.gbs 
    atoms 2-3 entry H          line    51 file /work/zw18965/.conda/envs/p4env/share/psi4/basis/cc-pvdz-jkfit.gbs 

  ==> Pre-Iterations <==

   -------------------------------------------------------
    Irrep   Nso     Nmo     Nalpha   Nbeta   Ndocc  Nsocc
   -------------------------------------------------------
     A1        11      11       0       0       0       0
     A2         2       2       0       0       0       0
     B1         4       4       0       0       0       0
     B2         7       7       0       0       0       0
   -------------------------------------------------------
    Total      24      24       5       5       5       0
   -------------------------------------------------------

  ==> Integral Setup <==

  ==> DiskDFJK: Density-Fitted J/K Matrices <==

    J tasked:                  Yes
    K tasked:                  Yes
    wK tasked:                 Yes
    Omega:               3.000E-01
    OpenMP threads:             24
    Integrals threads:          24
    Memory [MiB]:           102951
    Algorithm:                Core
    Integral Cache:           NONE
    Schwarz Cutoff:          1E-12
    Fitting Condition:       1E-10

   => Auxiliary Basis Set <=

  Basis Set: (CC-PV(D+D)Z AUX)
    Blend: CC-PVDZ-JKFIT
    Number of shells: 42
    Number of basis function: 116
    Number of Cartesian functions: 131
    Spherical Harmonics?: true
    Max angular momentum: 3

  Cached 100.0% of DFT collocation blocks in 0.045 [GiB].

  Minimum eigenvalue in the overlap matrix is 3.4172954180E-02.
  Using Symmetric Orthogonalization.

  SCF Guess: Superposition of Atomic Densities via on-the-fly atomic UHF.

  ==> Iterations <==

                           Total Energy        Delta E     RMS |[F,P]|

   @DF-RKS iter SAD:   -75.97484266486910   -7.59748e+01   0.00000e+00 
   @DF-RKS iter   1:   -76.28375587669029   -3.08913e-01   3.86606e-02 DIIS
   @DF-RKS iter   2:   -76.30714788092281   -2.33920e-02   3.60573e-02 DIIS
   @DF-RKS iter   3:   -76.39160108832412   -8.44532e-02   1.09964e-03 DIIS
   @DF-RKS iter   4:   -76.39174062255370   -1.39534e-04   2.99240e-04 DIIS
   @DF-RKS iter   5:   -76.39175099901693   -1.03765e-05   4.13989e-05 DIIS
   @DF-RKS iter   6:   -76.39175133193442   -3.32917e-07   7.27322e-06 DIIS
   @DF-RKS iter   7:   -76.39175135237355   -2.04391e-08   1.25587e-06 DIIS
   @DF-RKS iter   8:   -76.39175135296479   -5.91243e-10   1.14564e-07 DIIS
   @DF-RKS iter   9:   -76.39175135296814   -3.35376e-12   1.17735e-08 DIIS
   @DF-RKS iter  10:   -76.39175135296820   -5.68434e-14   8.74809e-10 DIIS
  Energy and wave function converged.


  ==> Post-Iterations <==

    Orbital Energies [Eh]
    ---------------------

    Doubly Occupied:                                                      

       1A1   -19.207356     2A1    -1.121664     1B2    -0.622143  
       3A1    -0.475796     1B1    -0.398296  

    Virtual:                                                              

       4A1     0.149884     2B2     0.224240     3B2     0.669891  
       5A1     0.728131     6A1     1.024234     2B1     1.046656  
       4B2     1.114701     7A1     1.313254     1A2     1.346206  
       3B1     1.538267     8A1     1.706291     5B2     1.790016  
       6B2     2.238825     9A1     2.276937     4B1     3.037598  
       2A2     3.079604    10A1     3.249397    11A1     3.582463  
       7B2     3.857583  

    Final Occupation by Irrep:
             A1    A2    B1    B2 
    DOCC [     3,    0,    1,    1 ]

  @DF-RKS Final Energy:   -76.39175135296820

   => Energetics <=

    Nuclear Repulsion Energy =              9.1891938899717669
    One-Electron Energy =                -123.1514829816711654
    Two-Electron Energy =                  44.0822876875119718
    DFT Exchange-Correlation Energy =      -6.5544241924286961
    Empirical Dispersion Energy =           0.0000000000000000
    VV10 Nonlocal Energy =                  0.0426742436479270
    Total Energy =                        -76.3917513529681997

Computation Completed


Properties will be evaluated at   0.000000,   0.000000,   0.000000 [a0]

Properties computed using the SCF density matrix

  Nuclear Dipole Moment: [e a0]
     X:     0.0000      Y:     0.0000      Z:     0.9803

  Electronic Dipole Moment: [e a0]
     X:     0.0000      Y:     0.0000      Z:    -0.2178

  Dipole Moment: [e a0]
     X:     0.0000      Y:     0.0000      Z:     0.7626     Total:     0.7626

  Dipole Moment: [D]
     X:     0.0000      Y:     0.0000      Z:     1.9383     Total:     1.9383


*** tstop() called on bp1-compute00115.data.bp.acrc.priv at Tue Apr 27 18:05:26 2021
Module time:
	user time   =      51.66 seconds =       0.86 minutes
	system time =       1.80 seconds =       0.03 minutes
	total time  =          2 seconds =       0.03 minutes
Total time:
	user time   =      51.66 seconds =       0.86 minutes
	system time =       1.80 seconds =       0.03 minutes
	total time  =          2 seconds =       0.03 minutes

  //>>>>>>>>>>>>>>>>>>>>>>>>>>>>>>>>>>>//
  //    Loading displacement 2 of 5    //
  //<<<<<<<<<<<<<<<<<<<<<<<<<<<<<<<<<<<//

*** tstart() called on bp1-compute00115.data.bp.acrc.priv
*** at Tue Apr 27 18:05:26 2021

   => Loading Basis Set <=

    Name: CC-PV(D+D)Z
    Role: ORBITAL
    Keyword: BASIS
    atoms 1   entry O          line   207 file /work/zw18965/.conda/envs/p4env/share/psi4/basis/cc-pv_dpd_z.gbs 
    atoms 2-3 entry H          line    31 file /work/zw18965/.conda/envs/p4env/share/psi4/basis/cc-pv_dpd_z.gbs 


         ---------------------------------------------------------
                                   SCF
               by Justin Turney, Rob Parrish, Andy Simmonett
                          and Daniel G. A. Smith
                              RKS Reference
                       24 Threads, 137329 MiB Core
         ---------------------------------------------------------

  ==> Geometry <==

    Molecular point group: c2v
    Full point group: C2v

    Geometry (in Angstrom), charge = 0, multiplicity = 1:

       Center              X                  Y                   Z               Mass       
    ------------   -----------------  -----------------  -----------------  -----------------
         O            0.000000000000     0.000000000000    -0.066133736565    15.994914619570
         H           -0.000000000000     0.755452663361     0.524795195598     1.007825032230
         H            0.000000000000    -0.755452663361     0.524795195598     1.007825032230

  Running in c2v symmetry.

  Rotational constants: A =     26.96847  B =     14.65436  C =      9.49492 [cm^-1]
  Rotational constants: A = 808494.29234  B = 439326.65046  C = 284650.68760 [MHz]
  Nuclear repulsion =    9.177976870071999

  Charge       = 0
  Multiplicity = 1
  Electrons    = 10
  Nalpha       = 5
  Nbeta        = 5

  ==> Algorithm <==

  SCF Algorithm Type is DF.
  DIIS enabled.
  MOM disabled.
  Fractional occupation disabled.
  Guess Type is SAD.
  Energy threshold   = 1.00e-08
  Density threshold  = 1.00e-08
  Integral threshold = 0.00e+00

  ==> Primary Basis <==

  Basis Set: CC-PV(D+D)Z
    Blend: CC-PV(D+D)Z
    Number of shells: 12
    Number of basis function: 24
    Number of Cartesian functions: 25
    Spherical Harmonics?: true
    Max angular momentum: 2

  ==> DFT Potential <==

   => Composite Functional: WB97X-V <= 

    wB97X-V Hyb-GGA Exchange-Correlation Functional

    N. Mardirossian and M. Head-Gordon, Phys. Chem. Chem. Phys. 16, 9904 (2014)

    Deriv               =              1
    GGA                 =           TRUE
    Meta                =          FALSE

    Exchange Hybrid     =           TRUE
    MP2 Hybrid          =          FALSE

   => Exchange-Correlation Functionals <=

    1.0000   wB97X-V range-separated functional

   => Exact (HF) Exchange <=

    0.8330            HF,LR [omega = 0.3000]
    0.1670               HF 

   => VV10 Non-Local Parameters <=

    VV10 B              =     6.0000E+00
    VV10 C              =     1.0000E-02

   => Molecular Quadrature <=

    Radial Scheme          =       TREUTLER
    Pruning Scheme         =           FLAT
    Nuclear Scheme         =       TREUTLER

    BS radius alpha        =              1
    Pruning alpha          =              1
    Radial Points          =             75
    Spherical Points       =            302
    Total Points           =          66409
    Total Blocks           =            569
    Max Points             =            256
    Max Functions          =             24

   => Loading Basis Set <=

    Name: (CC-PV(D+D)Z AUX)
    Role: JKFIT
    Keyword: DF_BASIS_SCF
    atoms 1   entry O          line   221 file /work/zw18965/.conda/envs/p4env/share/psi4/basis/cc-pvdz-jkfit.gbs 
    atoms 2-3 entry H          line    51 file /work/zw18965/.conda/envs/p4env/share/psi4/basis/cc-pvdz-jkfit.gbs 

  ==> Pre-Iterations <==

   -------------------------------------------------------
    Irrep   Nso     Nmo     Nalpha   Nbeta   Ndocc  Nsocc
   -------------------------------------------------------
     A1        11      11       0       0       0       0
     A2         2       2       0       0       0       0
     B1         4       4       0       0       0       0
     B2         7       7       0       0       0       0
   -------------------------------------------------------
    Total      24      24       5       5       5       0
   -------------------------------------------------------

  ==> Integral Setup <==

  ==> DiskDFJK: Density-Fitted J/K Matrices <==

    J tasked:                  Yes
    K tasked:                  Yes
    wK tasked:                 Yes
    Omega:               3.000E-01
    OpenMP threads:             24
    Integrals threads:          24
    Memory [MiB]:           102951
    Algorithm:                Core
    Integral Cache:           NONE
    Schwarz Cutoff:          1E-12
    Fitting Condition:       1E-10

   => Auxiliary Basis Set <=

  Basis Set: (CC-PV(D+D)Z AUX)
    Blend: CC-PVDZ-JKFIT
    Number of shells: 42
    Number of basis function: 116
    Number of Cartesian functions: 131
    Spherical Harmonics?: true
    Max angular momentum: 3

  Cached 100.0% of DFT collocation blocks in 0.045 [GiB].

  Minimum eigenvalue in the overlap matrix is 3.4233128769E-02.
  Using Symmetric Orthogonalization.

  SCF Guess: Superposition of Atomic Densities via on-the-fly atomic UHF.

  ==> Iterations <==

                           Total Energy        Delta E     RMS |[F,P]|

   @DF-RKS iter SAD:   -75.97376360661556   -7.59738e+01   0.00000e+00 
   @DF-RKS iter   1:   -76.28375392062320   -3.09990e-01   3.86480e-02 DIIS
   @DF-RKS iter   2:   -76.30696274346727   -2.32088e-02   3.60960e-02 DIIS
   @DF-RKS iter   3:   -76.39164481447382   -8.46821e-02   1.10240e-03 DIIS
   @DF-RKS iter   4:   -76.39178469413680   -1.39880e-04   3.00514e-04 DIIS
   @DF-RKS iter   5:   -76.39179514165144   -1.04475e-05   4.14781e-05 DIIS
   @DF-RKS iter   6:   -76.39179547361007   -3.31959e-07   7.25152e-06 DIIS
   @DF-RKS iter   7:   -76.39179549389647   -2.02864e-08   1.26257e-06 DIIS
   @DF-RKS iter   8:   -76.39179549449383   -5.97367e-10   1.15667e-07 DIIS
   @DF-RKS iter   9:   -76.39179549449730   -3.46745e-12   1.19073e-08 DIIS
   @DF-RKS iter  10:   -76.39179549449730    0.00000e+00   8.77769e-10 DIIS
  Energy and wave function converged.


  ==> Post-Iterations <==

    Orbital Energies [Eh]
    ---------------------

    Doubly Occupied:                                                      

       1A1   -19.207644     2A1    -1.121293     1B2    -0.621341  
       3A1    -0.476062     1B1    -0.398255  

    Virtual:                                                              

       4A1     0.149580     2B2     0.223973     3B2     0.668562  
       5A1     0.727794     6A1     1.024462     2B1     1.046577  
       4B2     1.114833     7A1     1.311820     1A2     1.346506  
       3B1     1.537090     8A1     1.706094     5B2     1.789784  
       6B2     2.235783     9A1     2.274386     4B1     3.037463  
       2A2     3.077759    10A1     3.248433    11A1     3.579962  
       7B2     3.857305  

    Final Occupation by Irrep:
             A1    A2    B1    B2 
    DOCC [     3,    0,    1,    1 ]

  @DF-RKS Final Energy:   -76.39179549449730

   => Energetics <=

    Nuclear Repulsion Energy =              9.1779768700719995
    One-Electron Energy =                -123.1310431991817893
    Two-Electron Energy =                  44.0721157849570773
    DFT Exchange-Correlation Energy =      -6.5535180944721656
    Empirical Dispersion Energy =           0.0000000000000000
    VV10 Nonlocal Energy =                  0.0426731441275893
    Total Energy =                        -76.3917954944972877

Computation Completed


Properties will be evaluated at   0.000000,   0.000000,   0.000000 [a0]

Properties computed using the SCF density matrix

  Nuclear Dipole Moment: [e a0]
     X:     0.0000      Y:     0.0000      Z:     0.9836

  Electronic Dipole Moment: [e a0]
     X:     0.0000      Y:     0.0000      Z:    -0.2198

  Dipole Moment: [e a0]
     X:     0.0000      Y:     0.0000      Z:     0.7638     Total:     0.7638

  Dipole Moment: [D]
     X:     0.0000      Y:     0.0000      Z:     1.9415     Total:     1.9415


*** tstop() called on bp1-compute00115.data.bp.acrc.priv at Tue Apr 27 18:05:29 2021
Module time:
	user time   =      54.21 seconds =       0.90 minutes
	system time =       1.76 seconds =       0.03 minutes
	total time  =          3 seconds =       0.05 minutes
Total time:
	user time   =     106.03 seconds =       1.77 minutes
	system time =       3.57 seconds =       0.06 minutes
	total time  =          5 seconds =       0.08 minutes

  //>>>>>>>>>>>>>>>>>>>>>>>>>>>>>>>>>>>//
  //    Loading displacement 3 of 5    //
  //<<<<<<<<<<<<<<<<<<<<<<<<<<<<<<<<<<<//

*** tstart() called on bp1-compute00115.data.bp.acrc.priv
*** at Tue Apr 27 18:05:29 2021

   => Loading Basis Set <=

    Name: CC-PV(D+D)Z
    Role: ORBITAL
    Keyword: BASIS
    atoms 1   entry O          line   207 file /work/zw18965/.conda/envs/p4env/share/psi4/basis/cc-pv_dpd_z.gbs 
    atoms 2-3 entry H          line    31 file /work/zw18965/.conda/envs/p4env/share/psi4/basis/cc-pv_dpd_z.gbs 


         ---------------------------------------------------------
                                   SCF
               by Justin Turney, Rob Parrish, Andy Simmonett
                          and Daniel G. A. Smith
                              RKS Reference
                       24 Threads, 137329 MiB Core
         ---------------------------------------------------------

  ==> Geometry <==

    Molecular point group: c2v
    Full point group: C2v

    Geometry (in Angstrom), charge = 0, multiplicity = 1:

       Center              X                  Y                   Z               Mass       
    ------------   -----------------  -----------------  -----------------  -----------------
         O            0.000000000000     0.000000000000    -0.065691093083    15.994914619570
         H           -0.000000000000     0.755452663361     0.521282658961     1.007825032230
         H            0.000000000000    -0.755452663361     0.521282658961     1.007825032230

  Running in c2v symmetry.

  Rotational constants: A =     27.33313  B =     14.65436  C =      9.53974 [cm^-1]
  Rotational constants: A = 819426.68630  B = 439326.65046  C = 285994.06324 [MHz]
  Nuclear repulsion =    9.200415960578663

  Charge       = 0
  Multiplicity = 1
  Electrons    = 10
  Nalpha       = 5
  Nbeta        = 5

  ==> Algorithm <==

  SCF Algorithm Type is DF.
  DIIS enabled.
  MOM disabled.
  Fractional occupation disabled.
  Guess Type is SAD.
  Energy threshold   = 1.00e-08
  Density threshold  = 1.00e-08
  Integral threshold = 0.00e+00

  ==> Primary Basis <==

  Basis Set: CC-PV(D+D)Z
    Blend: CC-PV(D+D)Z
    Number of shells: 12
    Number of basis function: 24
    Number of Cartesian functions: 25
    Spherical Harmonics?: true
    Max angular momentum: 2

  ==> DFT Potential <==

   => Composite Functional: WB97X-V <= 

    wB97X-V Hyb-GGA Exchange-Correlation Functional

    N. Mardirossian and M. Head-Gordon, Phys. Chem. Chem. Phys. 16, 9904 (2014)

    Deriv               =              1
    GGA                 =           TRUE
    Meta                =          FALSE

    Exchange Hybrid     =           TRUE
    MP2 Hybrid          =          FALSE

   => Exchange-Correlation Functionals <=

    1.0000   wB97X-V range-separated functional

   => Exact (HF) Exchange <=

    0.8330            HF,LR [omega = 0.3000]
    0.1670               HF 

   => VV10 Non-Local Parameters <=

    VV10 B              =     6.0000E+00
    VV10 C              =     1.0000E-02

   => Molecular Quadrature <=

    Radial Scheme          =       TREUTLER
    Pruning Scheme         =           FLAT
    Nuclear Scheme         =       TREUTLER

    BS radius alpha        =              1
    Pruning alpha          =              1
    Radial Points          =             75
    Spherical Points       =            302
    Total Points           =          66409
    Total Blocks           =            569
    Max Points             =            256
    Max Functions          =             24

   => Loading Basis Set <=

    Name: (CC-PV(D+D)Z AUX)
    Role: JKFIT
    Keyword: DF_BASIS_SCF
    atoms 1   entry O          line   221 file /work/zw18965/.conda/envs/p4env/share/psi4/basis/cc-pvdz-jkfit.gbs 
    atoms 2-3 entry H          line    51 file /work/zw18965/.conda/envs/p4env/share/psi4/basis/cc-pvdz-jkfit.gbs 

  ==> Pre-Iterations <==

   -------------------------------------------------------
    Irrep   Nso     Nmo     Nalpha   Nbeta   Ndocc  Nsocc
   -------------------------------------------------------
     A1        11      11       0       0       0       0
     A2         2       2       0       0       0       0
     B1         4       4       0       0       0       0
     B2         7       7       0       0       0       0
   -------------------------------------------------------
    Total      24      24       5       5       5       0
   -------------------------------------------------------

  ==> Integral Setup <==

  ==> DiskDFJK: Density-Fitted J/K Matrices <==

    J tasked:                  Yes
    K tasked:                  Yes
    wK tasked:                 Yes
    Omega:               3.000E-01
    OpenMP threads:             24
    Integrals threads:          24
    Memory [MiB]:           102951
    Algorithm:                Core
    Integral Cache:           NONE
    Schwarz Cutoff:          1E-12
    Fitting Condition:       1E-10

   => Auxiliary Basis Set <=

  Basis Set: (CC-PV(D+D)Z AUX)
    Blend: CC-PVDZ-JKFIT
    Number of shells: 42
    Number of basis function: 116
    Number of Cartesian functions: 131
    Spherical Harmonics?: true
    Max angular momentum: 3

  Cached 100.0% of DFT collocation blocks in 0.045 [GiB].

  Minimum eigenvalue in the overlap matrix is 3.4113091263E-02.
  Using Symmetric Orthogonalization.

  SCF Guess: Superposition of Atomic Densities via on-the-fly atomic UHF.

  ==> Iterations <==

                           Total Energy        Delta E     RMS |[F,P]|

   @DF-RKS iter SAD:   -75.97591595139882   -7.59759e+01   0.00000e+00 
   @DF-RKS iter   1:   -76.28374966261858   -3.07834e-01   3.86734e-02 DIIS
   @DF-RKS iter   2:   -76.30732357357341   -2.35739e-02   3.60190e-02 DIIS
   @DF-RKS iter   3:   -76.39155068636386   -8.42271e-02   1.09689e-03 DIIS
   @DF-RKS iter   4:   -76.39168987601913   -1.39190e-04   2.97976e-04 DIIS
   @DF-RKS iter   5:   -76.39170018194676   -1.03059e-05   4.13203e-05 DIIS
   @DF-RKS iter   6:   -76.39170051581540   -3.33869e-07   7.29452e-06 DIIS
   @DF-RKS iter   7:   -76.39170053640510   -2.05897e-08   1.24911e-06 DIIS
   @DF-RKS iter   8:   -76.39170053699019   -5.85089e-10   1.13467e-07 DIIS
   @DF-RKS iter   9:   -76.39170053699357   -3.38218e-12   1.16402e-08 DIIS
   @DF-RKS iter  10:   -76.39170053699345    1.13687e-13   8.71839e-10 DIIS
  Energy and wave function converged.


  ==> Post-Iterations <==

    Orbital Energies [Eh]
    ---------------------

    Doubly Occupied:                                                      

       1A1   -19.207068     2A1    -1.122035     1B2    -0.622946  
       3A1    -0.475530     1B1    -0.398338  

    Virtual:                                                              

       4A1     0.150186     2B2     0.224506     3B2     0.671229  
       5A1     0.728462     6A1     1.024009     2B1     1.046732  
       4B2     1.114571     7A1     1.314688     1A2     1.345905  
       3B1     1.539449     8A1     1.706494     5B2     1.790241  
       6B2     2.241883     9A1     2.279489     4B1     3.037722  
       2A2     3.081454    10A1     3.250315    11A1     3.585009  
       7B2     3.857841  

    Final Occupation by Irrep:
             A1    A2    B1    B2 
    DOCC [     3,    0,    1,    1 ]

  @DF-RKS Final Energy:   -76.39170053699345

   => Energetics <=

    Nuclear Repulsion Energy =              9.2004159605786633
    One-Electron Energy =                -123.1719182322878083
    Two-Electron Energy =                  44.0924566950081882
    DFT Exchange-Correlation Energy =      -6.5553303026758654
    Empirical Dispersion Energy =           0.0000000000000000
    VV10 Nonlocal Energy =                  0.0426753423833553
    Total Energy =                        -76.3917005369934543

Computation Completed


Properties will be evaluated at   0.000000,   0.000000,   0.000000 [a0]

Properties computed using the SCF density matrix

  Nuclear Dipole Moment: [e a0]
     X:     0.0000      Y:     0.0000      Z:     0.9771

  Electronic Dipole Moment: [e a0]
     X:     0.0000      Y:     0.0000      Z:    -0.2157

  Dipole Moment: [e a0]
     X:     0.0000      Y:     0.0000      Z:     0.7613     Total:     0.7613

  Dipole Moment: [D]
     X:     0.0000      Y:     0.0000      Z:     1.9351     Total:     1.9351


*** tstop() called on bp1-compute00115.data.bp.acrc.priv at Tue Apr 27 18:05:31 2021
Module time:
	user time   =      50.34 seconds =       0.84 minutes
	system time =       1.63 seconds =       0.03 minutes
	total time  =          2 seconds =       0.03 minutes
Total time:
	user time   =     156.51 seconds =       2.61 minutes
	system time =       5.20 seconds =       0.09 minutes
	total time  =          7 seconds =       0.12 minutes

  //>>>>>>>>>>>>>>>>>>>>>>>>>>>>>>>>>>>//
  //    Loading displacement 4 of 5    //
  //<<<<<<<<<<<<<<<<<<<<<<<<<<<<<<<<<<<//

*** tstart() called on bp1-compute00115.data.bp.acrc.priv
*** at Tue Apr 27 18:05:31 2021

   => Loading Basis Set <=

    Name: CC-PV(D+D)Z
    Role: ORBITAL
    Keyword: BASIS
    atoms 1   entry O          line   207 file /work/zw18965/.conda/envs/p4env/share/psi4/basis/cc-pv_dpd_z.gbs 
    atoms 2-3 entry H          line    31 file /work/zw18965/.conda/envs/p4env/share/psi4/basis/cc-pv_dpd_z.gbs 


         ---------------------------------------------------------
                                   SCF
               by Justin Turney, Rob Parrish, Andy Simmonett
                          and Daniel G. A. Smith
                              RKS Reference
                       24 Threads, 137329 MiB Core
         ---------------------------------------------------------

  ==> Geometry <==

    Molecular point group: c2v
    Full point group: C2v

    Geometry (in Angstrom), charge = 0, multiplicity = 1:

       Center              X                  Y                   Z               Mass       
    ------------   -----------------  -----------------  -----------------  -----------------
         O            0.000000000000     0.000000000000    -0.065912414824    15.994914619570
         H           -0.000000000000     0.753589016730     0.523038927279     1.007825032230
         H            0.000000000000    -0.753589016730     0.523038927279     1.007825032230

  Running in c2v symmetry.

  Rotational constants: A =     27.14988  B =     14.72693  C =      9.54787 [cm^-1]
  Rotational constants: A = 813932.95770  B = 441502.27142  C = 286237.98446 [MHz]
  Nuclear repulsion =    9.203636767920623

  Charge       = 0
  Multiplicity = 1
  Electrons    = 10
  Nalpha       = 5
  Nbeta        = 5

  ==> Algorithm <==

  SCF Algorithm Type is DF.
  DIIS enabled.
  MOM disabled.
  Fractional occupation disabled.
  Guess Type is SAD.
  Energy threshold   = 1.00e-08
  Density threshold  = 1.00e-08
  Integral threshold = 0.00e+00

  ==> Primary Basis <==

  Basis Set: CC-PV(D+D)Z
    Blend: CC-PV(D+D)Z
    Number of shells: 12
    Number of basis function: 24
    Number of Cartesian functions: 25
    Spherical Harmonics?: true
    Max angular momentum: 2

  ==> DFT Potential <==

   => Composite Functional: WB97X-V <= 

    wB97X-V Hyb-GGA Exchange-Correlation Functional

    N. Mardirossian and M. Head-Gordon, Phys. Chem. Chem. Phys. 16, 9904 (2014)

    Deriv               =              1
    GGA                 =           TRUE
    Meta                =          FALSE

    Exchange Hybrid     =           TRUE
    MP2 Hybrid          =          FALSE

   => Exchange-Correlation Functionals <=

    1.0000   wB97X-V range-separated functional

   => Exact (HF) Exchange <=

    0.8330            HF,LR [omega = 0.3000]
    0.1670               HF 

   => VV10 Non-Local Parameters <=

    VV10 B              =     6.0000E+00
    VV10 C              =     1.0000E-02

   => Molecular Quadrature <=

    Radial Scheme          =       TREUTLER
    Pruning Scheme         =           FLAT
    Nuclear Scheme         =       TREUTLER

    BS radius alpha        =              1
    Pruning alpha          =              1
    Radial Points          =             75
    Spherical Points       =            302
    Total Points           =          66409
    Total Blocks           =            570
    Max Points             =            256
    Max Functions          =             24

   => Loading Basis Set <=

    Name: (CC-PV(D+D)Z AUX)
    Role: JKFIT
    Keyword: DF_BASIS_SCF
    atoms 1   entry O          line   221 file /work/zw18965/.conda/envs/p4env/share/psi4/basis/cc-pvdz-jkfit.gbs 
    atoms 2-3 entry H          line    51 file /work/zw18965/.conda/envs/p4env/share/psi4/basis/cc-pvdz-jkfit.gbs 

  ==> Pre-Iterations <==

   -------------------------------------------------------
    Irrep   Nso     Nmo     Nalpha   Nbeta   Ndocc  Nsocc
   -------------------------------------------------------
     A1        11      11       0       0       0       0
     A2         2       2       0       0       0       0
     B1         4       4       0       0       0       0
     B2         7       7       0       0       0       0
   -------------------------------------------------------
    Total      24      24       5       5       5       0
   -------------------------------------------------------

  ==> Integral Setup <==

  ==> DiskDFJK: Density-Fitted J/K Matrices <==

    J tasked:                  Yes
    K tasked:                  Yes
    wK tasked:                 Yes
    Omega:               3.000E-01
    OpenMP threads:             24
    Integrals threads:          24
    Memory [MiB]:           102951
    Algorithm:                Core
    Integral Cache:           NONE
    Schwarz Cutoff:          1E-12
    Fitting Condition:       1E-10

   => Auxiliary Basis Set <=

  Basis Set: (CC-PV(D+D)Z AUX)
    Blend: CC-PVDZ-JKFIT
    Number of shells: 42
    Number of basis function: 116
    Number of Cartesian functions: 131
    Spherical Harmonics?: true
    Max angular momentum: 3

  Cached 100.0% of DFT collocation blocks in 0.044 [GiB].

  Minimum eigenvalue in the overlap matrix is 3.4049927892E-02.
  Using Symmetric Orthogonalization.

  SCF Guess: Superposition of Atomic Densities via on-the-fly atomic UHF.

  ==> Iterations <==

                           Total Energy        Delta E     RMS |[F,P]|

   @DF-RKS iter SAD:   -75.97649675010354   -7.59765e+01   0.00000e+00 
   @DF-RKS iter   1:   -76.28372095783254   -3.07224e-01   3.86765e-02 DIIS
   @DF-RKS iter   2:   -76.30729262977472   -2.35717e-02   3.60275e-02 DIIS
   @DF-RKS iter   3:   -76.39155731906972   -8.42647e-02   1.09741e-03 DIIS
   @DF-RKS iter   4:   -76.39169620104896   -1.38882e-04   2.97695e-04 DIIS
   @DF-RKS iter   5:   -76.39170644667010   -1.02456e-05   4.11027e-05 DIIS
   @DF-RKS iter   6:   -76.39170677374132   -3.27071e-07   7.21007e-06 DIIS
   @DF-RKS iter   7:   -76.39170679378982   -2.00485e-08   1.24537e-06 DIIS
   @DF-RKS iter   8:   -76.39170679437099   -5.81167e-10   1.13745e-07 DIIS
   @DF-RKS iter   9:   -76.39170679437426   -3.26850e-12   1.17002e-08 DIIS
   @DF-RKS iter  10:   -76.39170679437434   -8.52651e-14   8.66895e-10 DIIS
  Energy and wave function converged.


  ==> Post-Iterations <==

    Orbital Energies [Eh]
    ---------------------

    Doubly Occupied:                                                      

       1A1   -19.207187     2A1    -1.122407     1B2    -0.622468  
       3A1    -0.476202     1B1    -0.398452  

    Virtual:                                                              

       4A1     0.150178     2B2     0.224571     3B2     0.670448  
       5A1     0.729951     6A1     1.024375     2B1     1.046670  
       4B2     1.114815     7A1     1.311821     1A2     1.346983  
       3B1     1.537727     8A1     1.705709     5B2     1.792328  
       6B2     2.241737     9A1     2.280570     4B1     3.039576  
       2A2     3.080507    10A1     3.251792    11A1     3.582896  
       7B2     3.859932  

    Final Occupation by Irrep:
             A1    A2    B1    B2 
    DOCC [     3,    0,    1,    1 ]

  @DF-RKS Final Energy:   -76.39170679437434

   => Energetics <=

    Nuclear Repulsion Energy =              9.2036367679206226
    One-Electron Energy =                -123.1766266594283650
    Two-Electron Energy =                  44.0941474158326372
    DFT Exchange-Correlation Energy =      -6.5555399109789372
    Empirical Dispersion Energy =           0.0000000000000000
    VV10 Nonlocal Energy =                  0.0426755922796931
    Total Energy =                        -76.3917067943743433

Computation Completed


Properties will be evaluated at   0.000000,   0.000000,   0.000000 [a0]

Properties computed using the SCF density matrix

  Nuclear Dipole Moment: [e a0]
     X:     0.0000      Y:     0.0000      Z:     0.9803

  Electronic Dipole Moment: [e a0]
     X:     0.0000      Y:     0.0000      Z:    -0.2174

  Dipole Moment: [e a0]
     X:     0.0000      Y:     0.0000      Z:     0.7630     Total:     0.7630

  Dipole Moment: [D]
     X:     0.0000      Y:     0.0000      Z:     1.9393     Total:     1.9393


*** tstop() called on bp1-compute00115.data.bp.acrc.priv at Tue Apr 27 18:05:33 2021
Module time:
	user time   =      51.07 seconds =       0.85 minutes
	system time =       1.64 seconds =       0.03 minutes
	total time  =          2 seconds =       0.03 minutes
Total time:
	user time   =     207.73 seconds =       3.46 minutes
	system time =       6.85 seconds =       0.11 minutes
	total time  =          9 seconds =       0.15 minutes

  //>>>>>>>>>>>>>>>>>>>>>>>>>>>>>>>>>>>//
  //    Loading displacement 5 of 5    //
  //<<<<<<<<<<<<<<<<<<<<<<<<<<<<<<<<<<<//

*** tstart() called on bp1-compute00115.data.bp.acrc.priv
*** at Tue Apr 27 18:05:33 2021

   => Loading Basis Set <=

    Name: CC-PV(D+D)Z
    Role: ORBITAL
    Keyword: BASIS
    atoms 1   entry O          line   207 file /work/zw18965/.conda/envs/p4env/share/psi4/basis/cc-pv_dpd_z.gbs 
    atoms 2-3 entry H          line    31 file /work/zw18965/.conda/envs/p4env/share/psi4/basis/cc-pv_dpd_z.gbs 


         ---------------------------------------------------------
                                   SCF
               by Justin Turney, Rob Parrish, Andy Simmonett
                          and Daniel G. A. Smith
                              RKS Reference
                       24 Threads, 137329 MiB Core
         ---------------------------------------------------------

  ==> Geometry <==

    Molecular point group: c2v
    Full point group: C2v

    Geometry (in Angstrom), charge = 0, multiplicity = 1:

       Center              X                  Y                   Z               Mass       
    ------------   -----------------  -----------------  -----------------  -----------------
         O           -0.000000000000     0.000000000000    -0.065912414824    15.994914619570
         H           -0.000000000000     0.757316309993     0.523038927279     1.007825032230
         H            0.000000000000    -0.757316309993     0.523038927279     1.007825032230

  Running in c2v symmetry.

  Rotational constants: A =     27.14988  B =     14.58232  C =      9.48688 [cm^-1]
  Rotational constants: A = 813932.95770  B = 437167.07141  C = 284409.46300 [MHz]
  Nuclear repulsion =    9.174784246374898

  Charge       = 0
  Multiplicity = 1
  Electrons    = 10
  Nalpha       = 5
  Nbeta        = 5

  ==> Algorithm <==

  SCF Algorithm Type is DF.
  DIIS enabled.
  MOM disabled.
  Fractional occupation disabled.
  Guess Type is SAD.
  Energy threshold   = 1.00e-08
  Density threshold  = 1.00e-08
  Integral threshold = 0.00e+00

  ==> Primary Basis <==

  Basis Set: CC-PV(D+D)Z
    Blend: CC-PV(D+D)Z
    Number of shells: 12
    Number of basis function: 24
    Number of Cartesian functions: 25
    Spherical Harmonics?: true
    Max angular momentum: 2

  ==> DFT Potential <==

   => Composite Functional: WB97X-V <= 

    wB97X-V Hyb-GGA Exchange-Correlation Functional

    N. Mardirossian and M. Head-Gordon, Phys. Chem. Chem. Phys. 16, 9904 (2014)

    Deriv               =              1
    GGA                 =           TRUE
    Meta                =          FALSE

    Exchange Hybrid     =           TRUE
    MP2 Hybrid          =          FALSE

   => Exchange-Correlation Functionals <=

    1.0000   wB97X-V range-separated functional

   => Exact (HF) Exchange <=

    0.8330            HF,LR [omega = 0.3000]
    0.1670               HF 

   => VV10 Non-Local Parameters <=

    VV10 B              =     6.0000E+00
    VV10 C              =     1.0000E-02

   => Molecular Quadrature <=

    Radial Scheme          =       TREUTLER
    Pruning Scheme         =           FLAT
    Nuclear Scheme         =       TREUTLER

    BS radius alpha        =              1
    Pruning alpha          =              1
    Radial Points          =             75
    Spherical Points       =            302
    Total Points           =          66409
    Total Blocks           =            570
    Max Points             =            256
    Max Functions          =             24

   => Loading Basis Set <=

    Name: (CC-PV(D+D)Z AUX)
    Role: JKFIT
    Keyword: DF_BASIS_SCF
    atoms 1   entry O          line   221 file /work/zw18965/.conda/envs/p4env/share/psi4/basis/cc-pvdz-jkfit.gbs 
    atoms 2-3 entry H          line    51 file /work/zw18965/.conda/envs/p4env/share/psi4/basis/cc-pvdz-jkfit.gbs 

  ==> Pre-Iterations <==

   -------------------------------------------------------
    Irrep   Nso     Nmo     Nalpha   Nbeta   Ndocc  Nsocc
   -------------------------------------------------------
     A1        11      11       0       0       0       0
     A2         2       2       0       0       0       0
     B1         4       4       0       0       0       0
     B2         7       7       0       0       0       0
   -------------------------------------------------------
    Total      24      24       5       5       5       0
   -------------------------------------------------------

  ==> Integral Setup <==

  ==> DiskDFJK: Density-Fitted J/K Matrices <==

    J tasked:                  Yes
    K tasked:                  Yes
    wK tasked:                 Yes
    Omega:               3.000E-01
    OpenMP threads:             24
    Integrals threads:          24
    Memory [MiB]:           102951
    Algorithm:                Core
    Integral Cache:           NONE
    Schwarz Cutoff:          1E-12
    Fitting Condition:       1E-10

   => Auxiliary Basis Set <=

  Basis Set: (CC-PV(D+D)Z AUX)
    Blend: CC-PVDZ-JKFIT
    Number of shells: 42
    Number of basis function: 116
    Number of Cartesian functions: 131
    Spherical Harmonics?: true
    Max angular momentum: 3

  Cached 100.0% of DFT collocation blocks in 0.045 [GiB].

  Minimum eigenvalue in the overlap matrix is 3.4296943555E-02.
  Using Symmetric Orthogonalization.

  SCF Guess: Superposition of Atomic Densities via on-the-fly atomic UHF.

  ==> Iterations <==

                           Total Energy        Delta E     RMS |[F,P]|

   @DF-RKS iter SAD:   -75.97318378642454   -7.59732e+01   0.00000e+00 
   @DF-RKS iter   1:   -76.28377854073864   -3.10595e-01   3.86449e-02 DIIS
   @DF-RKS iter   2:   -76.30699045341505   -2.32119e-02   3.60874e-02 DIIS
   @DF-RKS iter   3:   -76.39163441884943   -8.46440e-02   1.10187e-03 DIIS
   @DF-RKS iter   4:   -76.39177461103586   -1.40192e-04   3.00796e-04 DIIS
   @DF-RKS iter   5:   -76.39178511981306   -1.05088e-05   4.16980e-05 DIIS
   @DF-RKS iter   6:   -76.39178545868209   -3.38869e-07   7.33686e-06 DIIS
   @DF-RKS iter   7:   -76.39178547951916   -2.08371e-08   1.26647e-06 DIIS
   @DF-RKS iter   8:   -76.39178548012060   -6.01446e-10   1.15390e-07 DIIS
   @DF-RKS iter   9:   -76.39178548012407   -3.46745e-12   1.18477e-08 DIIS
   @DF-RKS iter  10:   -76.39178548012406    1.42109e-14   8.82784e-10 DIIS
  Energy and wave function converged.


  ==> Post-Iterations <==

    Orbital Energies [Eh]
    ---------------------

    Doubly Occupied:                                                      

       1A1   -19.207524     2A1    -1.120924     1B2    -0.621815  
       3A1    -0.475392     1B1    -0.398141  

    Virtual:                                                              

       4A1     0.149587     2B2     0.223910     3B2     0.669336  
       5A1     0.726317     6A1     1.024099     2B1     1.046639  
       4B2     1.114589     7A1     1.314682     1A2     1.345435  
       3B1     1.538800     8A1     1.706874     5B2     1.787714  
       6B2     2.235917     9A1     2.273322     4B1     3.035628  
       2A2     3.078699    10A1     3.246984    11A1     3.582034  
       7B2     3.855237  

    Final Occupation by Irrep:
             A1    A2    B1    B2 
    DOCC [     3,    0,    1,    1 ]

  @DF-RKS Final Energy:   -76.39178548012406

   => Energetics <=

    Nuclear Repulsion Energy =              9.1747842463748981
    One-Electron Energy =                -123.1263787042025228
    Two-Electron Energy =                  44.0704469028781958
    DFT Exchange-Correlation Energy =      -6.5533108229765000
    Empirical Dispersion Energy =           0.0000000000000000
    VV10 Nonlocal Energy =                  0.0426728978018583
    Total Energy =                        -76.3917854801240566

Computation Completed


Properties will be evaluated at   0.000000,   0.000000,   0.000000 [a0]

Properties computed using the SCF density matrix

  Nuclear Dipole Moment: [e a0]
     X:     0.0000      Y:     0.0000      Z:     0.9803

  Electronic Dipole Moment: [e a0]
     X:     0.0000      Y:     0.0000      Z:    -0.2182

  Dipole Moment: [e a0]
     X:     0.0000      Y:     0.0000      Z:     0.7622     Total:     0.7622

  Dipole Moment: [D]
     X:     0.0000      Y:     0.0000      Z:     1.9373     Total:     1.9373


*** tstop() called on bp1-compute00115.data.bp.acrc.priv at Tue Apr 27 18:05:35 2021
Module time:
	user time   =      50.81 seconds =       0.85 minutes
	system time =       1.58 seconds =       0.03 minutes
	total time  =          2 seconds =       0.03 minutes
Total time:
	user time   =     258.68 seconds =       4.31 minutes
	system time =       8.44 seconds =       0.14 minutes
	total time  =         11 seconds =       0.18 minutes

         ----------------------------------------------------------
                                   FINDIF
                     R. A. King and Jonathon Misiewicz
         ---------------------------------------------------------

  Computing gradient from energies.
    Using 3-point formula.
    Energy without displacement:  -76.3917513530
    Check energies below for precision!
    Forces are for mass-weighted, symmetry-adapted cartesians (in au).

     Coord      Energy(-1)        Energy(+1)            Force
        0    -76.3917954945    -76.3917005370      0.0094957504
        1    -76.3917067944    -76.3917854801     -0.0078685750


-------------------------------------------------------------
  ## New Matrix (Symmetry 0) ##
  Irrep: 1 Size: 3 x 3

                 1                   2                   3

    1     0.00000000000000     0.00000000000000     0.01270469245697
    2     0.00000000000000    -0.00558564923795    -0.00635234622849
    3     0.00000000000000     0.00558564923795    -0.00635234622849




			-----------------------------------------
			 OPTKING 2.0: for geometry optimizations 
			  - R.A. King,  Bethel University        
			-----------------------------------------
	At level 1: Red. Int., RFO, no backsteps, dynamic trust

	Internal coordinates to be generated automatically.
	Detected frag 1 with atoms:  1 2 3
	---Fragment 1 Bond Connectivity---
	 1 : 2 3
	 2 : 1
	 3 : 1

	---Fragment 1 Geometry and Gradient---
	 O           0.0000000000        0.0000000000       -0.1245564123
	 H          -0.0000000000        1.4275986345        0.9884003255
	 H           0.0000000000       -1.4275986345        0.9884003255
	             0.0000000000        0.0000000000        0.0127046925
	             0.0000000000       -0.0055856492       -0.0063523462
	             0.0000000000        0.0055856492       -0.0063523462

	Previous optimization step data not found.  Starting new optimization.

	---Fragment 1 Intrafragment Coordinates---
	 - Coordinate -           - BOHR/RAD -       - ANG/DEG -
	 R(1,2)           =         1.810169	       0.957900
	 R(1,3)           =         1.810169	       0.957900
	 B(2,1,3)         =         1.817237	     104.120000

	Current energy   :       -76.3917513530

	Generating empirical Hessian (Schlegel '84) for each fragment.
	Taking RFO optimization step.
	Going to follow RFO solution 1.
	Using RFO vector 1.
	Norm of target step-size    0.02753
	Projected energy change by RFO approximation:        -0.0002318608

	Back-transformation to cartesian coordinates...
	Successfully converged to displaced geometry.

	--- Internal Coordinate Step in ANG or DEG, aJ/ANG or AJ/DEG ---
	 ---------------------------------------------------------------------------
	   Coordinate                Previous        Force       Change         New 
	   ----------                --------       ------       ------       ------
	    1 R(1,2)          =      0.957900     0.068470     0.007859     0.965759
	    2 R(1,3)          =      0.957900     0.068470     0.007859     0.965759
	    3 B(2,1,3)        =    104.120000    -0.000217    -1.019406   103.100594
	 ---------------------------------------------------------------------------
	Successfully symmetrized geometry.

  ==> Convergence Check <==

  Measures of convergence in internal coordinates in au.
  Criteria marked as inactive (o), active & met (*), and active & unmet ( ).
  --------------------------------------------------------------------------------------------- ~
   Step     Total Energy     Delta E     MAX Force     RMS Force      MAX Disp      RMS Disp    ~
  --------------------------------------------------------------------------------------------- ~
    Convergence Criteria    1.00e-06 *    3.00e-04 *             o    1.20e-03 *             o  ~
  --------------------------------------------------------------------------------------------- ~
      1     -76.39175135   -7.64e+01      8.31e-03      6.98e-03 o    1.78e-02      1.59e-02 o  ~
  ---------------------------------------------------------------------------------------------

	Writing optimization data to binary file.
	Structure for next step:
	Cartesian Geometry (in Angstrom)
	    O    -0.0000000000   0.0000000000  -0.0736352670
	    H    -0.0000000000   0.7563386177   0.5269003514
	    H     0.0000000000  -0.7563386177   0.5269003514
			--------------------------
			 OPTKING Finished Execution 
			--------------------------

    Structure for next step:
    Molecular point group: c2v
    Full point group: C2v

    Geometry (in Angstrom), charge = 0, multiplicity = 1:

    O            0.000000000000     0.000000000000    -0.067208867900
    H           -0.000000000000     0.756338620628     0.533326752843
    H            0.000000000000    -0.756338620628     0.533326752843

gradient() will perform gradient computation by finite difference of analytic energies.

         ----------------------------------------------------------
                                   FINDIF
                     R. A. King and Jonathon Misiewicz
         ---------------------------------------------------------

  Using finite-differences of energies to determine gradients.
    Generating geometries for use with 3-point formula.
    Displacement size will be 5.00e-03.
    Number of atoms is 3.
    Number of symmetric SALCs is 2.
    Translations projected? 1. Rotations projected? 1.
    Number of geometries (including reference) is 5.

  //>>>>>>>>>>>>>>>>>>>>>>>>>>>>>>>>>>>//
  //    Loading displacement 1 of 5    //
  //<<<<<<<<<<<<<<<<<<<<<<<<<<<<<<<<<<<//

*** tstart() called on bp1-compute00115.data.bp.acrc.priv
*** at Tue Apr 27 18:05:35 2021

   => Loading Basis Set <=

    Name: CC-PV(D+D)Z
    Role: ORBITAL
    Keyword: BASIS
    atoms 1   entry O          line   207 file /work/zw18965/.conda/envs/p4env/share/psi4/basis/cc-pv_dpd_z.gbs 
    atoms 2-3 entry H          line    31 file /work/zw18965/.conda/envs/p4env/share/psi4/basis/cc-pv_dpd_z.gbs 


         ---------------------------------------------------------
                                   SCF
               by Justin Turney, Rob Parrish, Andy Simmonett
                          and Daniel G. A. Smith
                              RKS Reference
                       24 Threads, 137329 MiB Core
         ---------------------------------------------------------

  ==> Geometry <==

    Molecular point group: c2v
    Full point group: C2v

    Geometry (in Angstrom), charge = 0, multiplicity = 1:

       Center              X                  Y                   Z               Mass       
    ------------   -----------------  -----------------  -----------------  -----------------
         O            0.000000000000     0.000000000000    -0.067208867900    15.994914619570
         H           -0.000000000000     0.756338620628     0.533326752843     1.007825032230
         H            0.000000000000    -0.756338620628     0.533326752843     1.007825032230

  Running in c2v symmetry.

  Rotational constants: A =     26.11255  B =     14.62005  C =      9.37251 [cm^-1]
  Rotational constants: A = 782834.43416  B = 438298.01947  C = 280980.80683 [MHz]
  Nuclear repulsion =    9.116852117841558

  Charge       = 0
  Multiplicity = 1
  Electrons    = 10
  Nalpha       = 5
  Nbeta        = 5

  ==> Algorithm <==

  SCF Algorithm Type is DF.
  DIIS enabled.
  MOM disabled.
  Fractional occupation disabled.
  Guess Type is READ.
  Energy threshold   = 1.00e-08
  Density threshold  = 1.00e-08
  Integral threshold = 0.00e+00

  ==> Primary Basis <==

  Basis Set: CC-PV(D+D)Z
    Blend: CC-PV(D+D)Z
    Number of shells: 12
    Number of basis function: 24
    Number of Cartesian functions: 25
    Spherical Harmonics?: true
    Max angular momentum: 2

  ==> DFT Potential <==

   => Composite Functional: WB97X-V <= 

    wB97X-V Hyb-GGA Exchange-Correlation Functional

    N. Mardirossian and M. Head-Gordon, Phys. Chem. Chem. Phys. 16, 9904 (2014)

    Deriv               =              1
    GGA                 =           TRUE
    Meta                =          FALSE

    Exchange Hybrid     =           TRUE
    MP2 Hybrid          =          FALSE

   => Exchange-Correlation Functionals <=

    1.0000   wB97X-V range-separated functional

   => Exact (HF) Exchange <=

    0.8330            HF,LR [omega = 0.3000]
    0.1670               HF 

   => VV10 Non-Local Parameters <=

    VV10 B              =     6.0000E+00
    VV10 C              =     1.0000E-02

   => Molecular Quadrature <=

    Radial Scheme          =       TREUTLER
    Pruning Scheme         =           FLAT
    Nuclear Scheme         =       TREUTLER

    BS radius alpha        =              1
    Pruning alpha          =              1
    Radial Points          =             75
    Spherical Points       =            302
    Total Points           =          66405
    Total Blocks           =            571
    Max Points             =            256
    Max Functions          =             24

   => Loading Basis Set <=

    Name: (CC-PV(D+D)Z AUX)
    Role: JKFIT
    Keyword: DF_BASIS_SCF
    atoms 1   entry O          line   221 file /work/zw18965/.conda/envs/p4env/share/psi4/basis/cc-pvdz-jkfit.gbs 
    atoms 2-3 entry H          line    51 file /work/zw18965/.conda/envs/p4env/share/psi4/basis/cc-pvdz-jkfit.gbs 

   => Loading Basis Set <=

    Name: CC-PV(D+D)Z
    Role: ORBITAL
    Keyword: BASIS
    atoms 1   entry O          line   207 file /work/zw18965/.conda/envs/p4env/share/psi4/basis/cc-pv_dpd_z.gbs 
    atoms 2-3 entry H          line    31 file /work/zw18965/.conda/envs/p4env/share/psi4/basis/cc-pv_dpd_z.gbs 

  Reading orbitals from file 180, no projection.

  ==> Pre-Iterations <==

   -------------------------------------------------------
    Irrep   Nso     Nmo     Nalpha   Nbeta   Ndocc  Nsocc
   -------------------------------------------------------
     A1        11      11       0       0       0       0
     A2         2       2       0       0       0       0
     B1         4       4       0       0       0       0
     B2         7       7       0       0       0       0
   -------------------------------------------------------
    Total      24      24       5       5       5       0
   -------------------------------------------------------

  ==> Integral Setup <==

  ==> DiskDFJK: Density-Fitted J/K Matrices <==

    J tasked:                  Yes
    K tasked:                  Yes
    wK tasked:                 Yes
    Omega:               3.000E-01
    OpenMP threads:             24
    Integrals threads:          24
    Memory [MiB]:           102951
    Algorithm:                Core
    Integral Cache:           NONE
    Schwarz Cutoff:          1E-12
    Fitting Condition:       1E-10

   => Auxiliary Basis Set <=

  Basis Set: (CC-PV(D+D)Z AUX)
    Blend: CC-PVDZ-JKFIT
    Number of shells: 42
    Number of basis function: 116
    Number of Cartesian functions: 131
    Spherical Harmonics?: true
    Max angular momentum: 3

  Cached 100.0% of DFT collocation blocks in 0.045 [GiB].

  Minimum eigenvalue in the overlap matrix is 3.4588453259E-02.
  Using Symmetric Orthogonalization.

  SCF Guess: Orbitals guess was supplied from a previous computation.

  ==> Iterations <==

                           Total Energy        Delta E     RMS |[F,P]|

   @DF-RKS iter   0:   -76.38152079909351   -7.63815e+01   2.05769e-03 
   @DF-RKS iter   1:   -76.39190273916410   -1.03819e-02   3.98821e-04 DIIS
   @DF-RKS iter   2:   -76.39190966644937   -6.92729e-06   3.51882e-04 DIIS
   @DF-RKS iter   3:   -76.39191745710086   -7.79065e-06   2.84850e-05 DIIS
   @DF-RKS iter   4:   -76.39191762778158   -1.70681e-07   1.10694e-05 DIIS
   @DF-RKS iter   5:   -76.39191765422092   -2.64393e-08   1.47128e-06 DIIS
   @DF-RKS iter   6:   -76.39191765516597   -9.45050e-10   1.83898e-07 DIIS
   @DF-RKS iter   7:   -76.39191765517728   -1.13118e-11   1.46034e-08 DIIS
   @DF-RKS iter   8:   -76.39191765517737   -8.52651e-14   1.56154e-09 DIIS
  Energy and wave function converged.


  ==> Post-Iterations <==

    Orbital Energies [Eh]
    ---------------------

    Doubly Occupied:                                                      

       1A1   -19.209123     2A1    -1.119138     1B2    -0.617319  
       3A1    -0.477150     1B1    -0.397986  

    Virtual:                                                              

       4A1     0.147953     2B2     0.222476     3B2     0.661970  
       5A1     0.725226     6A1     1.025517     2B1     1.046151  
       4B2     1.115443     7A1     1.305549     1A2     1.347598  
       3B1     1.531742     8A1     1.705487     5B2     1.787494  
       6B2     2.219852     9A1     2.260321     4B1     3.035705  
       2A2     3.068444    10A1     3.242045    11A1     3.568223  
       7B2     3.854586  

    Final Occupation by Irrep:
             A1    A2    B1    B2 
    DOCC [     3,    0,    1,    1 ]

  @DF-RKS Final Energy:   -76.39191765517737

   => Energetics <=

    Nuclear Repulsion Energy =              9.1168521178415585
    One-Electron Energy =                -123.0199718257127586
    Two-Electron Energy =                  44.0171339300159659
    DFT Exchange-Correlation Energy =      -6.5485990484797556
    Empirical Dispersion Energy =           0.0000000000000000
    VV10 Nonlocal Energy =                  0.0426671711576193
    Total Energy =                        -76.3919176551773802

Computation Completed


Properties will be evaluated at   0.000000,   0.000000,   0.000000 [a0]

Properties computed using the SCF density matrix

  Nuclear Dipole Moment: [e a0]
     X:     0.0000      Y:     0.0000      Z:     0.9996

  Electronic Dipole Moment: [e a0]
     X:     0.0000      Y:     0.0000      Z:    -0.2300

  Dipole Moment: [e a0]
     X:     0.0000      Y:     0.0000      Z:     0.7696     Total:     0.7696

  Dipole Moment: [D]
     X:     0.0000      Y:     0.0000      Z:     1.9563     Total:     1.9563


*** tstop() called on bp1-compute00115.data.bp.acrc.priv at Tue Apr 27 18:05:37 2021
Module time:
	user time   =      38.84 seconds =       0.65 minutes
	system time =       1.11 seconds =       0.02 minutes
	total time  =          2 seconds =       0.03 minutes
Total time:
	user time   =     297.88 seconds =       4.96 minutes
	system time =       9.56 seconds =       0.16 minutes
	total time  =         13 seconds =       0.22 minutes

  //>>>>>>>>>>>>>>>>>>>>>>>>>>>>>>>>>>>//
  //    Loading displacement 2 of 5    //
  //<<<<<<<<<<<<<<<<<<<<<<<<<<<<<<<<<<<//

*** tstart() called on bp1-compute00115.data.bp.acrc.priv
*** at Tue Apr 27 18:05:37 2021

   => Loading Basis Set <=

    Name: CC-PV(D+D)Z
    Role: ORBITAL
    Keyword: BASIS
    atoms 1   entry O          line   207 file /work/zw18965/.conda/envs/p4env/share/psi4/basis/cc-pv_dpd_z.gbs 
    atoms 2-3 entry H          line    31 file /work/zw18965/.conda/envs/p4env/share/psi4/basis/cc-pv_dpd_z.gbs 


         ---------------------------------------------------------
                                   SCF
               by Justin Turney, Rob Parrish, Andy Simmonett
                          and Daniel G. A. Smith
                              RKS Reference
                       24 Threads, 137329 MiB Core
         ---------------------------------------------------------

  ==> Geometry <==

    Molecular point group: c2v
    Full point group: C2v

    Geometry (in Angstrom), charge = 0, multiplicity = 1:

       Center              X                  Y                   Z               Mass       
    ------------   -----------------  -----------------  -----------------  -----------------
         O            0.000000000000     0.000000000000    -0.067430189641    15.994914619570
         H           -0.000000000000     0.756338620628     0.535083021161     1.007825032230
         H            0.000000000000    -0.756338620628     0.535083021161     1.007825032230

  Running in c2v symmetry.

  Rotational constants: A =     25.94141  B =     14.62005  C =      9.35037 [cm^-1]
  Rotational constants: A = 777703.97425  B = 438298.01947  C = 280317.06642 [MHz]
  Nuclear repulsion =    9.105691866403946

  Charge       = 0
  Multiplicity = 1
  Electrons    = 10
  Nalpha       = 5
  Nbeta        = 5

  ==> Algorithm <==

  SCF Algorithm Type is DF.
  DIIS enabled.
  MOM disabled.
  Fractional occupation disabled.
  Guess Type is READ.
  Energy threshold   = 1.00e-08
  Density threshold  = 1.00e-08
  Integral threshold = 0.00e+00

  ==> Primary Basis <==

  Basis Set: CC-PV(D+D)Z
    Blend: CC-PV(D+D)Z
    Number of shells: 12
    Number of basis function: 24
    Number of Cartesian functions: 25
    Spherical Harmonics?: true
    Max angular momentum: 2

  ==> DFT Potential <==

   => Composite Functional: WB97X-V <= 

    wB97X-V Hyb-GGA Exchange-Correlation Functional

    N. Mardirossian and M. Head-Gordon, Phys. Chem. Chem. Phys. 16, 9904 (2014)

    Deriv               =              1
    GGA                 =           TRUE
    Meta                =          FALSE

    Exchange Hybrid     =           TRUE
    MP2 Hybrid          =          FALSE

   => Exchange-Correlation Functionals <=

    1.0000   wB97X-V range-separated functional

   => Exact (HF) Exchange <=

    0.8330            HF,LR [omega = 0.3000]
    0.1670               HF 

   => VV10 Non-Local Parameters <=

    VV10 B              =     6.0000E+00
    VV10 C              =     1.0000E-02

   => Molecular Quadrature <=

    Radial Scheme          =       TREUTLER
    Pruning Scheme         =           FLAT
    Nuclear Scheme         =       TREUTLER

    BS radius alpha        =              1
    Pruning alpha          =              1
    Radial Points          =             75
    Spherical Points       =            302
    Total Points           =          66405
    Total Blocks           =            567
    Max Points             =            256
    Max Functions          =             24

   => Loading Basis Set <=

    Name: (CC-PV(D+D)Z AUX)
    Role: JKFIT
    Keyword: DF_BASIS_SCF
    atoms 1   entry O          line   221 file /work/zw18965/.conda/envs/p4env/share/psi4/basis/cc-pvdz-jkfit.gbs 
    atoms 2-3 entry H          line    51 file /work/zw18965/.conda/envs/p4env/share/psi4/basis/cc-pvdz-jkfit.gbs 

   => Loading Basis Set <=

    Name: CC-PV(D+D)Z
    Role: ORBITAL
    Keyword: BASIS
    atoms 1   entry O          line   207 file /work/zw18965/.conda/envs/p4env/share/psi4/basis/cc-pv_dpd_z.gbs 
    atoms 2-3 entry H          line    31 file /work/zw18965/.conda/envs/p4env/share/psi4/basis/cc-pv_dpd_z.gbs 

  Reading orbitals from file 180, no projection.

  ==> Pre-Iterations <==

   -------------------------------------------------------
    Irrep   Nso     Nmo     Nalpha   Nbeta   Ndocc  Nsocc
   -------------------------------------------------------
     A1        11      11       0       0       0       0
     A2         2       2       0       0       0       0
     B1         4       4       0       0       0       0
     B2         7       7       0       0       0       0
   -------------------------------------------------------
    Total      24      24       5       5       5       0
   -------------------------------------------------------

  ==> Integral Setup <==

  ==> DiskDFJK: Density-Fitted J/K Matrices <==

    J tasked:                  Yes
    K tasked:                  Yes
    wK tasked:                 Yes
    Omega:               3.000E-01
    OpenMP threads:             24
    Integrals threads:          24
    Memory [MiB]:           102951
    Algorithm:                Core
    Integral Cache:           NONE
    Schwarz Cutoff:          1E-12
    Fitting Condition:       1E-10

   => Auxiliary Basis Set <=

  Basis Set: (CC-PV(D+D)Z AUX)
    Blend: CC-PVDZ-JKFIT
    Number of shells: 42
    Number of basis function: 116
    Number of Cartesian functions: 131
    Spherical Harmonics?: true
    Max angular momentum: 3

  Cached 100.0% of DFT collocation blocks in 0.045 [GiB].

  Minimum eigenvalue in the overlap matrix is 3.4650481453E-02.
  Using Symmetric Orthogonalization.

  SCF Guess: Orbitals guess was supplied from a previous computation.

  ==> Iterations <==

                           Total Energy        Delta E     RMS |[F,P]|

   @DF-RKS iter   0:   -76.39029144192723   -7.63903e+01   3.22871e-04 
   @DF-RKS iter   1:   -76.39192019388382   -1.62875e-03   6.09896e-05 DIIS
   @DF-RKS iter   2:   -76.39192036777199   -1.73888e-07   5.34916e-05 DIIS
   @DF-RKS iter   3:   -76.39192054791123   -1.80139e-07   4.58581e-06 DIIS
   @DF-RKS iter   4:   -76.39192055241607   -4.50484e-09   1.76085e-06 DIIS
   @DF-RKS iter   5:   -76.39192055308240   -6.66333e-10   2.38555e-07 DIIS
   @DF-RKS iter   6:   -76.39192055310717   -2.47695e-11   2.95831e-08 DIIS
   @DF-RKS iter   7:   -76.39192055310747   -2.98428e-13   2.33177e-09 DIIS
  Energy and wave function converged.


  ==> Post-Iterations <==

    Orbital Energies [Eh]
    ---------------------

    Doubly Occupied:                                                      

       1A1   -19.209411     2A1    -1.118765     1B2    -0.616527  
       3A1    -0.477412     1B1    -0.397946  

    Virtual:                                                              

       4A1     0.147645     2B2     0.222193     3B2     0.660691  
       5A1     0.724857     6A1     1.025753     2B1     1.046058  
       4B2     1.115583     7A1     1.304118     1A2     1.347900  
       3B1     1.530606     8A1     1.705321     5B2     1.787231  
       6B2     2.216902     9A1     2.257783     4B1     3.035501  
       2A2     3.066629    10A1     3.240833    11A1     3.565979  
       7B2     3.854199  

    Final Occupation by Irrep:
             A1    A2    B1    B2 
    DOCC [     3,    0,    1,    1 ]

  @DF-RKS Final Energy:   -76.39192055310747

   => Energetics <=

    Nuclear Repulsion Energy =              9.1056918664039461
    One-Electron Energy =                -122.9995480784854607
    Two-Electron Energy =                  44.0069648842061696
    DFT Exchange-Correlation Energy =      -6.5476952960695325
    Empirical Dispersion Energy =           0.0000000000000000
    VV10 Nonlocal Energy =                  0.0426660708374115
    Total Energy =                        -76.3919205531074681

Computation Completed


Properties will be evaluated at   0.000000,   0.000000,   0.000000 [a0]

Properties computed using the SCF density matrix

  Nuclear Dipole Moment: [e a0]
     X:     0.0000      Y:     0.0000      Z:     1.0029

  Electronic Dipole Moment: [e a0]
     X:     0.0000      Y:     0.0000      Z:    -0.2321

  Dipole Moment: [e a0]
     X:     0.0000      Y:     0.0000      Z:     0.7709     Total:     0.7709

  Dipole Moment: [D]
     X:     0.0000      Y:     0.0000      Z:     1.9594     Total:     1.9594


*** tstop() called on bp1-compute00115.data.bp.acrc.priv at Tue Apr 27 18:05:39 2021
Module time:
	user time   =      38.43 seconds =       0.64 minutes
	system time =       1.14 seconds =       0.02 minutes
	total time  =          2 seconds =       0.03 minutes
Total time:
	user time   =     336.44 seconds =       5.61 minutes
	system time =      10.71 seconds =       0.18 minutes
	total time  =         15 seconds =       0.25 minutes

  //>>>>>>>>>>>>>>>>>>>>>>>>>>>>>>>>>>>//
  //    Loading displacement 3 of 5    //
  //<<<<<<<<<<<<<<<<<<<<<<<<<<<<<<<<<<<//

*** tstart() called on bp1-compute00115.data.bp.acrc.priv
*** at Tue Apr 27 18:05:39 2021

   => Loading Basis Set <=

    Name: CC-PV(D+D)Z
    Role: ORBITAL
    Keyword: BASIS
    atoms 1   entry O          line   207 file /work/zw18965/.conda/envs/p4env/share/psi4/basis/cc-pv_dpd_z.gbs 
    atoms 2-3 entry H          line    31 file /work/zw18965/.conda/envs/p4env/share/psi4/basis/cc-pv_dpd_z.gbs 


         ---------------------------------------------------------
                                   SCF
               by Justin Turney, Rob Parrish, Andy Simmonett
                          and Daniel G. A. Smith
                              RKS Reference
                       24 Threads, 137329 MiB Core
         ---------------------------------------------------------

  ==> Geometry <==

    Molecular point group: c2v
    Full point group: C2v

    Geometry (in Angstrom), charge = 0, multiplicity = 1:

       Center              X                  Y                   Z               Mass       
    ------------   -----------------  -----------------  -----------------  -----------------
         O            0.000000000000     0.000000000000    -0.066987546160    15.994914619570
         H           -0.000000000000     0.756338620628     0.531570484524     1.007825032230
         H            0.000000000000    -0.756338620628     0.531570484524     1.007825032230

  Running in c2v symmetry.

  Rotational constants: A =     26.28538  B =     14.62005  C =      9.39468 [cm^-1]
  Rotational constants: A = 788015.82999  B = 438298.01947  C = 281645.50025 [MHz]
  Nuclear repulsion =    9.128018251194039

  Charge       = 0
  Multiplicity = 1
  Electrons    = 10
  Nalpha       = 5
  Nbeta        = 5

  ==> Algorithm <==

  SCF Algorithm Type is DF.
  DIIS enabled.
  MOM disabled.
  Fractional occupation disabled.
  Guess Type is READ.
  Energy threshold   = 1.00e-08
  Density threshold  = 1.00e-08
  Integral threshold = 0.00e+00

  ==> Primary Basis <==

  Basis Set: CC-PV(D+D)Z
    Blend: CC-PV(D+D)Z
    Number of shells: 12
    Number of basis function: 24
    Number of Cartesian functions: 25
    Spherical Harmonics?: true
    Max angular momentum: 2

  ==> DFT Potential <==

   => Composite Functional: WB97X-V <= 

    wB97X-V Hyb-GGA Exchange-Correlation Functional

    N. Mardirossian and M. Head-Gordon, Phys. Chem. Chem. Phys. 16, 9904 (2014)

    Deriv               =              1
    GGA                 =           TRUE
    Meta                =          FALSE

    Exchange Hybrid     =           TRUE
    MP2 Hybrid          =          FALSE

   => Exchange-Correlation Functionals <=

    1.0000   wB97X-V range-separated functional

   => Exact (HF) Exchange <=

    0.8330            HF,LR [omega = 0.3000]
    0.1670               HF 

   => VV10 Non-Local Parameters <=

    VV10 B              =     6.0000E+00
    VV10 C              =     1.0000E-02

   => Molecular Quadrature <=

    Radial Scheme          =       TREUTLER
    Pruning Scheme         =           FLAT
    Nuclear Scheme         =       TREUTLER

    BS radius alpha        =              1
    Pruning alpha          =              1
    Radial Points          =             75
    Spherical Points       =            302
    Total Points           =          66405
    Total Blocks           =            571
    Max Points             =            256
    Max Functions          =             24

   => Loading Basis Set <=

    Name: (CC-PV(D+D)Z AUX)
    Role: JKFIT
    Keyword: DF_BASIS_SCF
    atoms 1   entry O          line   221 file /work/zw18965/.conda/envs/p4env/share/psi4/basis/cc-pvdz-jkfit.gbs 
    atoms 2-3 entry H          line    51 file /work/zw18965/.conda/envs/p4env/share/psi4/basis/cc-pvdz-jkfit.gbs 

   => Loading Basis Set <=

    Name: CC-PV(D+D)Z
    Role: ORBITAL
    Keyword: BASIS
    atoms 1   entry O          line   207 file /work/zw18965/.conda/envs/p4env/share/psi4/basis/cc-pv_dpd_z.gbs 
    atoms 2-3 entry H          line    31 file /work/zw18965/.conda/envs/p4env/share/psi4/basis/cc-pv_dpd_z.gbs 

  Reading orbitals from file 180, no projection.

  ==> Pre-Iterations <==

   -------------------------------------------------------
    Irrep   Nso     Nmo     Nalpha   Nbeta   Ndocc  Nsocc
   -------------------------------------------------------
     A1        11      11       0       0       0       0
     A2         2       2       0       0       0       0
     B1         4       4       0       0       0       0
     B2         7       7       0       0       0       0
   -------------------------------------------------------
    Total      24      24       5       5       5       0
   -------------------------------------------------------

  ==> Integral Setup <==

  ==> DiskDFJK: Density-Fitted J/K Matrices <==

    J tasked:                  Yes
    K tasked:                  Yes
    wK tasked:                 Yes
    Omega:               3.000E-01
    OpenMP threads:             24
    Integrals threads:          24
    Memory [MiB]:           102951
    Algorithm:                Core
    Integral Cache:           NONE
    Schwarz Cutoff:          1E-12
    Fitting Condition:       1E-10

   => Auxiliary Basis Set <=

  Basis Set: (CC-PV(D+D)Z AUX)
    Blend: CC-PVDZ-JKFIT
    Number of shells: 42
    Number of basis function: 116
    Number of Cartesian functions: 131
    Spherical Harmonics?: true
    Max angular momentum: 3

  Cached 100.0% of DFT collocation blocks in 0.045 [GiB].

  Minimum eigenvalue in the overlap matrix is 3.4526764685E-02.
  Using Symmetric Orthogonalization.

  SCF Guess: Orbitals guess was supplied from a previous computation.

  ==> Iterations <==

                           Total Energy        Delta E     RMS |[F,P]|

   @DF-RKS iter   0:   -76.39353305528593   -7.63935e+01   3.23187e-04 
   @DF-RKS iter   1:   -76.39190787447033    1.62518e-03   6.04010e-05 DIIS
   @DF-RKS iter   2:   -76.39190804751749   -1.73047e-07   5.28054e-05 DIIS
   @DF-RKS iter   3:   -76.39190822290919   -1.75392e-07   4.56344e-06 DIIS
   @DF-RKS iter   4:   -76.39190822738453   -4.47534e-09   1.74528e-06 DIIS
   @DF-RKS iter   5:   -76.39190822804134   -6.56811e-10   2.38085e-07 DIIS
   @DF-RKS iter   6:   -76.39190822806614   -2.47979e-11   2.94469e-08 DIIS
   @DF-RKS iter   7:   -76.39190822806634   -1.98952e-13   2.31698e-09 DIIS
  Energy and wave function converged.


  ==> Post-Iterations <==

    Orbital Energies [Eh]
    ---------------------

    Doubly Occupied:                                                      

       1A1   -19.208835     2A1    -1.119509     1B2    -0.618112  
       3A1    -0.476888     1B1    -0.398025  

    Virtual:                                                              

       4A1     0.148261     2B2     0.222756     3B2     0.663257  
       5A1     0.725590     6A1     1.025283     2B1     1.046241  
       4B2     1.115304     7A1     1.306981     1A2     1.347298  
       3B1     1.532883     8A1     1.705659     5B2     1.787751  
       6B2     2.222817     9A1     2.262861     4B1     3.035897  
       2A2     3.070264    10A1     3.243213    11A1     3.570510  
       7B2     3.854953  

    Final Occupation by Irrep:
             A1    A2    B1    B2 
    DOCC [     3,    0,    1,    1 ]

  @DF-RKS Final Energy:   -76.39190822806634

   => Energetics <=

    Nuclear Repulsion Energy =              9.1280182511940389
    One-Electron Energy =                -123.0403927442958718
    Two-Electron Energy =                  44.0273008929582303
    DFT Exchange-Correlation Energy =      -6.5495028987871811
    Empirical Dispersion Energy =           0.0000000000000000
    VV10 Nonlocal Energy =                  0.0426682708644360
    Total Energy =                        -76.3919082280663559

Computation Completed


Properties will be evaluated at   0.000000,   0.000000,   0.000000 [a0]

Properties computed using the SCF density matrix

  Nuclear Dipole Moment: [e a0]
     X:     0.0000      Y:     0.0000      Z:     0.9963

  Electronic Dipole Moment: [e a0]
     X:     0.0000      Y:     0.0000      Z:    -0.2279

  Dipole Moment: [e a0]
     X:     0.0000      Y:     0.0000      Z:     0.7684     Total:     0.7684

  Dipole Moment: [D]
     X:     0.0000      Y:     0.0000      Z:     1.9531     Total:     1.9531


*** tstop() called on bp1-compute00115.data.bp.acrc.priv at Tue Apr 27 18:05:40 2021
Module time:
	user time   =      35.67 seconds =       0.59 minutes
	system time =       1.09 seconds =       0.02 minutes
	total time  =          1 seconds =       0.02 minutes
Total time:
	user time   =     372.25 seconds =       6.20 minutes
	system time =      11.81 seconds =       0.20 minutes
	total time  =         16 seconds =       0.27 minutes

  //>>>>>>>>>>>>>>>>>>>>>>>>>>>>>>>>>>>//
  //    Loading displacement 4 of 5    //
  //<<<<<<<<<<<<<<<<<<<<<<<<<<<<<<<<<<<//

*** tstart() called on bp1-compute00115.data.bp.acrc.priv
*** at Tue Apr 27 18:05:40 2021

   => Loading Basis Set <=

    Name: CC-PV(D+D)Z
    Role: ORBITAL
    Keyword: BASIS
    atoms 1   entry O          line   207 file /work/zw18965/.conda/envs/p4env/share/psi4/basis/cc-pv_dpd_z.gbs 
    atoms 2-3 entry H          line    31 file /work/zw18965/.conda/envs/p4env/share/psi4/basis/cc-pv_dpd_z.gbs 


         ---------------------------------------------------------
                                   SCF
               by Justin Turney, Rob Parrish, Andy Simmonett
                          and Daniel G. A. Smith
                              RKS Reference
                       24 Threads, 137329 MiB Core
         ---------------------------------------------------------

  ==> Geometry <==

    Molecular point group: c2v
    Full point group: C2v

    Geometry (in Angstrom), charge = 0, multiplicity = 1:

       Center              X                  Y                   Z               Mass       
    ------------   -----------------  -----------------  -----------------  -----------------
         O           -0.000000000000     0.000000000000    -0.067208867900    15.994914619570
         H           -0.000000000000     0.754474973997     0.533326752843     1.007825032230
[...]
   @DF-RKS iter   1:   -76.28351542687822   -3.15857e-01   3.85793e-02 DIIS
   @DF-RKS iter   2:   -76.30555440267993   -2.20390e-02   3.63565e-02 DIIS
   @DF-RKS iter   3:   -76.39176512516802   -8.62107e-02   1.12025e-03 DIIS
   @DF-RKS iter   4:   -76.39190680113028   -1.41676e-04   3.08278e-04 DIIS
   @DF-RKS iter   5:   -76.39191763002428   -1.08289e-05   4.17436e-05 DIIS
   @DF-RKS iter   6:   -76.39191794841948   -3.18395e-07   7.00786e-06 DIIS
   @DF-RKS iter   7:   -76.39191796708646   -1.86670e-08   1.29567e-06 DIIS
   @DF-RKS iter   8:   -76.39191796771318   -6.26727e-10   1.22958e-07 DIIS
   @DF-RKS iter   9:   -76.39191796771726   -4.07852e-12   1.28121e-08 DIIS
   @DF-RKS iter  10:   -76.39191796771726    0.00000e+00   8.89977e-10 DIIS
   @DF-RKS iter  11:   -76.39191796771726    0.00000e+00   6.63684e-11 DIIS
  Energy and wave function converged.


  ==> Post-Iterations <==

    Orbital Energies [Eh]
    ---------------------

    Doubly Occupied:                                                      

       1A1   -19.209561     2A1    -1.119414     1B2    -0.615863  
       3A1    -0.478465     1B1    -0.398137  

    Virtual:                                                              

       4A1     0.147675     2B2     0.222334     3B2     0.659693  
       5A1     0.727215     6A1     1.026390     2B1     1.045971  
       4B2     1.115966     7A1     1.299533     1A2     1.349638  
       3B1     1.527964     8A1     1.704140     5B2     1.790610  
       6B2     2.217348     9A1     2.259894     4B1     3.038398  
       2A2     3.065400    10A1     3.242534    11A1     3.563637  
       7B2     3.857404  

    Final Occupation by Irrep:
             A1    A2    B1    B2 
    DOCC [     3,    0,    1,    1 ]

  @DF-RKS Final Energy:   -76.39191796771726

   => Energetics <=

    Nuclear Repulsion Energy =              9.1124828311546828
    One-Electron Energy =                -123.0100563041149400
    Two-Electron Energy =                  44.0111449551931315
    DFT Exchange-Correlation Energy =      -6.5481560414822404
    Empirical Dispersion Energy =           0.0000000000000000
    VV10 Nonlocal Energy =                  0.0426665915321115
    Total Energy =                        -76.3919179677172622

Computation Completed


Properties will be evaluated at   0.000000,   0.000000,   0.000000 [a0]

Properties computed using the SCF density matrix

  Nuclear Dipole Moment: [e a0]
     X:     0.0000      Y:     0.0000      Z:     1.0078

  Electronic Dipole Moment: [e a0]
     X:     0.0000      Y:     0.0000      Z:    -0.2344

  Dipole Moment: [e a0]
     X:     0.0000      Y:     0.0000      Z:     0.7733     Total:     0.7733

  Dipole Moment: [D]
     X:     0.0000      Y:     0.0000      Z:     1.9656     Total:     1.9656


*** tstop() called on bp1-compute00115.data.bp.acrc.priv at Tue Apr 27 18:06:19 2021
Module time:
	user time   =      52.93 seconds =       0.88 minutes
	system time =       1.59 seconds =       0.03 minutes
	total time  =          3 seconds =       0.05 minutes
Total time:
	user time   =    1254.40 seconds =      20.91 minutes
	system time =      38.56 seconds =       0.64 minutes
	total time  =         55 seconds =       0.92 minutes

  //>>>>>>>>>>>>>>>>>>>>>>>>>>>>>>>>>>>//
  //    Loading displacement 8 of 8    //
  //<<<<<<<<<<<<<<<<<<<<<<<<<<<<<<<<<<<//

*** tstart() called on bp1-compute00115.data.bp.acrc.priv
*** at Tue Apr 27 18:06:19 2021

   => Loading Basis Set <=

    Name: CC-PV(D+D)Z
    Role: ORBITAL
    Keyword: BASIS
    atoms 1   entry O          line   207 file /work/zw18965/.conda/envs/p4env/share/psi4/basis/cc-pv_dpd_z.gbs 
    atoms 2-3 entry H          line    31 file /work/zw18965/.conda/envs/p4env/share/psi4/basis/cc-pv_dpd_z.gbs 


         ---------------------------------------------------------
                                   SCF
               by Justin Turney, Rob Parrish, Andy Simmonett
                          and Daniel G. A. Smith
                              RKS Reference
                       24 Threads, 137329 MiB Core
         ---------------------------------------------------------

  ==> Geometry <==

    Molecular point group: cs
    Full point group: Cs

    Geometry (in Angstrom), charge = 0, multiplicity = 1:

       Center              X                  Y                   Z               Mass       
    ------------   -----------------  -----------------  -----------------  -----------------
         O            0.000000000000    -0.000176794650    -0.067534203933    15.994914619570
         H            0.000000000000     0.756521590175     0.537029544137     1.007825032230
         H            0.000000000000    -0.753715730787     0.534787280479     1.007825032230

  Running in cs symmetry.

  Rotational constants: A =     25.86239  B =     14.66697  C =      9.35921 [cm^-1]
  Rotational constants: A = 775335.05645  B = 439704.71534  C = 280582.15723 [MHz]
  Nuclear repulsion =    9.109679112525257

  Charge       = 0
  Multiplicity = 1
  Electrons    = 10
  Nalpha       = 5
  Nbeta        = 5

  ==> Algorithm <==

  SCF Algorithm Type is DF.
  DIIS enabled.
  MOM disabled.
  Fractional occupation disabled.
  Guess Type is SAD.
  Energy threshold   = 1.00e-10
  Density threshold  = 1.00e-10
  Integral threshold = 0.00e+00

  ==> Primary Basis <==

  Basis Set: CC-PV(D+D)Z
    Blend: CC-PV(D+D)Z
    Number of shells: 12
    Number of basis function: 24
    Number of Cartesian functions: 25
    Spherical Harmonics?: true
    Max angular momentum: 2

  ==> DFT Potential <==

   => Composite Functional: WB97X-V <= 

    wB97X-V Hyb-GGA Exchange-Correlation Functional

    N. Mardirossian and M. Head-Gordon, Phys. Chem. Chem. Phys. 16, 9904 (2014)

    Deriv               =              1
    GGA                 =           TRUE
    Meta                =          FALSE

    Exchange Hybrid     =           TRUE
    MP2 Hybrid          =          FALSE

   => Exchange-Correlation Functionals <=

    1.0000   wB97X-V range-separated functional

   => Exact (HF) Exchange <=

    0.8330            HF,LR [omega = 0.3000]
    0.1670               HF 

   => VV10 Non-Local Parameters <=

    VV10 B              =     6.0000E+00
    VV10 C              =     1.0000E-02

   => Molecular Quadrature <=

    Radial Scheme          =       TREUTLER
    Pruning Scheme         =           FLAT
    Nuclear Scheme         =       TREUTLER

    BS radius alpha        =              1
    Pruning alpha          =              1
    Radial Points          =             75
    Spherical Points       =            302
    Total Points           =          66407
    Total Blocks           =            561
    Max Points             =            255
    Max Functions          =             24

   => Loading Basis Set <=

    Name: (CC-PV(D+D)Z AUX)
    Role: JKFIT
    Keyword: DF_BASIS_SCF
    atoms 1   entry O          line   221 file /work/zw18965/.conda/envs/p4env/share/psi4/basis/cc-pvdz-jkfit.gbs 
    atoms 2-3 entry H          line    51 file /work/zw18965/.conda/envs/p4env/share/psi4/basis/cc-pvdz-jkfit.gbs 

  ==> Pre-Iterations <==

   -------------------------------------------------------
    Irrep   Nso     Nmo     Nalpha   Nbeta   Ndocc  Nsocc
   -------------------------------------------------------
     A'        18      18       0       0       0       0
     A"         6       6       0       0       0       0
   -------------------------------------------------------
    Total      24      24       5       5       5       0
   -------------------------------------------------------

  ==> Integral Setup <==

  ==> DiskDFJK: Density-Fitted J/K Matrices <==

    J tasked:                  Yes
    K tasked:                  Yes
    wK tasked:                 Yes
    Omega:               3.000E-01
    OpenMP threads:             24
    Integrals threads:          24
    Memory [MiB]:           102951
    Algorithm:                Core
    Integral Cache:           NONE
    Schwarz Cutoff:          1E-12
    Fitting Condition:       1E-10

   => Auxiliary Basis Set <=

  Basis Set: (CC-PV(D+D)Z AUX)
    Blend: CC-PVDZ-JKFIT
    Number of shells: 42
    Number of basis function: 116
    Number of Cartesian functions: 131
    Spherical Harmonics?: true
    Max angular momentum: 3

  Cached 100.0% of DFT collocation blocks in 0.044 [GiB].

  Minimum eigenvalue in the overlap matrix is 3.4598691662E-02.
  Using Symmetric Orthogonalization.

  SCF Guess: Superposition of Atomic Densities via on-the-fly atomic UHF.

  ==> Iterations <==

                           Total Energy        Delta E     RMS |[F,P]|

   @DF-RKS iter SAD:   -75.96710023369693   -7.59671e+01   0.00000e+00 
   @DF-RKS iter   1:   -76.28354673842408   -3.16447e-01   2.80252e-02 DIIS
   @DF-RKS iter   2:   -76.30559822974411   -2.20515e-02   2.64051e-02 DIIS
   @DF-RKS iter   3:   -76.39176091377070   -8.61627e-02   8.13436e-04 DIIS
   @DF-RKS iter   4:   -76.39190288851586   -1.41975e-04   2.24132e-04 DIIS
   @DF-RKS iter   5:   -76.39191377465544   -1.08861e-05   3.04743e-05 DIIS
   @DF-RKS iter   6:   -76.39191409953348   -3.24878e-07   5.15389e-06 DIIS
   @DF-RKS iter   7:   -76.39191411873865   -1.92052e-08   9.45300e-07 DIIS
   @DF-RKS iter   8:   -76.39191411937131   -6.32653e-10   8.93968e-08 DIIS
   @DF-RKS iter   9:   -76.39191411937529   -3.97904e-12   9.93999e-09 DIIS
   @DF-RKS iter  10:   -76.39191411937539   -9.94760e-14   1.53319e-09 DIIS
   @DF-RKS iter  11:   -76.39191411937531    7.10543e-14   1.91037e-10 DIIS
   @DF-RKS iter  12:   -76.39191411937534   -2.84217e-14   1.69086e-11 DIIS
  Energy and wave function converged.


  ==> Post-Iterations <==

    Orbital Energies [Eh]
    ---------------------

    Doubly Occupied:                                                      

       1Ap   -19.209437     2Ap    -1.119067     3Ap    -0.616354  
       4Ap    -0.477799     1App   -0.398026  

    Virtual:                                                              

       5Ap     0.147689     6Ap     0.222282     7Ap     0.660406  
       8Ap     0.725877     9Ap     1.025970     2App    1.046032  
      10Ap     1.115724    11Ap     1.302472     3App    1.348555  
       4App    1.529693    12Ap     1.704868    13Ap     1.788597  
      14Ap     2.216973    15Ap     2.259353     5App    3.036551  
       6App    3.066475    16Ap     3.241690    17Ap     3.565260  
      18Ap     3.855541  

    Final Occupation by Irrep:
             Ap   App 
    DOCC [     4,    1 ]

  @DF-RKS Final Energy:   -76.39191411937534

   => Energetics <=

    Nuclear Repulsion Energy =              9.1096791125252565
    One-Electron Energy =                -123.0060705355853372
    Two-Electron Energy =                  44.0097940362034308
    DFT Exchange-Correlation Energy =      -6.5479831433014404
    Empirical Dispersion Energy =           0.0000000000000000
    VV10 Nonlocal Energy =                  0.0426664107827503
    Total Energy =                        -76.3919141193753433

Computation Completed


Properties will be evaluated at   0.000000,   0.000000,   0.000000 [a0]

Properties computed using the SCF density matrix

  Nuclear Dipole Moment: [e a0]
     X:     0.0000      Y:     0.0026      Z:     1.0045

  Electronic Dipole Moment: [e a0]
     X:     0.0000      Y:    -0.0018      Z:    -0.2328

  Dipole Moment: [e a0]
     X:     0.0000      Y:     0.0009      Z:     0.7717     Total:     0.7717

  Dipole Moment: [D]
     X:     0.0000      Y:     0.0022      Z:     1.9615     Total:     1.9615


*** tstop() called on bp1-compute00115.data.bp.acrc.priv at Tue Apr 27 18:06:21 2021
Module time:
	user time   =      54.30 seconds =       0.91 minutes
	system time =       1.67 seconds =       0.03 minutes
	total time  =          2 seconds =       0.03 minutes
Total time:
	user time   =    1308.83 seconds =      21.81 minutes
	system time =      40.24 seconds =       0.67 minutes
	total time  =         57 seconds =       0.95 minutes

         ----------------------------------------------------------
                                   FINDIF
                     R. A. King and Jonathon Misiewicz
         ---------------------------------------------------------

  Computing second-derivative from energies using projected, 
  symmetry-adapted, cartesian coordinates.

  8 energies passed in, including the reference geometry.
    Using 3-point formula.
    Energy without displacement:  -76.3919213891
    Check energies below for precision!
    0: -1        :       -76.3919181789
    0: 1         :       -76.3919180633
    1: -1        :       -76.3919158436
    1: 1         :       -76.3919170587
    0: 1, 1: 1   :       -76.3919190500
    0: -1, 1: -1 :       -76.3919179677
    2: -1        :       -76.3919141194

-------------------------------------------------------------


  ==> Harmonic Vibrational Analysis <==

  non-mass-weighted Hessian:       Symmetric? True   Hermitian? True   Lin Dep Dim?  6 (0)
  projection of translations (True) and rotations (True) removed 6 degrees of freedom (6)
  total projector:                 Symmetric? True   Hermitian? True   Lin Dep Dim?  6 (6)
  mass-weighted Hessian:           Symmetric? True   Hermitian? True   Lin Dep Dim?  6 (0)
  pre-proj  low-frequency mode:    0.0000i [cm^-1]
  pre-proj  low-frequency mode:    0.0000i [cm^-1]
  pre-proj  low-frequency mode:    0.0000i [cm^-1]
  pre-proj  low-frequency mode:    0.0000  [cm^-1]
  pre-proj  low-frequency mode:    0.0000  [cm^-1]
  pre-proj  low-frequency mode:    0.0000  [cm^-1]
  pre-proj  all modes:['0.0000i' '0.0000i' '0.0000i' '0.0000' '0.0000' '0.0000' '1665.5677'
 '3817.4397' '3920.1941']
  projected mass-weighted Hessian: Symmetric? True   Hermitian? True   Lin Dep Dim?  6 (6)
  post-proj low-frequency mode:    0.0001i [cm^-1] (TR)
  post-proj low-frequency mode:    0.0001i [cm^-1] (TR)
  post-proj low-frequency mode:    0.0000i [cm^-1] (TR)
  post-proj low-frequency mode:    0.0000  [cm^-1] (TR)
  post-proj low-frequency mode:    0.0001  [cm^-1] (TR)
  post-proj low-frequency mode:    0.0001  [cm^-1] (TR)
  post-proj  all modes:['0.0001i' '0.0001i' '0.0000i' '0.0000' '0.0001' '0.0001' '1665.5677'
 '3817.4397' '3920.1941']

  Vibration                       7                   8                   9           
  Freq [cm^-1]                1665.5677           3817.4397           3920.1941       
  Irrep                           A1                  A1                  B2          
  Reduced mass [u]              1.0815              1.0463              1.0801        
  Force const [mDyne/A]         1.7677              8.9833              9.7798        
  Turning point v=0 [a0]        0.2585              0.1736              0.1686        
  RMS dev v=0 [a0 u^1/2]        0.1901              0.1256              0.1239        
  Char temp [K]               2396.3811           5492.4458           5640.2865       
  ----------------------------------------------------------------------------------
      1   O                0.00 -0.00 -0.07   -0.00 -0.00 -0.05    0.00 -0.07  0.00   
      2   H               -0.00 -0.43  0.56   -0.00  0.58  0.40    0.00  0.55  0.44   
      3   H                0.00  0.43  0.56    0.00 -0.58  0.40    0.00  0.55 -0.44   

  ==> Thermochemistry Components <==

  Entropy, S
    Electronic S            0.000 [cal/(mol K)]        0.000 [J/(mol K)]       0.00000000 [mEh/K] (multiplicity = 1)
    Translational S        34.608 [cal/(mol K)]      144.801 [J/(mol K)]       0.05515177 [mEh/K] (mol. weight = 18.0106 [u], P = 101325.00 [Pa])
    Rotational S           10.517 [cal/(mol K)]       44.005 [J/(mol K)]       0.01676050 [mEh/K] (symmetry no. = 2)
    Vibrational S           0.006 [cal/(mol K)]        0.024 [J/(mol K)]       0.00000925 [mEh/K]
  Total S                  45.131 [cal/(mol K)]      188.830 [J/(mol K)]       0.07192153 [mEh/K]
  Correction S              0.000 [cal/(mol K)]        0.000 [J/(mol K)]       0.00000000 [mEh/K]

  Constant volume heat capacity, Cv
    Electronic Cv           0.000 [cal/(mol K)]        0.000 [J/(mol K)]       0.00000000 [mEh/K]
    Translational Cv        2.981 [cal/(mol K)]       12.472 [J/(mol K)]       0.00475022 [mEh/K]
    Rotational Cv           2.981 [cal/(mol K)]       12.472 [J/(mol K)]       0.00475022 [mEh/K]
    Vibrational Cv          0.042 [cal/(mol K)]        0.174 [J/(mol K)]       0.00006616 [mEh/K]
  Total Cv                  6.003 [cal/(mol K)]       25.117 [J/(mol K)]       0.00956659 [mEh/K]
  Correction Cv             0.000 [cal/(mol K)]        0.000 [J/(mol K)]       0.00000000 [mEh/K]

  Constant pressure heat capacity, Cp
    Electronic Cp           0.000 [cal/(mol K)]        0.000 [J/(mol K)]       0.00000000 [mEh/K]
    Translational Cp        4.968 [cal/(mol K)]       20.786 [J/(mol K)]       0.00791703 [mEh/K]
    Rotational Cp           2.981 [cal/(mol K)]       12.472 [J/(mol K)]       0.00475022 [mEh/K]
    Vibrational Cp          0.042 [cal/(mol K)]        0.174 [J/(mol K)]       0.00006616 [mEh/K]
  Total Cp                  7.990 [cal/(mol K)]       33.432 [J/(mol K)]       0.01273341 [mEh/K]
  Correction Cp             0.000 [cal/(mol K)]        0.000 [J/(mol K)]       0.00000000 [mEh/K]

  ==> Thermochemistry Energy Analysis <==

  Raw electronic energy, E0
  Total E0, Electronic energy at well bottom at 0 [K]                  -76.39192139 [Eh]

  Zero-point energy, ZPE_vib = Sum_i nu_i / 2
    Electronic ZPE          0.000 [kcal/mol]        0.000 [kJ/mol]       0.00000000 [Eh]
    Translational ZPE       0.000 [kcal/mol]        0.000 [kJ/mol]       0.00000000 [Eh]
    Rotational ZPE          0.000 [kcal/mol]        0.000 [kJ/mol]       0.00000000 [Eh]
    Vibrational ZPE        13.443 [kcal/mol]       56.244 [kJ/mol]       0.02142207 [Eh]        4701.601 [cm^-1]
  Correction ZPE           13.443 [kcal/mol]       56.244 [kJ/mol]       0.02142207 [Eh]        4701.601 [cm^-1]
  Total ZPE, Electronic energy at 0 [K]                                -76.37049932 [Eh]

  Thermal Energy, E (includes ZPE)
    Electronic E            0.000 [kcal/mol]        0.000 [kJ/mol]       0.00000000 [Eh]
    Translational E         0.889 [kcal/mol]        3.718 [kJ/mol]       0.00141628 [Eh]
    Rotational E            0.889 [kcal/mol]        3.718 [kJ/mol]       0.00141628 [Eh]
    Vibrational E          13.444 [kcal/mol]       56.250 [kJ/mol]       0.02142452 [Eh]
  Correction E             15.222 [kcal/mol]       63.687 [kJ/mol]       0.02425708 [Eh]
  Total E, Electronic energy at  298.15 [K]                            -76.36766431 [Eh]

  Enthalpy, H_trans = E_trans + k_B * T
    Electronic H            0.000 [kcal/mol]        0.000 [kJ/mol]       0.00000000 [Eh]
    Translational H         1.481 [kcal/mol]        6.197 [kJ/mol]       0.00236046 [Eh]
    Rotational H            0.889 [kcal/mol]        3.718 [kJ/mol]       0.00141628 [Eh]
    Vibrational H          13.444 [kcal/mol]       56.250 [kJ/mol]       0.02142452 [Eh]
  Correction H             15.814 [kcal/mol]       66.166 [kJ/mol]       0.02520126 [Eh]
  Total H, Enthalpy at  298.15 [K]                                     -76.36672013 [Eh]

  Gibbs free energy, G = H - T * S
    Electronic G            0.000 [kcal/mol]        0.000 [kJ/mol]       0.00000000 [Eh]
    Translational G        -8.837 [kcal/mol]      -36.975 [kJ/mol]      -0.01408304 [Eh]
    Rotational G           -2.247 [kcal/mol]       -9.402 [kJ/mol]      -0.00358087 [Eh]
    Vibrational G          13.442 [kcal/mol]       56.243 [kJ/mol]       0.02142176 [Eh]
  Correction G              2.358 [kcal/mol]        9.866 [kJ/mol]       0.00375786 [Eh]
  Total G, Free enthalpy at  298.15 [K]                                -76.38816353 [Eh]

    Psi4 stopped on: Tuesday, 27 April 2021 06:06PM
    Psi4 wall time for execution: 0:00:57.54

*** Psi4 exiting successfully. Buy a developer a beer!
