
    -----------------------------------------------------------------------
          Psi4: An Open-Source Ab Initio Electronic Structure Package
                               Psi4 1.3.2 release

                         Git: Rev {HEAD} ecbda83 


    R. M. Parrish, L. A. Burns, D. G. A. Smith, A. C. Simmonett,
    A. E. DePrince III, E. G. Hohenstein, U. Bozkaya, A. Yu. Sokolov,
    R. Di Remigio, R. M. Richard, J. F. Gonthier, A. M. James,
    H. R. McAlexander, A. Kumar, M. Saitow, X. Wang, B. P. Pritchard,
    P. Verma, H. F. Schaefer III, K. Patkowski, R. A. King, E. F. Valeev,
    F. A. Evangelista, J. M. Turney, T. D. Crawford, and C. D. Sherrill,
    J. Chem. Theory Comput. 13(7) pp 3185--3197 (2017).
    (doi: 10.1021/acs.jctc.7b00174)


                         Additional Contributions by
    P. Kraus, H. Kruse, M. H. Lechner, M. C. Schieber, R. A. Shaw,
    A. Alenaizan, R. Galvelis, Z. L. Glick, S. Lehtola, and J. P. Misiewicz

    -----------------------------------------------------------------------


    Psi4 started on: Tuesday, 27 April 2021 06:05PM

    Process ID: 188903
    Host:       bp1-compute00116.data.bp.acrc.priv
    PSIDATADIR: /work/zw18965/.conda/envs/p4env/share/psi4
    Memory:     500.0 MiB
    Threads:    24
    
  ==> Input File <==

--------------------------------------------------------------------------
memory 144 GB

molecule {
0 1
S 0.0000000000 0.0000000000 0.0000000000
H 0.0000000000 0.0000000000 1.3377284100
H 1.3366219004 0.0000000000 -0.0543984776
}

set dynamic_level 1
set basis cc-pV(D+d)Z
 
optimize("wB97X-V")
frequencies("wB97X-V")
--------------------------------------------------------------------------

  Memory set to 134.110 GiB by Python driver.
gradient() will perform gradient computation by finite difference of analytic energies.

         ----------------------------------------------------------
                                   FINDIF
                     R. A. King and Jonathon Misiewicz
         ---------------------------------------------------------

  Using finite-differences of energies to determine gradients.
    Generating geometries for use with 3-point formula.
    Displacement size will be 5.00e-03.
    Number of atoms is 3.
    Number of symmetric SALCs is 2.
    Translations projected? 1. Rotations projected? 1.
    Number of geometries (including reference) is 5.

  //>>>>>>>>>>>>>>>>>>>>>>>>>>>>>>>>>>>//
  //    Loading displacement 1 of 5    //
  //<<<<<<<<<<<<<<<<<<<<<<<<<<<<<<<<<<<//

*** tstart() called on bp1-compute00116.data.bp.acrc.priv
*** at Tue Apr 27 18:05:28 2021

   => Loading Basis Set <=

    Name: CC-PV(D+D)Z
    Role: ORBITAL
    Keyword: BASIS
    atoms 1   entry S          line   613 file /work/zw18965/.conda/envs/p4env/share/psi4/basis/cc-pv_dpd_z.gbs 
    atoms 2-3 entry H          line    31 file /work/zw18965/.conda/envs/p4env/share/psi4/basis/cc-pv_dpd_z.gbs 


         ---------------------------------------------------------
                                   SCF
               by Justin Turney, Rob Parrish, Andy Simmonett
                          and Daniel G. A. Smith
                              RKS Reference
                       24 Threads, 137329 MiB Core
         ---------------------------------------------------------

  ==> Geometry <==

    Molecular point group: c2v
    Full point group: C2v

    Geometry (in Angstrom), charge = 0, multiplicity = 1:

       Center              X                  Y                   Z               Mass       
    ------------   -----------------  -----------------  -----------------  -----------------
         S           -0.000000000000     0.000000000000    -0.054945385977    31.972071174400
         H           -0.000000000000     0.964957949318     0.871539074231     1.007825032230
         H            0.000000000000    -0.964957949318     0.871539074231     1.007825032230

  Running in c2v symmetry.

  Rotational constants: A =     10.35753  B =      8.98182  C =      4.81037 [cm^-1]
  Rotational constants: A = 310511.05038  B = 269268.33579  C = 144211.39450 [MHz]
  Nuclear repulsion =   12.932723691197257

  Charge       = 0
  Multiplicity = 1
  Electrons    = 18
  Nalpha       = 9
  Nbeta        = 9

  ==> Algorithm <==

  SCF Algorithm Type is DF.
  DIIS enabled.
  MOM disabled.
  Fractional occupation disabled.
  Guess Type is SAD.
  Energy threshold   = 1.00e-08
  Density threshold  = 1.00e-08
  Integral threshold = 0.00e+00

  ==> Primary Basis <==

  Basis Set: CC-PV(D+D)Z
    Blend: CC-PV(D+D)Z
    Number of shells: 15
    Number of basis function: 33
    Number of Cartesian functions: 35
    Spherical Harmonics?: true
    Max angular momentum: 2

  ==> DFT Potential <==

   => Composite Functional: WB97X-V <= 

    wB97X-V Hyb-GGA Exchange-Correlation Functional

    N. Mardirossian and M. Head-Gordon, Phys. Chem. Chem. Phys. 16, 9904 (2014)

    Deriv               =              1
    GGA                 =           TRUE
    Meta                =          FALSE

    Exchange Hybrid     =           TRUE
    MP2 Hybrid          =          FALSE

   => Exchange-Correlation Functionals <=

    1.0000   wB97X-V range-separated functional

   => Exact (HF) Exchange <=

    0.8330            HF,LR [omega = 0.3000]
    0.1670               HF 

   => VV10 Non-Local Parameters <=

    VV10 B              =     6.0000E+00
    VV10 C              =     1.0000E-02

   => Molecular Quadrature <=

    Radial Scheme          =       TREUTLER
    Pruning Scheme         =           FLAT
    Nuclear Scheme         =       TREUTLER

    BS radius alpha        =              1
    Pruning alpha          =              1
    Radial Points          =             75
    Spherical Points       =            302
    Total Points           =          65845
    Total Blocks           =            561
    Max Points             =            255
    Max Functions          =             33

   => Loading Basis Set <=

    Name: (CC-PV(D+D)Z AUX)
    Role: JKFIT
    Keyword: DF_BASIS_SCF
    atoms 1   entry S          line   593 file /work/zw18965/.conda/envs/p4env/share/psi4/basis/cc-pvdz-jkfit.gbs 
    atoms 2-3 entry H          line    51 file /work/zw18965/.conda/envs/p4env/share/psi4/basis/cc-pvdz-jkfit.gbs 

  ==> Pre-Iterations <==

   -------------------------------------------------------
    Irrep   Nso     Nmo     Nalpha   Nbeta   Ndocc  Nsocc
   -------------------------------------------------------
     A1        15      15       0       0       0       0
     A2         3       3       0       0       0       0
     B1         6       6       0       0       0       0
     B2         9       9       0       0       0       0
   -------------------------------------------------------
    Total      33      33       9       9       9       0
   -------------------------------------------------------

  ==> Integral Setup <==

  ==> DiskDFJK: Density-Fitted J/K Matrices <==

    J tasked:                  Yes
    K tasked:                  Yes
    wK tasked:                 Yes
    Omega:               3.000E-01
    OpenMP threads:             24
    Integrals threads:          24
    Memory [MiB]:           102935
    Algorithm:                Core
    Integral Cache:           NONE
    Schwarz Cutoff:          1E-12
    Fitting Condition:       1E-10

   => Auxiliary Basis Set <=

  Basis Set: (CC-PV(D+D)Z AUX)
    Blend: CC-PVDZ-JKFIT
    Number of shells: 54
    Number of basis function: 158
    Number of Cartesian functions: 180
    Spherical Harmonics?: true
    Max angular momentum: 3

  Cached 100.0% of DFT collocation blocks in 0.060 [GiB].

  Minimum eigenvalue in the overlap matrix is 3.0269368711E-02.
  Using Symmetric Orthogonalization.

  SCF Guess: Superposition of Atomic Densities via on-the-fly atomic UHF.

  ==> Iterations <==

                           Total Energy        Delta E     RMS |[F,P]|

   @DF-RKS iter SAD:  -399.09816202553225   -3.99098e+02   0.00000e+00 
   @DF-RKS iter   1:  -399.29973286547693   -2.01571e-01   1.12495e-02 DIIS
   @DF-RKS iter   2:  -399.32504395768558   -2.53111e-02   5.77525e-03 DIIS
   @DF-RKS iter   3:  -399.33095698176311   -5.91302e-03   4.86003e-04 DIIS
   @DF-RKS iter   4:  -399.33106846653004   -1.11485e-04   8.18671e-05 DIIS
   @DF-RKS iter   5:  -399.33107211244175   -3.64591e-06   1.01671e-05 DIIS
   @DF-RKS iter   6:  -399.33107215325481   -4.08131e-08   1.67028e-06 DIIS
   @DF-RKS iter   7:  -399.33107215409609   -8.41283e-10   4.59264e-07 DIIS
   @DF-RKS iter   8:  -399.33107215415191   -5.58202e-11   6.05641e-08 DIIS
   @DF-RKS iter   9:  -399.33107215415401   -2.10321e-12   6.43335e-09 DIIS
  Energy and wave function converged.


  ==> Post-Iterations <==

    Orbital Energies [Eh]
    ---------------------

    Doubly Occupied:                                                      

       1A1   -88.877686     2A1    -8.044923     1B2    -6.001719  
       3A1    -5.998210     1B1    -5.990897     4A1    -0.867869  
       2B2    -0.547185     5A1    -0.465661     2B1    -0.358657  

    Virtual:                                                              

       3B2     0.119454     6A1     0.124915     4B2     0.392419  
       7A1     0.454555     8A1     0.569153     9A1     0.604351  
       1A2     0.608546     3B1     0.610018     4B1     0.622677  
       5B2     0.697596    10A1     0.759804    11A1     0.991716  
       6B2     1.037797     7B2     1.471436     2A2     1.482134  
       5B1     1.583270    12A1     1.635564    13A1     2.146268  
       8B2     2.210576     3A2     4.575672     6B1     4.582537  
      14A1     4.611157    15A1     4.649097     9B2     4.778862  

    Final Occupation by Irrep:
             A1    A2    B1    B2 
    DOCC [     5,    0,    2,    2 ]

  @DF-RKS Final Energy:  -399.33107215415401

   => Energetics <=

    Nuclear Repulsion Energy =             12.9327236911972570
    One-Electron Energy =                -576.8097753033135859
    Two-Electron Energy =                 184.2198663848436979
    DFT Exchange-Correlation Energy =     -19.7497206504961298
    Empirical Dispersion Energy =           0.0000000000000000
    VV10 Nonlocal Energy =                  0.0758337236147728
    Total Energy =                       -399.3310721541539579

Computation Completed


Properties will be evaluated at   0.000000,   0.000000,   0.000000 [a0]

Properties computed using the SCF density matrix

  Nuclear Dipole Moment: [e a0]
     X:    -0.0000      Y:     0.0000      Z:     1.6326

  Electronic Dipole Moment: [e a0]
     X:     0.0000      Y:     0.0000      Z:    -1.1340

  Dipole Moment: [e a0]
     X:    -0.0000      Y:     0.0000      Z:     0.4986     Total:     0.4986

  Dipole Moment: [D]
     X:    -0.0000      Y:     0.0000      Z:     1.2674     Total:     1.2674


*** tstop() called on bp1-compute00116.data.bp.acrc.priv at Tue Apr 27 18:05:30 2021
Module time:
	user time   =      48.99 seconds =       0.82 minutes
	system time =       1.74 seconds =       0.03 minutes
	total time  =          2 seconds =       0.03 minutes
Total time:
	user time   =      48.99 seconds =       0.82 minutes
	system time =       1.74 seconds =       0.03 minutes
	total time  =          2 seconds =       0.03 minutes

  //>>>>>>>>>>>>>>>>>>>>>>>>>>>>>>>>>>>//
  //    Loading displacement 2 of 5    //
  //<<<<<<<<<<<<<<<<<<<<<<<<<<<<<<<<<<<//

*** tstart() called on bp1-compute00116.data.bp.acrc.priv
*** at Tue Apr 27 18:05:30 2021

   => Loading Basis Set <=

    Name: CC-PV(D+D)Z
    Role: ORBITAL
    Keyword: BASIS
    atoms 1   entry S          line   613 file /work/zw18965/.conda/envs/p4env/share/psi4/basis/cc-pv_dpd_z.gbs 
    atoms 2-3 entry H          line    31 file /work/zw18965/.conda/envs/p4env/share/psi4/basis/cc-pv_dpd_z.gbs 


         ---------------------------------------------------------
                                   SCF
               by Justin Turney, Rob Parrish, Andy Simmonett
                          and Daniel G. A. Smith
                              RKS Reference
                       24 Threads, 137329 MiB Core
         ---------------------------------------------------------

  ==> Geometry <==

    Molecular point group: c2v
    Full point group: C2v

    Geometry (in Angstrom), charge = 0, multiplicity = 1:

       Center              X                  Y                   Z               Mass       
    ------------   -----------------  -----------------  -----------------  -----------------
         S           -0.000000000000     0.000000000000    -0.055059340691    31.972071174400
         H           -0.000000000000     0.964957949318     0.873346614288     1.007825032230
         H            0.000000000000    -0.964957949318     0.873346614288     1.007825032230

  Running in c2v symmetry.

  Rotational constants: A =     10.31470  B =      8.98182  C =      4.80112 [cm^-1]
  Rotational constants: A = 309227.06911  B = 269268.33579  C = 143933.82830 [MHz]
  Nuclear repulsion =   12.920136565049020

  Charge       = 0
  Multiplicity = 1
  Electrons    = 18
  Nalpha       = 9
  Nbeta        = 9

  ==> Algorithm <==

  SCF Algorithm Type is DF.
  DIIS enabled.
  MOM disabled.
  Fractional occupation disabled.
  Guess Type is SAD.
  Energy threshold   = 1.00e-08
  Density threshold  = 1.00e-08
  Integral threshold = 0.00e+00

  ==> Primary Basis <==

  Basis Set: CC-PV(D+D)Z
    Blend: CC-PV(D+D)Z
    Number of shells: 15
    Number of basis function: 33
    Number of Cartesian functions: 35
    Spherical Harmonics?: true
    Max angular momentum: 2

  ==> DFT Potential <==

   => Composite Functional: WB97X-V <= 

    wB97X-V Hyb-GGA Exchange-Correlation Functional

    N. Mardirossian and M. Head-Gordon, Phys. Chem. Chem. Phys. 16, 9904 (2014)

    Deriv               =              1
    GGA                 =           TRUE
    Meta                =          FALSE

    Exchange Hybrid     =           TRUE
    MP2 Hybrid          =          FALSE

   => Exchange-Correlation Functionals <=

    1.0000   wB97X-V range-separated functional

   => Exact (HF) Exchange <=

    0.8330            HF,LR [omega = 0.3000]
    0.1670               HF 

   => VV10 Non-Local Parameters <=

    VV10 B              =     6.0000E+00
    VV10 C              =     1.0000E-02

   => Molecular Quadrature <=

    Radial Scheme          =       TREUTLER
    Pruning Scheme         =           FLAT
    Nuclear Scheme         =       TREUTLER

    BS radius alpha        =              1
    Pruning alpha          =              1
    Radial Points          =             75
    Spherical Points       =            302
    Total Points           =          65845
    Total Blocks           =            560
    Max Points             =            256
    Max Functions          =             33

   => Loading Basis Set <=

    Name: (CC-PV(D+D)Z AUX)
    Role: JKFIT
    Keyword: DF_BASIS_SCF
    atoms 1   entry S          line   593 file /work/zw18965/.conda/envs/p4env/share/psi4/basis/cc-pvdz-jkfit.gbs 
    atoms 2-3 entry H          line    51 file /work/zw18965/.conda/envs/p4env/share/psi4/basis/cc-pvdz-jkfit.gbs 

  ==> Pre-Iterations <==

   -------------------------------------------------------
    Irrep   Nso     Nmo     Nalpha   Nbeta   Ndocc  Nsocc
   -------------------------------------------------------
     A1        15      15       0       0       0       0
     A2         3       3       0       0       0       0
     B1         6       6       0       0       0       0
     B2         9       9       0       0       0       0
   -------------------------------------------------------
    Total      33      33       9       9       9       0
   -------------------------------------------------------

  ==> Integral Setup <==

  ==> DiskDFJK: Density-Fitted J/K Matrices <==

    J tasked:                  Yes
    K tasked:                  Yes
    wK tasked:                 Yes
    Omega:               3.000E-01
    OpenMP threads:             24
    Integrals threads:          24
    Memory [MiB]:           102935
    Algorithm:                Core
    Integral Cache:           NONE
    Schwarz Cutoff:          1E-12
    Fitting Condition:       1E-10

   => Auxiliary Basis Set <=

  Basis Set: (CC-PV(D+D)Z AUX)
    Blend: CC-PVDZ-JKFIT
    Number of shells: 54
    Number of basis function: 158
    Number of Cartesian functions: 180
    Spherical Harmonics?: true
    Max angular momentum: 3

  Cached 100.0% of DFT collocation blocks in 0.060 [GiB].

  Minimum eigenvalue in the overlap matrix is 3.0312147380E-02.
  Using Symmetric Orthogonalization.

  SCF Guess: Superposition of Atomic Densities via on-the-fly atomic UHF.

  ==> Iterations <==

                           Total Energy        Delta E     RMS |[F,P]|

   @DF-RKS iter SAD:  -399.09681427419667   -3.99097e+02   0.00000e+00 
   @DF-RKS iter   1:  -399.29969492659075   -2.02881e-01   1.12562e-02 DIIS
   @DF-RKS iter   2:  -399.32503105293517   -2.53361e-02   5.78857e-03 DIIS
   @DF-RKS iter   3:  -399.33097668849399   -5.94564e-03   4.86196e-04 DIIS
   @DF-RKS iter   4:  -399.33108823067016   -1.11542e-04   8.19995e-05 DIIS
   @DF-RKS iter   5:  -399.33109189371618   -3.66305e-06   1.02087e-05 DIIS
   @DF-RKS iter   6:  -399.33109193503179   -4.13156e-08   1.67202e-06 DIIS
   @DF-RKS iter   7:  -399.33109193588490   -8.53106e-10   4.61655e-07 DIIS
   @DF-RKS iter   8:  -399.33109193594203   -5.71276e-11   6.17303e-08 DIIS
   @DF-RKS iter   9:  -399.33109193594430   -2.27374e-12   6.59321e-09 DIIS
  Energy and wave function converged.


  ==> Post-Iterations <==

    Orbital Energies [Eh]
    ---------------------

    Doubly Occupied:                                                      

       1A1   -88.877872     2A1    -8.045043     1B2    -6.001839  
       3A1    -5.998343     1B1    -5.991017     4A1    -0.867610  
       2B2    -0.546683     5A1    -0.465792     2B1    -0.358645  

    Virtual:                                                              

       3B2     0.119014     6A1     0.124684     4B2     0.392710  
       7A1     0.454925     8A1     0.569094     9A1     0.604208  
       1A2     0.608689     3B1     0.610056     4B1     0.622574  
       5B2     0.697308    10A1     0.759196    11A1     0.991454  
       6B2     1.036439     7B2     1.471981     2A2     1.481526  
       5B1     1.582804    12A1     1.633963    13A1     2.144753  
       8B2     2.208316     3A2     4.575399     6B1     4.582446  
      14A1     4.610688    15A1     4.649343     9B2     4.778854  

    Final Occupation by Irrep:
             A1    A2    B1    B2 
    DOCC [     5,    0,    2,    2 ]

  @DF-RKS Final Energy:  -399.33109193594430

   => Energetics <=

    Nuclear Repulsion Energy =             12.9201365650490203
    One-Electron Energy =                -576.7849729933698200
    Two-Electron Energy =                 184.2069972794467105
    DFT Exchange-Correlation Energy =     -19.7490856537580584
    Empirical Dispersion Energy =           0.0000000000000000
    VV10 Nonlocal Energy =                  0.0758328666878523
    Total Energy =                       -399.3310919359443574

Computation Completed


Properties will be evaluated at   0.000000,   0.000000,   0.000000 [a0]

Properties computed using the SCF density matrix

  Nuclear Dipole Moment: [e a0]
     X:    -0.0000      Y:     0.0000      Z:     1.6360

  Electronic Dipole Moment: [e a0]
     X:     0.0000      Y:     0.0000      Z:    -1.1375

  Dipole Moment: [e a0]
     X:    -0.0000      Y:     0.0000      Z:     0.4985     Total:     0.4985

  Dipole Moment: [D]
     X:    -0.0000      Y:     0.0000      Z:     1.2670     Total:     1.2670


*** tstop() called on bp1-compute00116.data.bp.acrc.priv at Tue Apr 27 18:05:32 2021
Module time:
	user time   =      50.44 seconds =       0.84 minutes
	system time =       1.95 seconds =       0.03 minutes
	total time  =          2 seconds =       0.03 minutes
Total time:
	user time   =      99.59 seconds =       1.66 minutes
	system time =       3.72 seconds =       0.06 minutes
	total time  =          4 seconds =       0.07 minutes

  //>>>>>>>>>>>>>>>>>>>>>>>>>>>>>>>>>>>//
  //    Loading displacement 3 of 5    //
  //<<<<<<<<<<<<<<<<<<<<<<<<<<<<<<<<<<<//

*** tstart() called on bp1-compute00116.data.bp.acrc.priv
*** at Tue Apr 27 18:05:32 2021

   => Loading Basis Set <=

    Name: CC-PV(D+D)Z
    Role: ORBITAL
    Keyword: BASIS
    atoms 1   entry S          line   613 file /work/zw18965/.conda/envs/p4env/share/psi4/basis/cc-pv_dpd_z.gbs 
    atoms 2-3 entry H          line    31 file /work/zw18965/.conda/envs/p4env/share/psi4/basis/cc-pv_dpd_z.gbs 


         ---------------------------------------------------------
                                   SCF
               by Justin Turney, Rob Parrish, Andy Simmonett
                          and Daniel G. A. Smith
                              RKS Reference
                       24 Threads, 137329 MiB Core
         ---------------------------------------------------------

  ==> Geometry <==

    Molecular point group: c2v
    Full point group: C2v

    Geometry (in Angstrom), charge = 0, multiplicity = 1:

       Center              X                  Y                   Z               Mass       
    ------------   -----------------  -----------------  -----------------  -----------------
         S           -0.000000000000     0.000000000000    -0.054831431263    31.972071174400
         H           -0.000000000000     0.964957949318     0.869731534174     1.007825032230
         H            0.000000000000    -0.964957949318     0.869731534174     1.007825032230

  Running in c2v symmetry.

  Rotational constants: A =     10.40063  B =      8.98182  C =      4.81965 [cm^-1]
  Rotational constants: A = 311803.04537  B = 269268.33579  C = 144489.45490 [MHz]
  Nuclear repulsion =   12.945322282799047

  Charge       = 0
  Multiplicity = 1
  Electrons    = 18
  Nalpha       = 9
  Nbeta        = 9

  ==> Algorithm <==

  SCF Algorithm Type is DF.
  DIIS enabled.
  MOM disabled.
  Fractional occupation disabled.
  Guess Type is SAD.
  Energy threshold   = 1.00e-08
  Density threshold  = 1.00e-08
  Integral threshold = 0.00e+00

  ==> Primary Basis <==

  Basis Set: CC-PV(D+D)Z
    Blend: CC-PV(D+D)Z
    Number of shells: 15
    Number of basis function: 33
    Number of Cartesian functions: 35
    Spherical Harmonics?: true
    Max angular momentum: 2

  ==> DFT Potential <==

   => Composite Functional: WB97X-V <= 

    wB97X-V Hyb-GGA Exchange-Correlation Functional

    N. Mardirossian and M. Head-Gordon, Phys. Chem. Chem. Phys. 16, 9904 (2014)

    Deriv               =              1
    GGA                 =           TRUE
    Meta                =          FALSE

    Exchange Hybrid     =           TRUE
    MP2 Hybrid          =          FALSE

   => Exchange-Correlation Functionals <=

    1.0000   wB97X-V range-separated functional

   => Exact (HF) Exchange <=

    0.8330            HF,LR [omega = 0.3000]
    0.1670               HF 

   => VV10 Non-Local Parameters <=

    VV10 B              =     6.0000E+00
    VV10 C              =     1.0000E-02

   => Molecular Quadrature <=

    Radial Scheme          =       TREUTLER
    Pruning Scheme         =           FLAT
    Nuclear Scheme         =       TREUTLER

    BS radius alpha        =              1
    Pruning alpha          =              1
    Radial Points          =             75
    Spherical Points       =            302
    Total Points           =          65845
    Total Blocks           =            561
    Max Points             =            255
    Max Functions          =             33

   => Loading Basis Set <=

    Name: (CC-PV(D+D)Z AUX)
    Role: JKFIT
    Keyword: DF_BASIS_SCF
    atoms 1   entry S          line   593 file /work/zw18965/.conda/envs/p4env/share/psi4/basis/cc-pvdz-jkfit.gbs 
    atoms 2-3 entry H          line    51 file /work/zw18965/.conda/envs/p4env/share/psi4/basis/cc-pvdz-jkfit.gbs 

  ==> Pre-Iterations <==

   -------------------------------------------------------
    Irrep   Nso     Nmo     Nalpha   Nbeta   Ndocc  Nsocc
   -------------------------------------------------------
     A1        15      15       0       0       0       0
     A2         3       3       0       0       0       0
     B1         6       6       0       0       0       0
     B2         9       9       0       0       0       0
   -------------------------------------------------------
    Total      33      33       9       9       9       0
   -------------------------------------------------------

  ==> Integral Setup <==

  ==> DiskDFJK: Density-Fitted J/K Matrices <==

    J tasked:                  Yes
    K tasked:                  Yes
    wK tasked:                 Yes
    Omega:               3.000E-01
    OpenMP threads:             24
    Integrals threads:          24
    Memory [MiB]:           102935
    Algorithm:                Core
    Integral Cache:           NONE
    Schwarz Cutoff:          1E-12
    Fitting Condition:       1E-10

   => Auxiliary Basis Set <=

  Basis Set: (CC-PV(D+D)Z AUX)
    Blend: CC-PVDZ-JKFIT
    Number of shells: 54
    Number of basis function: 158
    Number of Cartesian functions: 180
    Spherical Harmonics?: true
    Max angular momentum: 3

  Cached 100.0% of DFT collocation blocks in 0.060 [GiB].

  Minimum eigenvalue in the overlap matrix is 3.0226811039E-02.
  Using Symmetric Orthogonalization.

  SCF Guess: Superposition of Atomic Densities via on-the-fly atomic UHF.

  ==> Iterations <==

                           Total Energy        Delta E     RMS |[F,P]|

   @DF-RKS iter SAD:  -399.09950727551848   -3.99100e+02   0.00000e+00 
   @DF-RKS iter   1:  -399.29976607007643   -2.00259e-01   1.12429e-02 DIIS
   @DF-RKS iter   2:  -399.32505225669615   -2.52862e-02   5.76200e-03 DIIS
   @DF-RKS iter   3:  -399.33093295758522   -5.88070e-03   4.85813e-04 DIIS
   @DF-RKS iter   4:  -399.33104438618551   -1.11429e-04   8.17361e-05 DIIS
   @DF-RKS iter   5:  -399.33104801522052   -3.62904e-06   1.01262e-05 DIIS
   @DF-RKS iter   6:  -399.33104805554325   -4.03227e-08   1.66836e-06 DIIS
   @DF-RKS iter   7:  -399.33104805637350   -8.30255e-10   4.56892e-07 DIIS
   @DF-RKS iter   8:  -399.33104805642813   -5.46265e-11   5.94000e-08 DIIS
   @DF-RKS iter   9:  -399.33104805642984   -1.70530e-12   6.26619e-09 DIIS
  Energy and wave function converged.


  ==> Post-Iterations <==

    Orbital Energies [Eh]
    ---------------------

    Doubly Occupied:                                                      

       1A1   -88.877501     2A1    -8.044804     1B2    -6.001599  
       3A1    -5.998077     1B1    -5.990778     4A1    -0.868130  
       2B2    -0.547688     5A1    -0.465528     2B1    -0.358669  

    Virtual:                                                              

       3B2     0.119895     6A1     0.125146     4B2     0.392129  
       7A1     0.454181     8A1     0.569215     9A1     0.604494  
       1A2     0.608403     3B1     0.609980     4B1     0.622781  
       5B2     0.697885    10A1     0.760412    11A1     0.991980  
       6B2     1.039157     7B2     1.470889     2A2     1.482746  
       5B1     1.583734    12A1     1.637165    13A1     2.147782  
       8B2     2.212841     3A2     4.575946     6B1     4.582626  
      14A1     4.611624    15A1     4.648853     9B2     4.778867  

    Final Occupation by Irrep:
             A1    A2    B1    B2 
    DOCC [     5,    0,    2,    2 ]

  @DF-RKS Final Energy:  -399.33104805642984

   => Energetics <=

    Nuclear Repulsion Energy =             12.9453222827990473
    One-Electron Energy =                -576.8345897252229406
    Two-Electron Energy =                 184.2327408254359398
    DFT Exchange-Correlation Energy =     -19.7503560197102246
    Empirical Dispersion Energy =           0.0000000000000000
    VV10 Nonlocal Energy =                  0.0758345802684101
    Total Energy =                       -399.3310480564298359

Computation Completed


Properties will be evaluated at   0.000000,   0.000000,   0.000000 [a0]

Properties computed using the SCF density matrix

  Nuclear Dipole Moment: [e a0]
     X:    -0.0000      Y:     0.0000      Z:     1.6292

  Electronic Dipole Moment: [e a0]
     X:     0.0000      Y:     0.0000      Z:    -1.1305

  Dipole Moment: [e a0]
     X:    -0.0000      Y:     0.0000      Z:     0.4988     Total:     0.4988

  Dipole Moment: [D]
     X:    -0.0000      Y:     0.0000      Z:     1.2678     Total:     1.2678


*** tstop() called on bp1-compute00116.data.bp.acrc.priv at Tue Apr 27 18:05:34 2021
Module time:
	user time   =      49.15 seconds =       0.82 minutes
	system time =       1.50 seconds =       0.03 minutes
	total time  =          2 seconds =       0.03 minutes
Total time:
	user time   =     148.91 seconds =       2.48 minutes
	system time =       5.22 seconds =       0.09 minutes
	total time  =          6 seconds =       0.10 minutes

  //>>>>>>>>>>>>>>>>>>>>>>>>>>>>>>>>>>>//
  //    Loading displacement 4 of 5    //
  //<<<<<<<<<<<<<<<<<<<<<<<<<<<<<<<<<<<//

*** tstart() called on bp1-compute00116.data.bp.acrc.priv
*** at Tue Apr 27 18:05:34 2021

   => Loading Basis Set <=

    Name: CC-PV(D+D)Z
    Role: ORBITAL
    Keyword: BASIS
    atoms 1   entry S          line   613 file /work/zw18965/.conda/envs/p4env/share/psi4/basis/cc-pv_dpd_z.gbs 
    atoms 2-3 entry H          line    31 file /work/zw18965/.conda/envs/p4env/share/psi4/basis/cc-pv_dpd_z.gbs 


         ---------------------------------------------------------
                                   SCF
               by Justin Turney, Rob Parrish, Andy Simmonett
                          and Daniel G. A. Smith
                              RKS Reference
                       24 Threads, 137329 MiB Core
         ---------------------------------------------------------

  ==> Geometry <==

    Molecular point group: c2v
    Full point group: C2v

    Geometry (in Angstrom), charge = 0, multiplicity = 1:

       Center              X                  Y                   Z               Mass       
    ------------   -----------------  -----------------  -----------------  -----------------
         S           -0.000000000000     0.000000000000    -0.054945385977    31.972071174400
         H           -0.000000000000     0.963094302686     0.871539074231     1.007825032230
         H            0.000000000000    -0.963094302686     0.871539074231     1.007825032230

  Running in c2v symmetry.

  Rotational constants: A =     10.35753  B =      9.01662  C =      4.82034 [cm^-1]
  Rotational constants: A = 310511.05038  B = 270311.44559  C = 144510.05511 [MHz]
  Nuclear repulsion =   12.945982106081932

  Charge       = 0
  Multiplicity = 1
  Electrons    = 18
  Nalpha       = 9
  Nbeta        = 9

  ==> Algorithm <==

  SCF Algorithm Type is DF.
  DIIS enabled.
  MOM disabled.
  Fractional occupation disabled.
  Guess Type is SAD.
  Energy threshold   = 1.00e-08
  Density threshold  = 1.00e-08
  Integral threshold = 0.00e+00

  ==> Primary Basis <==

  Basis Set: CC-PV(D+D)Z
    Blend: CC-PV(D+D)Z
    Number of shells: 15
    Number of basis function: 33
    Number of Cartesian functions: 35
    Spherical Harmonics?: true
    Max angular momentum: 2

  ==> DFT Potential <==

   => Composite Functional: WB97X-V <= 

    wB97X-V Hyb-GGA Exchange-Correlation Functional

    N. Mardirossian and M. Head-Gordon, Phys. Chem. Chem. Phys. 16, 9904 (2014)

    Deriv               =              1
    GGA                 =           TRUE
    Meta                =          FALSE

    Exchange Hybrid     =           TRUE
    MP2 Hybrid          =          FALSE

   => Exchange-Correlation Functionals <=

    1.0000   wB97X-V range-separated functional

   => Exact (HF) Exchange <=

    0.8330            HF,LR [omega = 0.3000]
    0.1670               HF 

   => VV10 Non-Local Parameters <=

    VV10 B              =     6.0000E+00
    VV10 C              =     1.0000E-02

   => Molecular Quadrature <=

    Radial Scheme          =       TREUTLER
    Pruning Scheme         =           FLAT
    Nuclear Scheme         =       TREUTLER

    BS radius alpha        =              1
    Pruning alpha          =              1
    Radial Points          =             75
    Spherical Points       =            302
    Total Points           =          65845
    Total Blocks           =            561
    Max Points             =            255
    Max Functions          =             33

   => Loading Basis Set <=

    Name: (CC-PV(D+D)Z AUX)
    Role: JKFIT
    Keyword: DF_BASIS_SCF
    atoms 1   entry S          line   593 file /work/zw18965/.conda/envs/p4env/share/psi4/basis/cc-pvdz-jkfit.gbs 
    atoms 2-3 entry H          line    51 file /work/zw18965/.conda/envs/p4env/share/psi4/basis/cc-pvdz-jkfit.gbs 

  ==> Pre-Iterations <==

   -------------------------------------------------------
    Irrep   Nso     Nmo     Nalpha   Nbeta   Ndocc  Nsocc
   -------------------------------------------------------
     A1        15      15       0       0       0       0
     A2         3       3       0       0       0       0
     B1         6       6       0       0       0       0
     B2         9       9       0       0       0       0
   -------------------------------------------------------
    Total      33      33       9       9       9       0
   -------------------------------------------------------

  ==> Integral Setup <==

  ==> DiskDFJK: Density-Fitted J/K Matrices <==

    J tasked:                  Yes
    K tasked:                  Yes
    wK tasked:                 Yes
    Omega:               3.000E-01
    OpenMP threads:             24
    Integrals threads:          24
    Memory [MiB]:           102935
    Algorithm:                Core
    Integral Cache:           NONE
    Schwarz Cutoff:          1E-12
    Fitting Condition:       1E-10

   => Auxiliary Basis Set <=

  Basis Set: (CC-PV(D+D)Z AUX)
    Blend: CC-PVDZ-JKFIT
    Number of shells: 54
    Number of basis function: 158
    Number of Cartesian functions: 180
    Spherical Harmonics?: true
    Max angular momentum: 3

  Cached 100.0% of DFT collocation blocks in 0.060 [GiB].

  Minimum eigenvalue in the overlap matrix is 3.0198645520E-02.
  Using Symmetric Orthogonalization.

  SCF Guess: Superposition of Atomic Densities via on-the-fly atomic UHF.

  ==> Iterations <==

                           Total Energy        Delta E     RMS |[F,P]|

   @DF-RKS iter SAD:  -399.09970071985822   -3.99100e+02   0.00000e+00 
   @DF-RKS iter   1:  -399.29977135838686   -2.00071e-01   1.12413e-02 DIIS
   @DF-RKS iter   2:  -399.32503830976810   -2.52670e-02   5.76636e-03 DIIS
   @DF-RKS iter   3:  -399.33092957800011   -5.89127e-03   4.85857e-04 DIIS
   @DF-RKS iter   4:  -399.33104098669793   -1.11409e-04   8.20845e-05 DIIS
   @DF-RKS iter   5:  -399.33104464191939   -3.65522e-06   1.02510e-05 DIIS
   @DF-RKS iter   6:  -399.33104468325399   -4.13346e-08   1.81986e-06 DIIS
   @DF-RKS iter   7:  -399.33104468418583   -9.31834e-10   4.72260e-07 DIIS
   @DF-RKS iter   8:  -399.33104468424801   -6.21867e-11   6.08385e-08 DIIS
   @DF-RKS iter   9:  -399.33104468425012   -2.10321e-12   6.49778e-09 DIIS
  Energy and wave function converged.


  ==> Post-Iterations <==

    Orbital Energies [Eh]
    ---------------------

    Doubly Occupied:                                                      

       1A1   -88.877518     2A1    -8.044819     1B2    -6.001607  
       3A1    -5.998103     1B1    -5.990791     4A1    -0.868183  
       2B2    -0.547273     5A1    -0.465891     2B1    -0.358680  

    Virtual:                                                              

       3B2     0.119654     6A1     0.125261     4B2     0.392220  
       7A1     0.454784     8A1     0.568880     9A1     0.604386  
       1A2     0.608575     3B1     0.609943     4B1     0.622625  
       5B2     0.697780    10A1     0.760348    11A1     0.992538  
       6B2     1.038437     7B2     1.473038     2A2     1.482490  
       5B1     1.584095    12A1     1.635520    13A1     2.148434  
       8B2     2.212166     3A2     4.575747     6B1     4.582826  
      14A1     4.611042    15A1     4.649772     9B2     4.778566  

    Final Occupation by Irrep:
             A1    A2    B1    B2 
    DOCC [     5,    0,    2,    2 ]

  @DF-RKS Final Energy:  -399.33104468425012

   => Energetics <=

    Nuclear Repulsion Energy =             12.9459821060819316
    One-Electron Energy =                -576.8357043926208689
    Two-Electron Energy =                 184.2332206502922247
    DFT Exchange-Correlation Energy =     -19.7503773723280993
    Empirical Dispersion Energy =           0.0000000000000000
    VV10 Nonlocal Energy =                  0.0758343243247080
    Total Energy =                       -399.3310446842501165

Computation Completed


Properties will be evaluated at   0.000000,   0.000000,   0.000000 [a0]

Properties computed using the SCF density matrix

  Nuclear Dipole Moment: [e a0]
     X:     0.0000      Y:     0.0000      Z:     1.6326

  Electronic Dipole Moment: [e a0]
     X:     0.0000      Y:     0.0000      Z:    -1.1341

  Dipole Moment: [e a0]
     X:     0.0000      Y:     0.0000      Z:     0.4985     Total:     0.4985

  Dipole Moment: [D]
     X:     0.0000      Y:     0.0000      Z:     1.2672     Total:     1.2672


*** tstop() called on bp1-compute00116.data.bp.acrc.priv at Tue Apr 27 18:05:36 2021
Module time:
	user time   =      48.66 seconds =       0.81 minutes
	system time =       1.55 seconds =       0.03 minutes
	total time  =          2 seconds =       0.03 minutes
Total time:
	user time   =     197.70 seconds =       3.29 minutes
	system time =       6.78 seconds =       0.11 minutes
	total time  =          8 seconds =       0.13 minutes

  //>>>>>>>>>>>>>>>>>>>>>>>>>>>>>>>>>>>//
  //    Loading displacement 5 of 5    //
  //<<<<<<<<<<<<<<<<<<<<<<<<<<<<<<<<<<<//

*** tstart() called on bp1-compute00116.data.bp.acrc.priv
*** at Tue Apr 27 18:05:36 2021

   => Loading Basis Set <=

    Name: CC-PV(D+D)Z
    Role: ORBITAL
    Keyword: BASIS
    atoms 1   entry S          line   613 file /work/zw18965/.conda/envs/p4env/share/psi4/basis/cc-pv_dpd_z.gbs 
    atoms 2-3 entry H          line    31 file /work/zw18965/.conda/envs/p4env/share/psi4/basis/cc-pv_dpd_z.gbs 


         ---------------------------------------------------------
                                   SCF
               by Justin Turney, Rob Parrish, Andy Simmonett
                          and Daniel G. A. Smith
                              RKS Reference
                       24 Threads, 137329 MiB Core
         ---------------------------------------------------------

  ==> Geometry <==

    Molecular point group: c2v
    Full point group: C2v

    Geometry (in Angstrom), charge = 0, multiplicity = 1:

       Center              X                  Y                   Z               Mass       
    ------------   -----------------  -----------------  -----------------  -----------------
         S           -0.000000000000     0.000000000000    -0.054945385977    31.972071174400
         H           -0.000000000000     0.966821595950     0.871539074231     1.007825032230
         H            0.000000000000    -0.966821595950     0.871539074231     1.007825032230

  Running in c2v symmetry.

  Rotational constants: A =     10.35753  B =      8.94723  C =      4.80043 [cm^-1]
  Rotational constants: A = 310511.05038  B = 268231.25227  C = 143913.39203 [MHz]
  Nuclear repulsion =   12.919481104525435

  Charge       = 0
  Multiplicity = 1
  Electrons    = 18
  Nalpha       = 9
  Nbeta        = 9

  ==> Algorithm <==

  SCF Algorithm Type is DF.
  DIIS enabled.
  MOM disabled.
  Fractional occupation disabled.
  Guess Type is SAD.
  Energy threshold   = 1.00e-08
  Density threshold  = 1.00e-08
  Integral threshold = 0.00e+00

  ==> Primary Basis <==

  Basis Set: CC-PV(D+D)Z
    Blend: CC-PV(D+D)Z
    Number of shells: 15
    Number of basis function: 33
    Number of Cartesian functions: 35
    Spherical Harmonics?: true
    Max angular momentum: 2

  ==> DFT Potential <==

   => Composite Functional: WB97X-V <= 

    wB97X-V Hyb-GGA Exchange-Correlation Functional

    N. Mardirossian and M. Head-Gordon, Phys. Chem. Chem. Phys. 16, 9904 (2014)

    Deriv               =              1
    GGA                 =           TRUE
    Meta                =          FALSE

    Exchange Hybrid     =           TRUE
    MP2 Hybrid          =          FALSE

   => Exchange-Correlation Functionals <=

    1.0000   wB97X-V range-separated functional

   => Exact (HF) Exchange <=

    0.8330            HF,LR [omega = 0.3000]
    0.1670               HF 

   => VV10 Non-Local Parameters <=

    VV10 B              =     6.0000E+00
    VV10 C              =     1.0000E-02

   => Molecular Quadrature <=

    Radial Scheme          =       TREUTLER
    Pruning Scheme         =           FLAT
    Nuclear Scheme         =       TREUTLER

    BS radius alpha        =              1
    Pruning alpha          =              1
    Radial Points          =             75
    Spherical Points       =            302
    Total Points           =          65845
    Total Blocks           =            561
    Max Points             =            255
    Max Functions          =             33

   => Loading Basis Set <=

    Name: (CC-PV(D+D)Z AUX)
    Role: JKFIT
    Keyword: DF_BASIS_SCF
    atoms 1   entry S          line   593 file /work/zw18965/.conda/envs/p4env/share/psi4/basis/cc-pvdz-jkfit.gbs 
    atoms 2-3 entry H          line    51 file /work/zw18965/.conda/envs/p4env/share/psi4/basis/cc-pvdz-jkfit.gbs 

  ==> Pre-Iterations <==

   -------------------------------------------------------
    Irrep   Nso     Nmo     Nalpha   Nbeta   Ndocc  Nsocc
   -------------------------------------------------------
     A1        15      15       0       0       0       0
     A2         3       3       0       0       0       0
     B1         6       6       0       0       0       0
     B2         9       9       0       0       0       0
   -------------------------------------------------------
    Total      33      33       9       9       9       0
   -------------------------------------------------------

  ==> Integral Setup <==

  ==> DiskDFJK: Density-Fitted J/K Matrices <==

    J tasked:                  Yes
    K tasked:                  Yes
    wK tasked:                 Yes
    Omega:               3.000E-01
    OpenMP threads:             24
    Integrals threads:          24
    Memory [MiB]:           102935
    Algorithm:                Core
    Integral Cache:           NONE
    Schwarz Cutoff:          1E-12
    Fitting Condition:       1E-10

   => Auxiliary Basis Set <=

  Basis Set: (CC-PV(D+D)Z AUX)
    Blend: CC-PVDZ-JKFIT
    Number of shells: 54
    Number of basis function: 158
    Number of Cartesian functions: 180
    Spherical Harmonics?: true
    Max angular momentum: 3

  Cached 100.0% of DFT collocation blocks in 0.060 [GiB].

  Minimum eigenvalue in the overlap matrix is 3.0340283827E-02.
  Using Symmetric Orthogonalization.

  SCF Guess: Superposition of Atomic Densities via on-the-fly atomic UHF.

  ==> Iterations <==

                           Total Energy        Delta E     RMS |[F,P]|

   @DF-RKS iter SAD:  -399.09662271683089   -3.99097e+02   0.00000e+00 
   @DF-RKS iter   1:  -399.29968944660277   -2.03067e-01   1.12577e-02 DIIS
   @DF-RKS iter   2:  -399.32504486453519   -2.53554e-02   5.78417e-03 DIIS
   @DF-RKS iter   3:  -399.33097977135236   -5.93491e-03   4.86152e-04 DIIS
   @DF-RKS iter   4:  -399.33109133269727   -1.11561e-04   8.16606e-05 DIIS
   @DF-RKS iter   5:  -399.33109496968268   -3.63699e-06   1.00957e-05 DIIS
   @DF-RKS iter   6:  -399.33109501000916   -4.03265e-08   1.51971e-06 DIIS
   @DF-RKS iter   7:  -399.33109501076831   -7.59144e-10   4.38990e-07 DIIS
   @DF-RKS iter   8:  -399.33109501081725   -4.89422e-11   6.03587e-08 DIIS
   @DF-RKS iter   9:  -399.33109501081901   -1.76215e-12   6.36167e-09 DIIS
  Energy and wave function converged.


  ==> Post-Iterations <==

    Orbital Energies [Eh]
    ---------------------

    Doubly Occupied:                                                      

       1A1   -88.877854     2A1    -8.045027     1B2    -6.001832  
       3A1    -5.998317     1B1    -5.991004     4A1    -0.867557  
       2B2    -0.547097     5A1    -0.465431     2B1    -0.358635  

    Virtual:                                                              

       3B2     0.119254     6A1     0.124568     4B2     0.392620  
       7A1     0.454324     8A1     0.569428     9A1     0.604315  
       1A2     0.608518     3B1     0.610092     4B1     0.622731  
       5B2     0.697411    10A1     0.759260    11A1     0.990898  
       6B2     1.037156     7B2     1.469850     2A2     1.481780  
       5B1     1.582446    12A1     1.635592    13A1     2.144107  
       8B2     2.208985     3A2     4.575596     6B1     4.582247  
      14A1     4.611268    15A1     4.648425     9B2     4.779155  

    Final Occupation by Irrep:
             A1    A2    B1    B2 
    DOCC [     5,    0,    2,    2 ]

  @DF-RKS Final Energy:  -399.33109501081901

   => Energetics <=

    Nuclear Repulsion Energy =             12.9194811045254347
    One-Electron Energy =                -576.7838681007867763
    Two-Electron Energy =                 184.2065234626938377
    DFT Exchange-Correlation Energy =     -19.7490646003401409
    Empirical Dispersion Energy =           0.0000000000000000
    VV10 Nonlocal Energy =                  0.0758331230886739
    Total Energy =                       -399.3310950108190127

Computation Completed


Properties will be evaluated at   0.000000,   0.000000,   0.000000 [a0]

Properties computed using the SCF density matrix

  Nuclear Dipole Moment: [e a0]
     X:     0.0000      Y:     0.0000      Z:     1.6326

  Electronic Dipole Moment: [e a0]
     X:     0.0000      Y:     0.0000      Z:    -1.1339

  Dipole Moment: [e a0]
     X:     0.0000      Y:     0.0000      Z:     0.4987     Total:     0.4987

  Dipole Moment: [D]
     X:     0.0000      Y:     0.0000      Z:     1.2676     Total:     1.2676


*** tstop() called on bp1-compute00116.data.bp.acrc.priv at Tue Apr 27 18:05:39 2021
Module time:
	user time   =      49.72 seconds =       0.83 minutes
	system time =       1.51 seconds =       0.03 minutes
	total time  =          3 seconds =       0.05 minutes
Total time:
	user time   =     247.55 seconds =       4.13 minutes
	system time =       8.30 seconds =       0.14 minutes
	total time  =         11 seconds =       0.18 minutes

         ----------------------------------------------------------
                                   FINDIF
                     R. A. King and Jonathon Misiewicz
         ---------------------------------------------------------

  Computing gradient from energies.
    Using 3-point formula.
    Energy without displacement: -399.3310721542
    Check energies below for precision!
    Forces are for mass-weighted, symmetry-adapted cartesians (in au).

     Coord      Energy(-1)        Energy(+1)            Force
        0   -399.3310919359   -399.3310480564      0.0043879514
        1   -399.3310446843   -399.3310950108     -0.0050326569


-------------------------------------------------------------
  ## New Matrix (Symmetry 0) ##
  Irrep: 1 Size: 3 x 3

                 1                   2                   3

    1     0.00000000000000     0.00000000000000     0.00604218117568
    2     0.00000000000000    -0.00357252186360    -0.00302109058784
    3     0.00000000000000     0.00357252186360    -0.00302109058784




			-----------------------------------------
			 OPTKING 2.0: for geometry optimizations 
			  - R.A. King,  Bethel University        
			-----------------------------------------
	At level 1: Red. Int., RFO, no backsteps, dynamic trust

	Internal coordinates to be generated automatically.
	Detected frag 1 with atoms:  1 2 3
	---Fragment 1 Bond Connectivity---
	 1 : 2 3
	 2 : 1
	 3 : 1

	---Fragment 1 Geometry and Gradient---
	 S          -0.0000000000        0.0000000000       -0.1038317314
	 H          -0.0000000000        1.8235062468        1.6469701579
	 H           0.0000000000       -1.8235062468        1.6469701579
	             0.0000000000        0.0000000000        0.0060421812
	             0.0000000000       -0.0035725219       -0.0030210906
	             0.0000000000        0.0035725219       -0.0030210906

	Previous optimization step data not found.  Starting new optimization.

	---Fragment 1 Intrafragment Coordinates---
	 - Coordinate -           - BOHR/RAD -       - ANG/DEG -
	 R(1,2)           =         2.527940	       1.337728
	 R(1,3)           =         2.527940	       1.337728
	 B(2,1,3)         =         1.611472	      92.330565

	Current energy   :      -399.3310721542

	Generating empirical Hessian (Schlegel '84) for each fragment.
	Taking RFO optimization step.
	Going to follow RFO solution 1.
	Using RFO vector 1.
	Norm of target step-size    0.02524
	Projected energy change by RFO approximation:        -0.0002023796

	Back-transformation to cartesian coordinates...
	Successfully converged to displaced geometry.

	--- Internal Coordinate Step in ANG or DEG, aJ/ANG or AJ/DEG ---
	 ---------------------------------------------------------------------------
	   Coordinate                Previous        Force       Change         New 
	   ----------                --------       ------       ------       ------
	    1 R(1,2)          =      1.337728     0.038470     0.009282     1.347010
	    2 R(1,3)          =      1.337728     0.038470     0.009282     1.347010
	    3 B(2,1,3)        =     92.330565     0.000057     0.266791    92.597356
	 ---------------------------------------------------------------------------
	Successfully symmetrized geometry.

  ==> Convergence Check <==

  Measures of convergence in internal coordinates in au.
  Criteria marked as inactive (o), active & met (*), and active & unmet ( ).
  --------------------------------------------------------------------------------------------- ~
   Step     Total Energy     Delta E     MAX Force     RMS Force      MAX Disp      RMS Disp    ~
  --------------------------------------------------------------------------------------------- ~
    Convergence Criteria    1.00e-06 *    3.00e-04 *             o    1.20e-03 *             o  ~
  --------------------------------------------------------------------------------------------- ~
      1    -399.33107215   -3.99e+02      4.67e-03      3.84e-03 o    1.75e-02      1.46e-02 o  ~
  ---------------------------------------------------------------------------------------------

	Writing optimization data to binary file.
	Structure for next step:
	Cartesian Geometry (in Angstrom)
	    S     0.0000000000   0.0000000000  -0.0577210933
	    H    -0.0000000000   0.9738225368   0.8729269246
	    H     0.0000000000  -0.9738225368   0.8729269246
			--------------------------
			 OPTKING Finished Execution 
			--------------------------

    Structure for next step:
    Molecular point group: c2v
    Full point group: C2v

    Geometry (in Angstrom), charge = 0, multiplicity = 1:

    S            0.000000000000     0.000000000000    -0.055192306995
    H           -0.000000000000     0.973822540644     0.875455714573
    H            0.000000000000    -0.973822540644     0.875455714573

gradient() will perform gradient computation by finite difference of analytic energies.

         ----------------------------------------------------------
                                   FINDIF
                     R. A. King and Jonathon Misiewicz
         ---------------------------------------------------------

  Using finite-differences of energies to determine gradients.
    Generating geometries for use with 3-point formula.
    Displacement size will be 5.00e-03.
    Number of atoms is 3.
    Number of symmetric SALCs is 2.
    Translations projected? 1. Rotations projected? 1.
    Number of geometries (including reference) is 5.

  //>>>>>>>>>>>>>>>>>>>>>>>>>>>>>>>>>>>//
  //    Loading displacement 1 of 5    //
  //<<<<<<<<<<<<<<<<<<<<<<<<<<<<<<<<<<<//

*** tstart() called on bp1-compute00116.data.bp.acrc.priv
*** at Tue Apr 27 18:05:39 2021

   => Loading Basis Set <=

    Name: CC-PV(D+D)Z
    Role: ORBITAL
    Keyword: BASIS
    atoms 1   entry S          line   613 file /work/zw18965/.conda/envs/p4env/share/psi4/basis/cc-pv_dpd_z.gbs 
    atoms 2-3 entry H          line    31 file /work/zw18965/.conda/envs/p4env/share/psi4/basis/cc-pv_dpd_z.gbs 


         ---------------------------------------------------------
                                   SCF
               by Justin Turney, Rob Parrish, Andy Simmonett
                          and Daniel G. A. Smith
                              RKS Reference
                       24 Threads, 137329 MiB Core
         ---------------------------------------------------------

  ==> Geometry <==

    Molecular point group: c2v
    Full point group: C2v

    Geometry (in Angstrom), charge = 0, multiplicity = 1:

       Center              X                  Y                   Z               Mass       
    ------------   -----------------  -----------------  -----------------  -----------------
         S            0.000000000000     0.000000000000    -0.055192306995    31.972071174400
         H           -0.000000000000     0.973822540644     0.875455714573     1.007825032230
         H            0.000000000000    -0.973822540644     0.875455714573     1.007825032230

  Running in c2v symmetry.

  Rotational constants: A =     10.26507  B =      8.81905  C =      4.74364 [cm^-1]
  Rotational constants: A = 307738.91779  B = 264388.41244  C = 142210.65770 [MHz]
  Nuclear repulsion =   12.843003477778980

  Charge       = 0
  Multiplicity = 1
  Electrons    = 18
  Nalpha       = 9
  Nbeta        = 9

  ==> Algorithm <==

  SCF Algorithm Type is DF.
  DIIS enabled.
  MOM disabled.
  Fractional occupation disabled.
  Guess Type is READ.
  Energy threshold   = 1.00e-08
  Density threshold  = 1.00e-08
  Integral threshold = 0.00e+00

  ==> Primary Basis <==

  Basis Set: CC-PV(D+D)Z
    Blend: CC-PV(D+D)Z
    Number of shells: 15
    Number of basis function: 33
    Number of Cartesian functions: 35
    Spherical Harmonics?: true
    Max angular momentum: 2

  ==> DFT Potential <==

   => Composite Functional: WB97X-V <= 

    wB97X-V Hyb-GGA Exchange-Correlation Functional

    N. Mardirossian and M. Head-Gordon, Phys. Chem. Chem. Phys. 16, 9904 (2014)

    Deriv               =              1
    GGA                 =           TRUE
    Meta                =          FALSE

    Exchange Hybrid     =           TRUE
    MP2 Hybrid          =          FALSE

   => Exchange-Correlation Functionals <=

    1.0000   wB97X-V range-separated functional

   => Exact (HF) Exchange <=

    0.8330            HF,LR [omega = 0.3000]
    0.1670               HF 

   => VV10 Non-Local Parameters <=

    VV10 B              =     6.0000E+00
    VV10 C              =     1.0000E-02

   => Molecular Quadrature <=

    Radial Scheme          =       TREUTLER
    Pruning Scheme         =           FLAT
    Nuclear Scheme         =       TREUTLER

    BS radius alpha        =              1
    Pruning alpha          =              1
    Radial Points          =             75
    Spherical Points       =            302
    Total Points           =          65845
    Total Blocks           =            560
    Max Points             =            255
    Max Functions          =             33

   => Loading Basis Set <=

    Name: (CC-PV(D+D)Z AUX)
    Role: JKFIT
    Keyword: DF_BASIS_SCF
    atoms 1   entry S          line   593 file /work/zw18965/.conda/envs/p4env/share/psi4/basis/cc-pvdz-jkfit.gbs 
    atoms 2-3 entry H          line    51 file /work/zw18965/.conda/envs/p4env/share/psi4/basis/cc-pvdz-jkfit.gbs 

   => Loading Basis Set <=

    Name: CC-PV(D+D)Z
    Role: ORBITAL
    Keyword: BASIS
    atoms 1   entry S          line   613 file /work/zw18965/.conda/envs/p4env/share/psi4/basis/cc-pv_dpd_z.gbs 
    atoms 2-3 entry H          line    31 file /work/zw18965/.conda/envs/p4env/share/psi4/basis/cc-pv_dpd_z.gbs 

  Reading orbitals from file 180, no projection.

  ==> Pre-Iterations <==

   -------------------------------------------------------
    Irrep   Nso     Nmo     Nalpha   Nbeta   Ndocc  Nsocc
   -------------------------------------------------------
     A1        15      15       0       0       0       0
     A2         3       3       0       0       0       0
     B1         6       6       0       0       0       0
     B2         9       9       0       0       0       0
   -------------------------------------------------------
    Total      33      33       9       9       9       0
   -------------------------------------------------------

  ==> Integral Setup <==

  ==> DiskDFJK: Density-Fitted J/K Matrices <==

    J tasked:                  Yes
    K tasked:                  Yes
    wK tasked:                 Yes
    Omega:               3.000E-01
    OpenMP threads:             24
    Integrals threads:          24
    Memory [MiB]:           102935
    Algorithm:                Core
    Integral Cache:           NONE
    Schwarz Cutoff:          1E-12
    Fitting Condition:       1E-10

   => Auxiliary Basis Set <=

  Basis Set: (CC-PV(D+D)Z AUX)
    Blend: CC-PVDZ-JKFIT
    Number of shells: 54
    Number of basis function: 158
    Number of Cartesian functions: 180
    Spherical Harmonics?: true
    Max angular momentum: 3

  Cached 100.0% of DFT collocation blocks in 0.060 [GiB].

  Minimum eigenvalue in the overlap matrix is 3.0700076733E-02.
  Using Symmetric Orthogonalization.

  SCF Guess: Orbitals guess was supplied from a previous computation.

  ==> Iterations <==

                           Total Energy        Delta E     RMS |[F,P]|

   @DF-RKS iter   0:  -399.32423687671769   -3.99324e+02   1.25259e-03 
   @DF-RKS iter   1:  -399.33113915579281   -6.90228e-03   1.82321e-04 DIIS
   @DF-RKS iter   2:  -399.33114582211249   -6.66632e-06   7.89700e-05 DIIS
   @DF-RKS iter   3:  -399.33114662393871   -8.01826e-07   5.54000e-06 DIIS
   @DF-RKS iter   4:  -399.33114663985373   -1.59150e-08   1.51271e-06 DIIS
   @DF-RKS iter   5:  -399.33114664127635   -1.42262e-09   4.64680e-07 DIIS
   @DF-RKS iter   6:  -399.33114664133626   -5.99130e-11   9.71638e-08 DIIS
   @DF-RKS iter   7:  -399.33114664134115   -4.88853e-12   1.09672e-08 DIIS
   @DF-RKS iter   8:  -399.33114664134149   -3.41061e-13   1.16235e-09 DIIS
  Energy and wave function converged.


  ==> Post-Iterations <==

    Orbital Energies [Eh]
    ---------------------

    Doubly Occupied:                                                      

       1A1   -88.878880     2A1    -8.045678     1B2    -6.002513  
       3A1    -5.999006     1B1    -5.991662     4A1    -0.865840  
       2B2    -0.545675     5A1    -0.464854     2B1    -0.358526  

    Virtual:                                                              

       3B2     0.117543     6A1     0.122747     4B2     0.394009  
       7A1     0.454277     8A1     0.570327     9A1     0.603870  
       1A2     0.608728     3B1     0.610434     4B1     0.622720  
       5B2     0.696090    10A1     0.755938    11A1     0.987290  
       6B2     1.031826     7B2     1.465191     2A2     1.479153  
       5B1     1.578376    12A1     1.632197    13A1     2.132844  
       8B2     2.198182     3A2     4.574699     6B1     4.580955  
      14A1     4.610608    15A1     4.646480     9B2     4.780201  

    Final Occupation by Irrep:
             A1    A2    B1    B2 
    DOCC [     5,    0,    2,    2 ]

  @DF-RKS Final Energy:  -399.33114664134149

   => Energetics <=

    Nuclear Repulsion Energy =             12.8430034777789803
    One-Electron Energy =                -576.6336924831900888
    Two-Electron Energy =                 184.1289644008049606
    DFT Exchange-Correlation Energy =     -19.7452510893382289
    Empirical Dispersion Energy =           0.0000000000000000
    VV10 Nonlocal Energy =                  0.0758290526028726
    Total Energy =                       -399.3311466413414337

Computation Completed


Properties will be evaluated at   0.000000,   0.000000,   0.000000 [a0]

Properties computed using the SCF density matrix

  Nuclear Dipole Moment: [e a0]
     X:     0.0000      Y:     0.0000      Z:     1.6400

  Electronic Dipole Moment: [e a0]
     X:     0.0000      Y:     0.0000      Z:    -1.1413

  Dipole Moment: [e a0]
     X:     0.0000      Y:     0.0000      Z:     0.4986     Total:     0.4986

  Dipole Moment: [D]
     X:     0.0000      Y:     0.0000      Z:     1.2674     Total:     1.2674


*** tstop() called on bp1-compute00116.data.bp.acrc.priv at Tue Apr 27 18:05:40 2021
Module time:
	user time   =      37.35 seconds =       0.62 minutes
	system time =       1.03 seconds =       0.02 minutes
	total time  =          1 seconds =       0.02 minutes
Total time:
	user time   =     285.28 seconds =       4.75 minutes
	system time =       9.34 seconds =       0.16 minutes
	total time  =         12 seconds =       0.20 minutes

  //>>>>>>>>>>>>>>>>>>>>>>>>>>>>>>>>>>>//
  //    Loading displacement 2 of 5    //
  //<<<<<<<<<<<<<<<<<<<<<<<<<<<<<<<<<<<//

*** tstart() called on bp1-compute00116.data.bp.acrc.priv
*** at Tue Apr 27 18:05:40 2021

   => Loading Basis Set <=

    Name: CC-PV(D+D)Z
    Role: ORBITAL
    Keyword: BASIS
    atoms 1   entry S          line   613 file /work/zw18965/.conda/envs/p4env/share/psi4/basis/cc-pv_dpd_z.gbs 
    atoms 2-3 entry H          line    31 file /work/zw18965/.conda/envs/p4env/share/psi4/basis/cc-pv_dpd_z.gbs 


         ---------------------------------------------------------
                                   SCF
               by Justin Turney, Rob Parrish, Andy Simmonett
                          and Daniel G. A. Smith
                              RKS Reference
                       24 Threads, 137329 MiB Core
         ---------------------------------------------------------

  ==> Geometry <==

    Molecular point group: c2v
    Full point group: C2v

    Geometry (in Angstrom), charge = 0, multiplicity = 1:

       Center              X                  Y                   Z               Mass       
    ------------   -----------------  -----------------  -----------------  -----------------
         S            0.000000000000     0.000000000000    -0.055306261709    31.972071174400
         H           -0.000000000000     0.973822540644     0.877263254630     1.007825032230
         H            0.000000000000    -0.973822540644     0.877263254630     1.007825032230

  Running in c2v symmetry.

  Rotational constants: A =     10.22281  B =      8.81905  C =      4.73459 [cm^-1]
  Rotational constants: A = 306472.07489  B = 264388.41244  C = 141939.52312 [MHz]
  Nuclear repulsion =   12.830619240664365

  Charge       = 0
  Multiplicity = 1
  Electrons    = 18
  Nalpha       = 9
  Nbeta        = 9

  ==> Algorithm <==

  SCF Algorithm Type is DF.
  DIIS enabled.
  MOM disabled.
  Fractional occupation disabled.
  Guess Type is READ.
  Energy threshold   = 1.00e-08
  Density threshold  = 1.00e-08
  Integral threshold = 0.00e+00

  ==> Primary Basis <==

  Basis Set: CC-PV(D+D)Z
    Blend: CC-PV(D+D)Z
    Number of shells: 15
    Number of basis function: 33
    Number of Cartesian functions: 35
    Spherical Harmonics?: true
    Max angular momentum: 2

  ==> DFT Potential <==

   => Composite Functional: WB97X-V <= 

    wB97X-V Hyb-GGA Exchange-Correlation Functional

    N. Mardirossian and M. Head-Gordon, Phys. Chem. Chem. Phys. 16, 9904 (2014)

    Deriv               =              1
    GGA                 =           TRUE
    Meta                =          FALSE

    Exchange Hybrid     =           TRUE
    MP2 Hybrid          =          FALSE

   => Exchange-Correlation Functionals <=

    1.0000   wB97X-V range-separated functional

   => Exact (HF) Exchange <=

    0.8330            HF,LR [omega = 0.3000]
    0.1670               HF 

   => VV10 Non-Local Parameters <=

    VV10 B              =     6.0000E+00
    VV10 C              =     1.0000E-02

   => Molecular Quadrature <=

    Radial Scheme          =       TREUTLER
    Pruning Scheme         =           FLAT
    Nuclear Scheme         =       TREUTLER

    BS radius alpha        =              1
    Pruning alpha          =              1
    Radial Points          =             75
    Spherical Points       =            302
    Total Points           =          65845
    Total Blocks           =            560
    Max Points             =            255
    Max Functions          =             33

   => Loading Basis Set <=

    Name: (CC-PV(D+D)Z AUX)
    Role: JKFIT
    Keyword: DF_BASIS_SCF
    atoms 1   entry S          line   593 file /work/zw18965/.conda/envs/p4env/share/psi4/basis/cc-pvdz-jkfit.gbs 
    atoms 2-3 entry H          line    51 file /work/zw18965/.conda/envs/p4env/share/psi4/basis/cc-pvdz-jkfit.gbs 

   => Loading Basis Set <=

    Name: CC-PV(D+D)Z
    Role: ORBITAL
    Keyword: BASIS
    atoms 1   entry S          line   613 file /work/zw18965/.conda/envs/p4env/share/psi4/basis/cc-pv_dpd_z.gbs 
    atoms 2-3 entry H          line    31 file /work/zw18965/.conda/envs/p4env/share/psi4/basis/cc-pv_dpd_z.gbs 

  Reading orbitals from file 180, no projection.

  ==> Pre-Iterations <==

   -------------------------------------------------------
    Irrep   Nso     Nmo     Nalpha   Nbeta   Ndocc  Nsocc
   -------------------------------------------------------
     A1        15      15       0       0       0       0
     A2         3       3       0       0       0       0
     B1         6       6       0       0       0       0
     B2         9       9       0       0       0       0
   -------------------------------------------------------
    Total      33      33       9       9       9       0
   -------------------------------------------------------

  ==> Integral Setup <==

  ==> DiskDFJK: Density-Fitted J/K Matrices <==

    J tasked:                  Yes
    K tasked:                  Yes
    wK tasked:                 Yes
    Omega:               3.000E-01
    OpenMP threads:             24
    Integrals threads:          24
    Memory [MiB]:           102935
    Algorithm:                Core
    Integral Cache:           NONE
    Schwarz Cutoff:          1E-12
    Fitting Condition:       1E-10

   => Auxiliary Basis Set <=

  Basis Set: (CC-PV(D+D)Z AUX)
    Blend: CC-PVDZ-JKFIT
    Number of shells: 54
    Number of basis function: 158
    Number of Cartesian functions: 180
    Spherical Harmonics?: true
    Max angular momentum: 3

  Cached 100.0% of DFT collocation blocks in 0.060 [GiB].

  Minimum eigenvalue in the overlap matrix is 3.0742745284E-02.
  Using Symmetric Orthogonalization.

  SCF Guess: Orbitals guess was supplied from a previous computation.

  ==> Iterations <==

                           Total Energy        Delta E     RMS |[F,P]|

   @DF-RKS iter   0:  -399.33008423640445   -3.99330e+02   1.79266e-04 
   @DF-RKS iter   1:  -399.33114290734676   -1.05867e-03   2.83271e-05 DIIS
   @DF-RKS iter   2:  -399.33114307253862   -1.65192e-07   1.22297e-05 DIIS
   @DF-RKS iter   3:  -399.33114309154666   -1.90080e-08   1.05302e-06 DIIS
   @DF-RKS iter   4:  -399.33114309217729   -6.30621e-10   2.64803e-07 DIIS
   @DF-RKS iter   5:  -399.33114309222844   -5.11591e-11   4.93058e-08 DIIS
   @DF-RKS iter   6:  -399.33114309222952   -1.08002e-12   1.70504e-08 DIIS
   @DF-RKS iter   7:  -399.33114309222952    0.00000e+00   1.88881e-09 DIIS
  Energy and wave function converged.


  ==> Post-Iterations <==

    Orbital Energies [Eh]
    ---------------------

    Doubly Occupied:                                                      

       1A1   -88.879063     2A1    -8.045798     1B2    -6.002633  
       3A1    -5.999139     1B1    -5.991782     4A1    -0.865585  
       2B2    -0.545179     5A1    -0.464984     2B1    -0.358515  

    Virtual:                                                              

       3B2     0.117103     6A1     0.122515     4B2     0.394298  
       7A1     0.454650     8A1     0.570265     9A1     0.603728  
       1A2     0.608870     3B1     0.610468     4B1     0.622620  
       5B2     0.695805    10A1     0.755345    11A1     0.987033  
       6B2     1.030490     7B2     1.465717     2A2     1.478552  
       5B1     1.577925    12A1     1.630642    13A1     2.131375  
       8B2     2.195971     3A2     4.574423     6B1     4.580858  
      14A1     4.610123    15A1     4.646732     9B2     4.780183  

    Final Occupation by Irrep:
             A1    A2    B1    B2 
    DOCC [     5,    0,    2,    2 ]

  @DF-RKS Final Energy:  -399.33114309222952

   => Energetics <=

    Nuclear Repulsion Energy =             12.8306192406643653
    One-Electron Energy =                -576.6092282924961410
    Two-Electron Energy =                 184.1162640378607307
    DFT Exchange-Correlation Energy =     -19.7446262921184115
    Empirical Dispersion Energy =           0.0000000000000000
    VV10 Nonlocal Energy =                  0.0758282138598939
    Total Energy =                       -399.3311430922295244

Computation Completed


Properties will be evaluated at   0.000000,   0.000000,   0.000000 [a0]

Properties computed using the SCF density matrix

  Nuclear Dipole Moment: [e a0]
     X:     0.0000      Y:     0.0000      Z:     1.6434

  Electronic Dipole Moment: [e a0]
     X:     0.0000      Y:     0.0000      Z:    -1.1449

  Dipole Moment: [e a0]
     X:     0.0000      Y:     0.0000      Z:     0.4985     Total:     0.4985

  Dipole Moment: [D]
     X:     0.0000      Y:     0.0000      Z:     1.2670     Total:     1.2670


*** tstop() called on bp1-compute00116.data.bp.acrc.priv at Tue Apr 27 18:05:42 2021
Module time:
	user time   =      37.55 seconds =       0.63 minutes
	system time =       1.30 seconds =       0.02 minutes
	total time  =          2 seconds =       0.03 minutes
Total time:
	user time   =     322.96 seconds =       5.38 minutes
	system time =      10.64 seconds =       0.18 minutes
	total time  =         14 seconds =       0.23 minutes

  //>>>>>>>>>>>>>>>>>>>>>>>>>>>>>>>>>>>//
  //    Loading displacement 3 of 5    //
  //<<<<<<<<<<<<<<<<<<<<<<<<<<<<<<<<<<<//

*** tstart() called on bp1-compute00116.data.bp.acrc.priv
*** at Tue Apr 27 18:05:42 2021

   => Loading Basis Set <=

    Name: CC-PV(D+D)Z
    Role: ORBITAL
    Keyword: BASIS
    atoms 1   entry S          line   613 file /work/zw18965/.conda/envs/p4env/share/psi4/basis/cc-pv_dpd_z.gbs 
    atoms 2-3 entry H          line    31 file /work/zw18965/.conda/envs/p4env/share/psi4/basis/cc-pv_dpd_z.gbs 


         ---------------------------------------------------------
                                   SCF
               by Justin Turney, Rob Parrish, Andy Simmonett
                          and Daniel G. A. Smith
                              RKS Reference
                       24 Threads, 137329 MiB Core
         ---------------------------------------------------------

  ==> Geometry <==

    Molecular point group: c2v
    Full point group: C2v

    Geometry (in Angstrom), charge = 0, multiplicity = 1:

       Center              X                  Y                   Z               Mass       
    ------------   -----------------  -----------------  -----------------  -----------------
         S            0.000000000000     0.000000000000    -0.055078352280    31.972071174400
         H           -0.000000000000     0.973822540644     0.873648174516     1.007825032230
         H            0.000000000000    -0.973822540644     0.873648174516     1.007825032230

  Running in c2v symmetry.

  Rotational constants: A =     10.30759  B =      8.81905  C =      4.75270 [cm^-1]
  Rotational constants: A = 309013.63195  B = 264388.41244  C = 142482.26767 [MHz]
  Nuclear repulsion =   12.855398766460214

  Charge       = 0
  Multiplicity = 1
  Electrons    = 18
  Nalpha       = 9
  Nbeta        = 9

  ==> Algorithm <==

  SCF Algorithm Type is DF.
  DIIS enabled.
  MOM disabled.
  Fractional occupation disabled.
  Guess Type is READ.
  Energy threshold   = 1.00e-08
  Density threshold  = 1.00e-08
  Integral threshold = 0.00e+00

  ==> Primary Basis <==

  Basis Set: CC-PV(D+D)Z
    Blend: CC-PV(D+D)Z
    Number of shells: 15
    Number of basis function: 33
    Number of Cartesian functions: 35
    Spherical Harmonics?: true
    Max angular momentum: 2

  ==> DFT Potential <==

   => Composite Functional: WB97X-V <= 

    wB97X-V Hyb-GGA Exchange-Correlation Functional

    N. Mardirossian and M. Head-Gordon, Phys. Chem. Chem. Phys. 16, 9904 (2014)

    Deriv               =              1
    GGA                 =           TRUE
    Meta                =          FALSE

    Exchange Hybrid     =           TRUE
    MP2 Hybrid          =          FALSE

   => Exchange-Correlation Functionals <=

    1.0000   wB97X-V range-separated functional

   => Exact (HF) Exchange <=

    0.8330            HF,LR [omega = 0.3000]
    0.1670               HF 

   => VV10 Non-Local Parameters <=

    VV10 B              =     6.0000E+00
    VV10 C              =     1.0000E-02

   => Molecular Quadrature <=

    Radial Scheme          =       TREUTLER
    Pruning Scheme         =           FLAT
    Nuclear Scheme         =       TREUTLER

    BS radius alpha        =              1
    Pruning alpha          =              1
    Radial Points          =             75
    Spherical Points       =            302
    Total Points           =          65845
    Total Blocks           =            560
    Max Points             =            255
    Max Functions          =             33

   => Loading Basis Set <=

    Name: (CC-PV(D+D)Z AUX)
    Role: JKFIT
    Keyword: DF_BASIS_SCF
    atoms 1   entry S          line   593 file /work/zw18965/.conda/envs/p4env/share/psi4/basis/cc-pvdz-jkfit.gbs 
    atoms 2-3 entry H          line    51 file /work/zw18965/.conda/envs/p4env/share/psi4/basis/cc-pvdz-jkfit.gbs 

   => Loading Basis Set <=

    Name: CC-PV(D+D)Z
    Role: ORBITAL
    Keyword: BASIS
    atoms 1   entry S          line   613 file /work/zw18965/.conda/envs/p4env/share/psi4/basis/cc-pv_dpd_z.gbs 
    atoms 2-3 entry H          line    31 file /work/zw18965/.conda/envs/p4env/share/psi4/basis/cc-pv_dpd_z.gbs 

  Reading orbitals from file 180, no projection.

  ==> Pre-Iterations <==

   -------------------------------------------------------
    Irrep   Nso     Nmo     Nalpha   Nbeta   Ndocc  Nsocc
   -------------------------------------------------------
     A1        15      15       0       0       0       0
     A2         3       3       0       0       0       0
     B1         6       6       0       0       0       0
     B2         9       9       0       0       0       0
   -------------------------------------------------------
    Total      33      33       9       9       9       0
   -------------------------------------------------------

  ==> Integral Setup <==

  ==> DiskDFJK: Density-Fitted J/K Matrices <==

    J tasked:                  Yes
    K tasked:                  Yes
    wK tasked:                 Yes
    Omega:               3.000E-01
    OpenMP threads:             24
    Integrals threads:          24
    Memory [MiB]:           102935
    Algorithm:                Core
    Integral Cache:           NONE
    Schwarz Cutoff:          1E-12
    Fitting Condition:       1E-10

   => Auxiliary Basis Set <=

  Basis Set: (CC-PV(D+D)Z AUX)
    Blend: CC-PVDZ-JKFIT
    Number of shells: 54
    Number of basis function: 158
    Number of Cartesian functions: 180
    Spherical Harmonics?: true
    Max angular momentum: 3

  Cached 100.0% of DFT collocation blocks in 0.060 [GiB].

  Minimum eigenvalue in the overlap matrix is 3.0657628217E-02.
  Using Symmetric Orthogonalization.

  SCF Guess: Orbitals guess was supplied from a previous computation.

  ==> Iterations <==

                           Total Energy        Delta E     RMS |[F,P]|

   @DF-RKS iter   0:  -399.33220418478902   -3.99332e+02   1.79729e-04 
   @DF-RKS iter   1:  -399.33114585190435    1.05833e-03   2.82513e-05 DIIS
   @DF-RKS iter   2:  -399.33114601628455   -1.64380e-07   1.21886e-05 DIIS
   @DF-RKS iter   3:  -399.33114603515514   -1.88706e-08   1.04983e-06 DIIS
   @DF-RKS iter   4:  -399.33114603578190   -6.26756e-10   2.63667e-07 DIIS
   @DF-RKS iter   5:  -399.33114603583238   -5.04770e-11   4.86613e-08 DIIS
   @DF-RKS iter   6:  -399.33114603583363   -1.25056e-12   1.68161e-08 DIIS
   @DF-RKS iter   7:  -399.33114603583351    1.13687e-13   1.87458e-09 DIIS
  Energy and wave function converged.


  ==> Post-Iterations <==

    Orbital Energies [Eh]
    ---------------------

    Doubly Occupied:                                                      

       1A1   -88.878697     2A1    -8.045558     1B2    -6.002394  
       3A1    -5.998873     1B1    -5.991543     4A1    -0.866094  
       2B2    -0.546171     5A1    -0.464724     2B1    -0.358537  

    Virtual:                                                              

       3B2     0.117984     6A1     0.122978     4B2     0.393720  
       7A1     0.453900     8A1     0.570391     9A1     0.604013  
       1A2     0.608585     3B1     0.610399     4B1     0.622822  
       5B2     0.696376    10A1     0.756533    11A1     0.987548  
       6B2     1.033163     7B2     1.464665     2A2     1.479757  
       5B1     1.578825    12A1     1.633753    13A1     2.134313  
       8B2     2.200396     3A2     4.574976     6B1     4.581050  
      14A1     4.611092    15A1     4.646227     9B2     4.780215  

    Final Occupation by Irrep:
             A1    A2    B1    B2 
    DOCC [     5,    0,    2,    2 ]

  @DF-RKS Final Energy:  -399.33114603583351

   => Energetics <=

    Nuclear Repulsion Energy =             12.8553987664602136
    One-Electron Energy =                -576.6581683206781008
    Two-Electron Energy =                 184.1416698691591023
    DFT Exchange-Correlation Energy =     -19.7458762418431348
    Empirical Dispersion Energy =           0.0000000000000000
    VV10 Nonlocal Energy =                  0.0758298910684023
    Total Energy =                       -399.3311460358335125

Computation Completed


Properties will be evaluated at   0.000000,   0.000000,   0.000000 [a0]

Properties computed using the SCF density matrix

  Nuclear Dipole Moment: [e a0]
     X:     0.0000      Y:     0.0000      Z:     1.6366

  Electronic Dipole Moment: [e a0]
     X:     0.0000      Y:     0.0000      Z:    -1.1378

  Dipole Moment: [e a0]
     X:     0.0000      Y:     0.0000      Z:     0.4988     Total:     0.4988

  Dipole Moment: [D]
     X:     0.0000      Y:     0.0000      Z:     1.2678     Total:     1.2678


*** tstop() called on bp1-compute00116.data.bp.acrc.priv at Tue Apr 27 18:05:43 2021
Module time:
	user time   =      35.67 seconds =       0.59 minutes
	system time =       1.15 seconds =       0.02 minutes
	total time  =          1 seconds =       0.02 minutes
Total time:
	user time   =     358.76 seconds =       5.98 minutes
	system time =      11.79 seconds =       0.20 minutes
	total time  =         15 seconds =       0.25 minutes

  //>>>>>>>>>>>>>>>>>>>>>>>>>>>>>>>>>>>//
  //    Loading displacement 4 of 5    //
  //<<<<<<<<<<<<<<<<<<<<<<<<<<<<<<<<<<<//

*** tstart() called on bp1-compute00116.data.bp.acrc.priv
*** at Tue Apr 27 18:05:43 2021

[...]
   @DF-RKS iter   6:  -399.33114612271976   -4.11560e-08   1.24373e-06 DIIS
   @DF-RKS iter   7:  -399.33114612338773   -6.67967e-10   3.59806e-07 DIIS
   @DF-RKS iter   8:  -399.33114612342121   -3.34808e-11   6.46150e-08 DIIS
   @DF-RKS iter   9:  -399.33114612342303   -1.81899e-12   6.76331e-09 DIIS
   @DF-RKS iter  10:  -399.33114612342320   -1.70530e-13   1.09310e-09 DIIS
   @DF-RKS iter  11:  -399.33114612342308    1.13687e-13   5.81346e-11 DIIS
  Energy and wave function converged.


  ==> Post-Iterations <==

    Orbital Energies [Eh]
    ---------------------

    Doubly Occupied:                                                      

       1A1   -88.878808     2A1    -8.045639     1B2    -6.002460  
       3A1    -5.998978     1B1    -5.991619     4A1    -0.866075  
       2B2    -0.545233     5A1    -0.465418     2B1    -0.358552  

    Virtual:                                                              

       3B2     0.117367     6A1     0.123091     4B2     0.394000  
       7A1     0.455129     8A1     0.569766     9A1     0.603762  
       1A2     0.608947     3B1     0.610356     4B1     0.622494  
       5B2     0.696074    10A1     0.756163    11A1     0.988412  
       6B2     1.031333     7B2     1.468568     2A2     1.479040  
       5B1     1.579271    12A1     1.630290    13A1     2.134818  
       8B2     2.198290     3A2     4.574510     6B1     4.581355  
      14A1     4.609860    15A1     4.647951     9B2     4.779680  

    Final Occupation by Irrep:
             A1    A2    B1    B2 
    DOCC [     5,    0,    2,    2 ]

  @DF-RKS Final Energy:  -399.33114612342308

   => Energetics <=

    Nuclear Repulsion Energy =             12.8511909331273664
    One-Electron Energy =                -576.6495216444033076
    Two-Electron Energy =                 184.1369984202183332
    DFT Exchange-Correlation Energy =     -19.7456429090206811
    Empirical Dispersion Energy =           0.0000000000000000
    VV10 Nonlocal Energy =                  0.0758290766552423
    Total Energy =                       -399.3311461234230819

Computation Completed


Properties will be evaluated at   0.000000,   0.000000,   0.000000 [a0]

Properties computed using the SCF density matrix

  Nuclear Dipole Moment: [e a0]
     X:     0.0000      Y:     0.0000      Z:     1.6441

  Electronic Dipole Moment: [e a0]
     X:     0.0000      Y:     0.0000      Z:    -1.1458

  Dipole Moment: [e a0]
     X:     0.0000      Y:     0.0000      Z:     0.4983     Total:     0.4983

  Dipole Moment: [D]
     X:     0.0000      Y:     0.0000      Z:     1.2666     Total:     1.2666


*** tstop() called on bp1-compute00116.data.bp.acrc.priv at Tue Apr 27 18:06:21 2021
Module time:
	user time   =      53.43 seconds =       0.89 minutes
	system time =       1.64 seconds =       0.03 minutes
	total time  =          3 seconds =       0.05 minutes
Total time:
	user time   =    1224.66 seconds =      20.41 minutes
	system time =      38.16 seconds =       0.64 minutes
	total time  =         53 seconds =       0.88 minutes

  //>>>>>>>>>>>>>>>>>>>>>>>>>>>>>>>>>>>//
  //    Loading displacement 8 of 8    //
  //<<<<<<<<<<<<<<<<<<<<<<<<<<<<<<<<<<<//

*** tstart() called on bp1-compute00116.data.bp.acrc.priv
*** at Tue Apr 27 18:06:21 2021

   => Loading Basis Set <=

    Name: CC-PV(D+D)Z
    Role: ORBITAL
    Keyword: BASIS
    atoms 1   entry S          line   613 file /work/zw18965/.conda/envs/p4env/share/psi4/basis/cc-pv_dpd_z.gbs 
    atoms 2-3 entry H          line    31 file /work/zw18965/.conda/envs/p4env/share/psi4/basis/cc-pv_dpd_z.gbs 


         ---------------------------------------------------------
                                   SCF
               by Justin Turney, Rob Parrish, Andy Simmonett
                          and Daniel G. A. Smith
                              RKS Reference
                       24 Threads, 137329 MiB Core
         ---------------------------------------------------------

  ==> Geometry <==

    Molecular point group: cs
    Full point group: Cs

    Geometry (in Angstrom), charge = 0, multiplicity = 1:

       Center              X                  Y                   Z               Mass       
    ------------   -----------------  -----------------  -----------------  -----------------
         S            0.000000000000    -0.000083500418    -0.055216777582    31.972071174400
         H            0.000000000000     0.973696563574     0.877112070864     1.007825032230
         H            0.000000000000    -0.971047610410     0.874575659064     1.007825032230

  Running in cs symmetry.

  Rotational constants: A =     10.25654  B =      8.84492  C =      4.74929 [cm^-1]
  Rotational constants: A = 307483.23951  B = 265164.12258  C = 142379.98603 [MHz]
  Nuclear repulsion =   12.850557403015655

  Charge       = 0
  Multiplicity = 1
  Electrons    = 18
  Nalpha       = 9
  Nbeta        = 9

  ==> Algorithm <==

  SCF Algorithm Type is DF.
  DIIS enabled.
  MOM disabled.
  Fractional occupation disabled.
  Guess Type is SAD.
  Energy threshold   = 1.00e-10
  Density threshold  = 1.00e-10
  Integral threshold = 0.00e+00

  ==> Primary Basis <==

  Basis Set: CC-PV(D+D)Z
    Blend: CC-PV(D+D)Z
    Number of shells: 15
    Number of basis function: 33
    Number of Cartesian functions: 35
    Spherical Harmonics?: true
    Max angular momentum: 2

  ==> DFT Potential <==

   => Composite Functional: WB97X-V <= 

    wB97X-V Hyb-GGA Exchange-Correlation Functional

    N. Mardirossian and M. Head-Gordon, Phys. Chem. Chem. Phys. 16, 9904 (2014)

    Deriv               =              1
    GGA                 =           TRUE
    Meta                =          FALSE

    Exchange Hybrid     =           TRUE
    MP2 Hybrid          =          FALSE

   => Exchange-Correlation Functionals <=

    1.0000   wB97X-V range-separated functional

   => Exact (HF) Exchange <=

    0.8330            HF,LR [omega = 0.3000]
    0.1670               HF 

   => VV10 Non-Local Parameters <=

    VV10 B              =     6.0000E+00
    VV10 C              =     1.0000E-02

   => Molecular Quadrature <=

    Radial Scheme          =       TREUTLER
    Pruning Scheme         =           FLAT
    Nuclear Scheme         =       TREUTLER

    BS radius alpha        =              1
    Pruning alpha          =              1
    Radial Points          =             75
    Spherical Points       =            302
    Total Points           =          65843
    Total Blocks           =            555
    Max Points             =            253
    Max Functions          =             33

   => Loading Basis Set <=

    Name: (CC-PV(D+D)Z AUX)
    Role: JKFIT
    Keyword: DF_BASIS_SCF
    atoms 1   entry S          line   593 file /work/zw18965/.conda/envs/p4env/share/psi4/basis/cc-pvdz-jkfit.gbs 
    atoms 2-3 entry H          line    51 file /work/zw18965/.conda/envs/p4env/share/psi4/basis/cc-pvdz-jkfit.gbs 

  ==> Pre-Iterations <==

   -------------------------------------------------------
    Irrep   Nso     Nmo     Nalpha   Nbeta   Ndocc  Nsocc
   -------------------------------------------------------
     A'        24      24       0       0       0       0
     A"         9       9       0       0       0       0
   -------------------------------------------------------
    Total      33      33       9       9       9       0
   -------------------------------------------------------

  ==> Integral Setup <==

  ==> DiskDFJK: Density-Fitted J/K Matrices <==

    J tasked:                  Yes
    K tasked:                  Yes
    wK tasked:                 Yes
    Omega:               3.000E-01
    OpenMP threads:             24
    Integrals threads:          24
    Memory [MiB]:           102935
    Algorithm:                Core
    Integral Cache:           NONE
    Schwarz Cutoff:          1E-12
    Fitting Condition:       1E-10

   => Auxiliary Basis Set <=

  Basis Set: (CC-PV(D+D)Z AUX)
    Blend: CC-PVDZ-JKFIT
    Number of shells: 54
    Number of basis function: 158
    Number of Cartesian functions: 180
    Spherical Harmonics?: true
    Max angular momentum: 3

  Cached 100.0% of DFT collocation blocks in 0.060 [GiB].

  Minimum eigenvalue in the overlap matrix is 3.0653357998E-02.
  Using Symmetric Orthogonalization.

  SCF Guess: Superposition of Atomic Densities via on-the-fly atomic UHF.

  ==> Iterations <==

                           Total Energy        Delta E     RMS |[F,P]|

   @DF-RKS iter SAD:  -399.08884448260784   -3.99089e+02   0.00000e+00 
   @DF-RKS iter   1:  -399.29939960422161   -2.10555e-01   8.25818e-03 DIIS
   @DF-RKS iter   2:  -399.32494853624439   -2.55489e-02   4.27066e-03 DIIS
   @DF-RKS iter   3:  -399.33102836292431   -6.07983e-03   3.56046e-04 DIIS
   @DF-RKS iter   4:  -399.33114030263249   -1.11940e-04   5.95179e-05 DIIS
   @DF-RKS iter   5:  -399.33114395465486   -3.65202e-06   7.38358e-06 DIIS
   @DF-RKS iter   6:  -399.33114399494815   -4.02933e-08   8.93077e-07 DIIS
   @DF-RKS iter   7:  -399.33114399557650   -6.28347e-10   2.86289e-07 DIIS
   @DF-RKS iter   8:  -399.33114399561231   -3.58114e-11   5.10102e-08 DIIS
   @DF-RKS iter   9:  -399.33114399561464   -2.33058e-12   1.02832e-08 DIIS
   @DF-RKS iter  10:  -399.33114399561475   -1.13687e-13   2.28026e-09 DIIS
   @DF-RKS iter  11:  -399.33114399561492   -1.70530e-13   3.04081e-10 DIIS
   @DF-RKS iter  12:  -399.33114399561470    2.27374e-13   2.25977e-11 DIIS
  Energy and wave function converged.


  ==> Post-Iterations <==

    Orbital Energies [Eh]
    ---------------------

    Doubly Occupied:                                                      

       1Ap   -88.878790     2Ap    -8.045623     3Ap    -6.002452  
       4Ap    -5.998951     1App   -5.991605     5Ap    -0.866025  
       6Ap    -0.545640     7Ap    -0.465059     2App   -0.358541  

    Virtual:                                                              

       8Ap     0.117563     9Ap     0.123014    10Ap     0.393910  
      11Ap     0.454536    12Ap     0.570100    13Ap     0.603868  
       3App    0.608769     4App    0.610397     5App    0.622654  
      14Ap     0.696171    15Ap     0.756230    16Ap     0.987843  
      17Ap     1.032061    18Ap     1.466492     6App    1.479289  
       7App    1.578921    19Ap     1.631870    20Ap     2.134094  
      21Ap     2.199033     8App    4.574699     9App    4.581164  
      22Ap     4.610432    23Ap     4.647042    24Ap     4.779978  

    Final Occupation by Irrep:
             Ap   App 
    DOCC [     7,    2 ]

  @DF-RKS Final Energy:  -399.33114399561470

   => Energetics <=

    Nuclear Repulsion Energy =             12.8505574030156549
    One-Electron Energy =                -576.6484532438909127
    Two-Electron Energy =                 184.1365456206505371
    DFT Exchange-Correlation Energy =     -19.7456231157913997
    Empirical Dispersion Energy =           0.0000000000000000
    VV10 Nonlocal Energy =                  0.0758293404014525
    Total Energy =                       -399.3311439956146955

Computation Completed


Properties will be evaluated at   0.000000,   0.000000,   0.000000 [a0]

Properties computed using the SCF density matrix

  Nuclear Dipole Moment: [e a0]
     X:     0.0000      Y:     0.0025      Z:     1.6407

  Electronic Dipole Moment: [e a0]
     X:     0.0000      Y:    -0.0026      Z:    -1.1422

  Dipole Moment: [e a0]
     X:     0.0000      Y:    -0.0002      Z:     0.4985     Total:     0.4985

  Dipole Moment: [D]
     X:     0.0000      Y:    -0.0004      Z:     1.2672     Total:     1.2672


*** tstop() called on bp1-compute00116.data.bp.acrc.priv at Tue Apr 27 18:06:23 2021
Module time:
	user time   =      55.22 seconds =       0.92 minutes
	system time =       1.60 seconds =       0.03 minutes
	total time  =          2 seconds =       0.03 minutes
Total time:
	user time   =    1280.01 seconds =      21.33 minutes
	system time =      39.76 seconds =       0.66 minutes
	total time  =         55 seconds =       0.92 minutes

         ----------------------------------------------------------
                                   FINDIF
                     R. A. King and Jonathon Misiewicz
         ---------------------------------------------------------

  Computing second-derivative from energies using projected, 
  symmetry-adapted, cartesian coordinates.

  8 energies passed in, including the reference geometry.
    Using 3-point formula.
    Energy without displacement: -399.3311475986
    Check energies below for precision!
    0: -1        :      -399.3311454113
    0: 1         :      -399.3311456154
    1: -1        :      -399.3311453939
    1: 1         :      -399.3311453461
    0: 1, 1: 1   :      -399.3311462782
    0: -1, 1: -1 :      -399.3311461234
    2: -1        :      -399.3311439956

-------------------------------------------------------------


  ==> Harmonic Vibrational Analysis <==

  non-mass-weighted Hessian:       Symmetric? True   Hermitian? True   Lin Dep Dim?  6 (0)
  projection of translations (True) and rotations (True) removed 6 degrees of freedom (6)
  total projector:                 Symmetric? True   Hermitian? True   Lin Dep Dim?  6 (6)
  mass-weighted Hessian:           Symmetric? True   Hermitian? True   Lin Dep Dim?  6 (0)
  pre-proj  low-frequency mode:    0.0000i [cm^-1]
  pre-proj  low-frequency mode:    0.0000i [cm^-1]
  pre-proj  low-frequency mode:    0.0000  [cm^-1]
  pre-proj  low-frequency mode:    0.0000  [cm^-1]
  pre-proj  low-frequency mode:    0.0000  [cm^-1]
  pre-proj  low-frequency mode:    0.0000  [cm^-1]
  pre-proj  all modes:['0.0000i' '0.0000i' '0.0000' '0.0000' '0.0000' '0.0000' '1213.9714'
 '2759.8188' '2765.0585']
  projected mass-weighted Hessian: Symmetric? True   Hermitian? True   Lin Dep Dim?  6 (6)
  post-proj low-frequency mode:    0.0001i [cm^-1] (TR)
  post-proj low-frequency mode:    0.0000i [cm^-1] (TR)
  post-proj low-frequency mode:    0.0000i [cm^-1] (TR)
  post-proj low-frequency mode:    0.0000i [cm^-1] (TR)
  post-proj low-frequency mode:    0.0000  [cm^-1] (TR)
  post-proj low-frequency mode:    0.0000  [cm^-1] (TR)
  post-proj  all modes:['0.0001i' '0.0000i' '0.0000i' '0.0000i' '0.0000' '0.0000' '1213.9714'
 '2759.8188' '2765.0585']

  Vibration                       7                   8                   9           
  Freq [cm^-1]                1213.9714           2759.8188           2765.0585       
  Irrep                           A1                  B2                  A1          
  Reduced mass [u]              1.0391              1.0399              1.0361        
  Force const [mDyne/A]         0.9023              4.6666              4.6673        
  Turning point v=0 [a0]        0.3089              0.2048              0.2050        
  RMS dev v=0 [a0 u^1/2]        0.2227              0.1477              0.1476        
  Char temp [K]               1746.6346           3970.7648           3978.3036       
  ----------------------------------------------------------------------------------
      1   S               -0.00  0.00  0.03   -0.00 -0.03 -0.00   -0.00  0.00 -0.03   
      2   H               -0.00  0.50 -0.50    0.00  0.51  0.49   -0.00  0.52  0.48   
      3   H                0.00 -0.50 -0.50   -0.00  0.51 -0.49   -0.00 -0.52  0.48   

  ==> Thermochemistry Components <==

  Entropy, S
    Electronic S            0.000 [cal/(mol K)]        0.000 [J/(mol K)]       0.00000000 [mEh/K] (multiplicity = 1)
    Translational S        36.501 [cal/(mol K)]      152.721 [J/(mol K)]       0.05816835 [mEh/K] (mol. weight = 33.9877 [u], P = 101325.00 [Pa])
    Rotational S           12.613 [cal/(mol K)]       52.772 [J/(mol K)]       0.02009989 [mEh/K] (symmetry no. = 2)
    Vibrational S           0.039 [cal/(mol K)]        0.164 [J/(mol K)]       0.00006235 [mEh/K]
  Total S                  49.153 [cal/(mol K)]      205.657 [J/(mol K)]       0.07833059 [mEh/K]
  Correction S              0.000 [cal/(mol K)]        0.000 [J/(mol K)]       0.00000000 [mEh/K]

  Constant volume heat capacity, Cv
    Electronic Cv           0.000 [cal/(mol K)]        0.000 [J/(mol K)]       0.00000000 [mEh/K]
    Translational Cv        2.981 [cal/(mol K)]       12.472 [J/(mol K)]       0.00475022 [mEh/K]
    Rotational Cv           2.981 [cal/(mol K)]       12.472 [J/(mol K)]       0.00475022 [mEh/K]
    Vibrational Cv          0.197 [cal/(mol K)]        0.824 [J/(mol K)]       0.00031403 [mEh/K]
  Total Cv                  6.159 [cal/(mol K)]       25.768 [J/(mol K)]       0.00981446 [mEh/K]
  Correction Cv             0.000 [cal/(mol K)]        0.000 [J/(mol K)]       0.00000000 [mEh/K]

  Constant pressure heat capacity, Cp
    Electronic Cp           0.000 [cal/(mol K)]        0.000 [J/(mol K)]       0.00000000 [mEh/K]
    Translational Cp        4.968 [cal/(mol K)]       20.786 [J/(mol K)]       0.00791703 [mEh/K]
    Rotational Cp           2.981 [cal/(mol K)]       12.472 [J/(mol K)]       0.00475022 [mEh/K]
    Vibrational Cp          0.197 [cal/(mol K)]        0.824 [J/(mol K)]       0.00031403 [mEh/K]
  Total Cp                  8.146 [cal/(mol K)]       34.082 [J/(mol K)]       0.01298127 [mEh/K]
  Correction Cp             0.000 [cal/(mol K)]        0.000 [J/(mol K)]       0.00000000 [mEh/K]

  ==> Thermochemistry Energy Analysis <==

  Raw electronic energy, E0
  Total E0, Electronic energy at well bottom at 0 [K]                 -399.33114760 [Eh]

  Zero-point energy, ZPE_vib = Sum_i nu_i / 2
    Electronic ZPE          0.000 [kcal/mol]        0.000 [kJ/mol]       0.00000000 [Eh]
    Translational ZPE       0.000 [kcal/mol]        0.000 [kJ/mol]       0.00000000 [Eh]
    Rotational ZPE          0.000 [kcal/mol]        0.000 [kJ/mol]       0.00000000 [Eh]
    Vibrational ZPE         9.634 [kcal/mol]       40.307 [kJ/mol]       0.01535223 [Eh]        3369.424 [cm^-1]
  Correction ZPE            9.634 [kcal/mol]       40.307 [kJ/mol]       0.01535223 [Eh]        3369.424 [cm^-1]
  Total ZPE, Electronic energy at 0 [K]                               -399.31579537 [Eh]

  Thermal Energy, E (includes ZPE)
    Electronic E            0.000 [kcal/mol]        0.000 [kJ/mol]       0.00000000 [Eh]
    Translational E         0.889 [kcal/mol]        3.718 [kJ/mol]       0.00141628 [Eh]
    Rotational E            0.889 [kcal/mol]        3.718 [kJ/mol]       0.00141628 [Eh]
    Vibrational E           9.644 [kcal/mol]       40.349 [kJ/mol]       0.01536811 [Eh]
  Correction E             11.421 [kcal/mol]       47.786 [kJ/mol]       0.01820067 [Eh]
  Total E, Electronic energy at  298.15 [K]                           -399.31294693 [Eh]

  Enthalpy, H_trans = E_trans + k_B * T
    Electronic H            0.000 [kcal/mol]        0.000 [kJ/mol]       0.00000000 [Eh]
    Translational H         1.481 [kcal/mol]        6.197 [kJ/mol]       0.00236046 [Eh]
    Rotational H            0.889 [kcal/mol]        3.718 [kJ/mol]       0.00141628 [Eh]
    Vibrational H           9.644 [kcal/mol]       40.349 [kJ/mol]       0.01536811 [Eh]
  Correction H             12.014 [kcal/mol]       50.265 [kJ/mol]       0.01914485 [Eh]
  Total H, Enthalpy at  298.15 [K]                                    -399.31200275 [Eh]

  Gibbs free energy, G = H - T * S
    Electronic G            0.000 [kcal/mol]        0.000 [kJ/mol]       0.00000000 [Eh]
    Translational G        -9.402 [kcal/mol]      -39.336 [kJ/mol]      -0.01498243 [Eh]
    Rotational G           -2.872 [kcal/mol]      -12.016 [kJ/mol]      -0.00457651 [Eh]
    Vibrational G           9.632 [kcal/mol]       40.300 [kJ/mol]       0.01534952 [Eh]
  Correction G             -2.641 [kcal/mol]      -11.052 [kJ/mol]      -0.00420942 [Eh]
  Total G, Free enthalpy at  298.15 [K]                               -399.33535702 [Eh]

    Psi4 stopped on: Tuesday, 27 April 2021 06:06PM
    Psi4 wall time for execution: 0:00:55.48

*** Psi4 exiting successfully. Buy a developer a beer!
