
    -----------------------------------------------------------------------
          Psi4: An Open-Source Ab Initio Electronic Structure Package
                               Psi4 1.3.2 release

                         Git: Rev {HEAD} ecbda83 


    R. M. Parrish, L. A. Burns, D. G. A. Smith, A. C. Simmonett,
    A. E. DePrince III, E. G. Hohenstein, U. Bozkaya, A. Yu. Sokolov,
    R. Di Remigio, R. M. Richard, J. F. Gonthier, A. M. James,
    H. R. McAlexander, A. Kumar, M. Saitow, X. Wang, B. P. Pritchard,
    P. Verma, H. F. Schaefer III, K. Patkowski, R. A. King, E. F. Valeev,
    F. A. Evangelista, J. M. Turney, T. D. Crawford, and C. D. Sherrill,
    J. Chem. Theory Comput. 13(7) pp 3185--3197 (2017).
    (doi: 10.1021/acs.jctc.7b00174)


                         Additional Contributions by
    P. Kraus, H. Kruse, M. H. Lechner, M. C. Schieber, R. A. Shaw,
    A. Alenaizan, R. Galvelis, Z. L. Glick, S. Lehtola, and J. P. Misiewicz

    -----------------------------------------------------------------------


    Psi4 started on: Tuesday, 27 April 2021 06:08PM

    Process ID: 143269
    Host:       bp1-compute00113.data.bp.acrc.priv
    PSIDATADIR: /work/zw18965/.conda/envs/p4env/share/psi4
    Memory:     500.0 MiB
    Threads:    24
    
  ==> Input File <==

--------------------------------------------------------------------------
memory 144 GB

molecule {
0 1
C -0.0479167327 0.6682939561 0.0000000000
H -1.0907101856 0.9776732069 0.0000000000
H 0.4344161461 1.0815239129 0.8898543791
H 0.4344161461 1.0815239129 -0.8898543791
O -0.0410920225 -0.7509554452 0.0000000000
H 0.8712936485 -1.0420305436 0.0000000000
}

set dynamic_level 1
set basis cc-pV(D+d)Z
 
optimize("wB97X-V")
frequencies("wB97X-V")
--------------------------------------------------------------------------

  Memory set to 134.110 GiB by Python driver.
gradient() will perform gradient computation by finite difference of analytic energies.

         ----------------------------------------------------------
                                   FINDIF
                     R. A. King and Jonathon Misiewicz
         ---------------------------------------------------------

  Using finite-differences of energies to determine gradients.
    Generating geometries for use with 3-point formula.
    Displacement size will be 5.00e-03.
    Number of atoms is 6.
    Number of symmetric SALCs is 8.
    Translations projected? 1. Rotations projected? 1.
    Number of geometries (including reference) is 17.

  //>>>>>>>>>>>>>>>>>>>>>>>>>>>>>>>>>>>//
  //    Loading displacement 1 of 17   //
  //<<<<<<<<<<<<<<<<<<<<<<<<<<<<<<<<<<<//

*** tstart() called on bp1-compute00113.data.bp.acrc.priv
*** at Tue Apr 27 18:08:19 2021

   => Loading Basis Set <=

    Name: CC-PV(D+D)Z
    Role: ORBITAL
    Keyword: BASIS
    atoms 1      entry C          line   147 file /work/zw18965/.conda/envs/p4env/share/psi4/basis/cc-pv_dpd_z.gbs 
    atoms 2-4, 6 entry H          line    31 file /work/zw18965/.conda/envs/p4env/share/psi4/basis/cc-pv_dpd_z.gbs 
    atoms 5      entry O          line   207 file /work/zw18965/.conda/envs/p4env/share/psi4/basis/cc-pv_dpd_z.gbs 


         ---------------------------------------------------------
                                   SCF
               by Justin Turney, Rob Parrish, Andy Simmonett
                          and Daniel G. A. Smith
                              RKS Reference
                       24 Threads, 137329 MiB Core
         ---------------------------------------------------------

  ==> Geometry <==

    Molecular point group: cs
    Full point group: Cs

    Geometry (in Angstrom), charge = 0, multiplicity = 1:

       Center              X                  Y                   Z               Mass       
    ------------   -----------------  -----------------  -----------------  -----------------
         C           -0.029876301320     0.726896821309     0.000000000000    12.000000000000
         H           -1.072669754220     1.036276072109     0.000000000000     1.007825032230
         H            0.452456577480     1.140126778109     0.889854379100     1.007825032230
         H            0.452456577480     1.140126778109    -0.889854379100     1.007825032230
         O           -0.023051591120    -0.692352579991     0.000000000000    15.994914619570
         H            0.889334079880    -0.983427678391     0.000000000000     1.007825032230

  Running in cs symmetry.

  Rotational constants: A =      4.29227  B =      0.82887  C =      0.79995 [cm^-1]
  Rotational constants: A = 128678.99499  B =  24848.85742  C =  23981.83297 [MHz]
  Nuclear repulsion =   40.355999452268222

  Charge       = 0
  Multiplicity = 1
  Electrons    = 18
  Nalpha       = 9
  Nbeta        = 9

  ==> Algorithm <==

  SCF Algorithm Type is DF.
  DIIS enabled.
  MOM disabled.
  Fractional occupation disabled.
  Guess Type is SAD.
  Energy threshold   = 1.00e-08
  Density threshold  = 1.00e-08
  Integral threshold = 0.00e+00

  ==> Primary Basis <==

  Basis Set: CC-PV(D+D)Z
    Blend: CC-PV(D+D)Z
    Number of shells: 24
    Number of basis function: 48
    Number of Cartesian functions: 50
    Spherical Harmonics?: true
    Max angular momentum: 2

  ==> DFT Potential <==

   => Composite Functional: WB97X-V <= 

    wB97X-V Hyb-GGA Exchange-Correlation Functional

    N. Mardirossian and M. Head-Gordon, Phys. Chem. Chem. Phys. 16, 9904 (2014)

    Deriv               =              1
    GGA                 =           TRUE
    Meta                =          FALSE

    Exchange Hybrid     =           TRUE
    MP2 Hybrid          =          FALSE

   => Exchange-Correlation Functionals <=

    1.0000   wB97X-V range-separated functional

   => Exact (HF) Exchange <=

    0.8330            HF,LR [omega = 0.3000]
    0.1670               HF 

   => VV10 Non-Local Parameters <=

    VV10 B              =     6.0000E+00
    VV10 C              =     1.0000E-02

   => Molecular Quadrature <=

    Radial Scheme          =       TREUTLER
    Pruning Scheme         =           FLAT
    Nuclear Scheme         =       TREUTLER

    BS radius alpha        =              1
    Pruning alpha          =              1
    Radial Points          =             75
    Spherical Points       =            302
    Total Points           =         133366
    Total Blocks           =           1068
    Max Points             =            256
    Max Functions          =             48

   => Loading Basis Set <=

    Name: (CC-PV(D+D)Z AUX)
    Role: JKFIT
    Keyword: DF_BASIS_SCF
    atoms 1      entry C          line   121 file /work/zw18965/.conda/envs/p4env/share/psi4/basis/cc-pvdz-jkfit.gbs 
    atoms 2-4, 6 entry H          line    51 file /work/zw18965/.conda/envs/p4env/share/psi4/basis/cc-pvdz-jkfit.gbs 
    atoms 5      entry O          line   221 file /work/zw18965/.conda/envs/p4env/share/psi4/basis/cc-pvdz-jkfit.gbs 

  ==> Pre-Iterations <==

   -------------------------------------------------------
    Irrep   Nso     Nmo     Nalpha   Nbeta   Ndocc  Nsocc
   -------------------------------------------------------
     A'        33      33       0       0       0       0
     A"        15      15       0       0       0       0
   -------------------------------------------------------
    Total      48      48       9       9       9       0
   -------------------------------------------------------

  ==> Integral Setup <==

  ==> DiskDFJK: Density-Fitted J/K Matrices <==

    J tasked:                  Yes
    K tasked:                  Yes
    wK tasked:                 Yes
    Omega:               3.000E-01
    OpenMP threads:             24
    Integrals threads:          24
    Memory [MiB]:           102816
    Algorithm:                Core
    Integral Cache:           NONE
    Schwarz Cutoff:          1E-12
    Fitting Condition:       1E-10

   => Auxiliary Basis Set <=

  Basis Set: (CC-PV(D+D)Z AUX)
    Blend: CC-PVDZ-JKFIT
    Number of shells: 84
    Number of basis function: 232
    Number of Cartesian functions: 262
    Spherical Harmonics?: true
    Max angular momentum: 3

  Cached 100.0% of DFT collocation blocks in 0.176 [GiB].

  Minimum eigenvalue in the overlap matrix is 1.6502373624E-02.
  Using Symmetric Orthogonalization.

  SCF Guess: Superposition of Atomic Densities via on-the-fly atomic UHF.

  ==> Iterations <==

                           Total Energy        Delta E     RMS |[F,P]|

   @DF-RKS iter SAD:  -115.12671056913467   -1.15127e+02   0.00000e+00 
   @DF-RKS iter   1:  -115.58596522900250   -4.59255e-01   1.27535e-02 DIIS
   @DF-RKS iter   2:  -115.62424877653781   -3.82835e-02   1.09297e-02 DIIS
   @DF-RKS iter   3:  -115.68070438114971   -5.64556e-02   1.10092e-03 DIIS
   @DF-RKS iter   4:  -115.68136229940478   -6.57918e-04   3.97593e-04 DIIS
   @DF-RKS iter   5:  -115.68147306080654   -1.10761e-04   8.12964e-05 DIIS
   @DF-RKS iter   6:  -115.68147818332963   -5.12252e-06   8.94753e-06 DIIS
   @DF-RKS iter   7:  -115.68147833895635   -1.55627e-07   1.49364e-06 DIIS
   @DF-RKS iter   8:  -115.68147834417175   -5.21540e-09   3.46868e-07 DIIS
   @DF-RKS iter   9:  -115.68147834444139   -2.69637e-10   8.83144e-08 DIIS
   @DF-RKS iter  10:  -115.68147834445740   -1.60156e-11   1.71549e-08 DIIS
   @DF-RKS iter  11:  -115.68147834445790   -4.97380e-13   2.59722e-09 DIIS
  Energy and wave function converged.


  ==> Post-Iterations <==

    Orbital Energies [Eh]
    ---------------------

    Doubly Occupied:                                                      

       1Ap   -19.211611     2Ap   -10.317225     3Ap    -1.138049  
       4Ap    -0.803792     5Ap    -0.609959     1App   -0.544663  
       6Ap    -0.525367     7Ap    -0.431990     2App   -0.368349  

    Virtual:                                                              

       8Ap     0.150781     9Ap     0.188989    10Ap     0.230672  
       3App    0.231466    11Ap     0.297224    12Ap     0.550256  
       4App    0.566157    13Ap     0.603267    14Ap     0.688646  
       5App    0.745968    15Ap     0.771558    16Ap     0.774775  
      17Ap     0.980606     6App    1.011851    18Ap     1.064736  
      19Ap     1.131366     7App    1.183328    20Ap     1.317990  
       8App    1.460239    21Ap     1.514925     9App    1.530249  
      10App    1.713155    22Ap     1.736713    23Ap     1.766422  
      11App    1.785494    24Ap     1.851100    25Ap     1.973958  
      26Ap     2.107154    12App    2.199906    27Ap     2.213360  
      28Ap     2.309154    13App    2.538085    29Ap     2.553428  
      30Ap     2.565989    14App    3.053196    15App    3.135414  
      31Ap     3.172623    32Ap     3.322211    33Ap     3.801801  

    Final Occupation by Irrep:
             Ap   App 
    DOCC [     7,    2 ]

  @DF-RKS Final Energy:  -115.68147834445790

   => Energetics <=

    Nuclear Repulsion Energy =             40.3559994522682217
    One-Electron Energy =                -237.0737827322990654
    Two-Electron Energy =                  91.6830802969869580
    DFT Exchange-Correlation Energy =     -10.7205489524908142
    Empirical Dispersion Energy =           0.0000000000000000
    VV10 Nonlocal Energy =                  0.0737735910768152
    Total Energy =                       -115.6814783444579007

Computation Completed


Properties will be evaluated at   0.000000,   0.000000,   0.000000 [a0]

Properties computed using the SCF density matrix

  Nuclear Dipole Moment: [e a0]
     X:     0.6763      Y:     2.1839      Z:     0.0000

  Electronic Dipole Moment: [e a0]
     X:    -0.1443      Y:    -1.8381      Z:     0.0000

  Dipole Moment: [e a0]
     X:     0.5321      Y:     0.3458      Z:     0.0000     Total:     0.6346

  Dipole Moment: [D]
     X:     1.3524      Y:     0.8789      Z:     0.0000     Total:     1.6129


*** tstop() called on bp1-compute00113.data.bp.acrc.priv at Tue Apr 27 18:08:24 2021
Module time:
	user time   =     108.28 seconds =       1.80 minutes
	system time =       3.89 seconds =       0.06 minutes
	total time  =          5 seconds =       0.08 minutes
Total time:
	user time   =     108.28 seconds =       1.80 minutes
	system time =       3.89 seconds =       0.06 minutes
	total time  =          5 seconds =       0.08 minutes

  //>>>>>>>>>>>>>>>>>>>>>>>>>>>>>>>>>>>//
  //    Loading displacement 2 of 17   //
  //<<<<<<<<<<<<<<<<<<<<<<<<<<<<<<<<<<<//

*** tstart() called on bp1-compute00113.data.bp.acrc.priv
*** at Tue Apr 27 18:08:24 2021

   => Loading Basis Set <=

    Name: CC-PV(D+D)Z
    Role: ORBITAL
    Keyword: BASIS
    atoms 1      entry C          line   147 file /work/zw18965/.conda/envs/p4env/share/psi4/basis/cc-pv_dpd_z.gbs 
    atoms 2-4, 6 entry H          line    31 file /work/zw18965/.conda/envs/p4env/share/psi4/basis/cc-pv_dpd_z.gbs 
    atoms 5      entry O          line   207 file /work/zw18965/.conda/envs/p4env/share/psi4/basis/cc-pv_dpd_z.gbs 


         ---------------------------------------------------------
                                   SCF
               by Justin Turney, Rob Parrish, Andy Simmonett
                          and Daniel G. A. Smith
                              RKS Reference
                       24 Threads, 137329 MiB Core
         ---------------------------------------------------------

  ==> Geometry <==

    Molecular point group: cs
    Full point group: Cs

    Geometry (in Angstrom), charge = 0, multiplicity = 1:

       Center              X                  Y                   Z               Mass       
    ------------   -----------------  -----------------  -----------------  -----------------
         C           -0.030311351757     0.726913404475     0.000000000000    12.000000000000
         H           -1.071592103061     1.036871469113     0.000000000000     1.007825032230
         H            0.453591872101     1.139875637169     0.889854379100     1.007825032230
         H            0.453591872101     1.139875637169    -0.889854379100     1.007825032230
         O           -0.022933434081    -0.692339784955     0.000000000000    15.994914619570
         H            0.889290672523    -0.983921312937     0.000000000000     1.007825032230

  Running in cs symmetry.

  Rotational constants: A =      4.29272  B =      0.82881  C =      0.79991 [cm^-1]
  Rotational constants: A = 128692.58843  B =  24847.16735  C =  23980.73083 [MHz]
  Nuclear repulsion =   40.355686796729060

  Charge       = 0
  Multiplicity = 1
  Electrons    = 18
  Nalpha       = 9
  Nbeta        = 9

  ==> Algorithm <==

  SCF Algorithm Type is DF.
  DIIS enabled.
  MOM disabled.
  Fractional occupation disabled.
  Guess Type is SAD.
  Energy threshold   = 1.00e-08
  Density threshold  = 1.00e-08
  Integral threshold = 0.00e+00

  ==> Primary Basis <==

  Basis Set: CC-PV(D+D)Z
    Blend: CC-PV(D+D)Z
    Number of shells: 24
    Number of basis function: 48
    Number of Cartesian functions: 50
    Spherical Harmonics?: true
    Max angular momentum: 2

  ==> DFT Potential <==

   => Composite Functional: WB97X-V <= 

    wB97X-V Hyb-GGA Exchange-Correlation Functional

    N. Mardirossian and M. Head-Gordon, Phys. Chem. Chem. Phys. 16, 9904 (2014)

    Deriv               =              1
    GGA                 =           TRUE
    Meta                =          FALSE

    Exchange Hybrid     =           TRUE
    MP2 Hybrid          =          FALSE

   => Exchange-Correlation Functionals <=

    1.0000   wB97X-V range-separated functional

   => Exact (HF) Exchange <=

    0.8330            HF,LR [omega = 0.3000]
    0.1670               HF 

   => VV10 Non-Local Parameters <=

    VV10 B              =     6.0000E+00
    VV10 C              =     1.0000E-02

   => Molecular Quadrature <=

    Radial Scheme          =       TREUTLER
    Pruning Scheme         =           FLAT
    Nuclear Scheme         =       TREUTLER

    BS radius alpha        =              1
    Pruning alpha          =              1
    Radial Points          =             75
    Spherical Points       =            302
    Total Points           =         133366
    Total Blocks           =           1068
    Max Points             =            256
    Max Functions          =             48

   => Loading Basis Set <=

    Name: (CC-PV(D+D)Z AUX)
    Role: JKFIT
    Keyword: DF_BASIS_SCF
    atoms 1      entry C          line   121 file /work/zw18965/.conda/envs/p4env/share/psi4/basis/cc-pvdz-jkfit.gbs 
    atoms 2-4, 6 entry H          line    51 file /work/zw18965/.conda/envs/p4env/share/psi4/basis/cc-pvdz-jkfit.gbs 
    atoms 5      entry O          line   221 file /work/zw18965/.conda/envs/p4env/share/psi4/basis/cc-pvdz-jkfit.gbs 

  ==> Pre-Iterations <==

   -------------------------------------------------------
    Irrep   Nso     Nmo     Nalpha   Nbeta   Ndocc  Nsocc
   -------------------------------------------------------
     A'        33      33       0       0       0       0
     A"        15      15       0       0       0       0
   -------------------------------------------------------
    Total      48      48       9       9       9       0
   -------------------------------------------------------

  ==> Integral Setup <==

  ==> DiskDFJK: Density-Fitted J/K Matrices <==

    J tasked:                  Yes
    K tasked:                  Yes
    wK tasked:                 Yes
    Omega:               3.000E-01
    OpenMP threads:             24
    Integrals threads:          24
    Memory [MiB]:           102816
    Algorithm:                Core
    Integral Cache:           NONE
    Schwarz Cutoff:          1E-12
    Fitting Condition:       1E-10

   => Auxiliary Basis Set <=

  Basis Set: (CC-PV(D+D)Z AUX)
    Blend: CC-PVDZ-JKFIT
    Number of shells: 84
    Number of basis function: 232
    Number of Cartesian functions: 262
    Spherical Harmonics?: true
    Max angular momentum: 3

  Cached 100.0% of DFT collocation blocks in 0.176 [GiB].

  Minimum eigenvalue in the overlap matrix is 1.6503562867E-02.
  Using Symmetric Orthogonalization.

  SCF Guess: Superposition of Atomic Densities via on-the-fly atomic UHF.

  ==> Iterations <==

                           Total Energy        Delta E     RMS |[F,P]|

   @DF-RKS iter SAD:  -115.12663216317210   -1.15127e+02   0.00000e+00 
   @DF-RKS iter   1:  -115.58593752469038   -4.59305e-01   1.27550e-02 DIIS
   @DF-RKS iter   2:  -115.62422153777185   -3.82840e-02   1.09314e-02 DIIS
   @DF-RKS iter   3:  -115.68069777751238   -5.64762e-02   1.10066e-03 DIIS
   @DF-RKS iter   4:  -115.68135541957284   -6.57642e-04   3.97554e-04 DIIS
   @DF-RKS iter   5:  -115.68146616715516   -1.10748e-04   8.12821e-05 DIIS
   @DF-RKS iter   6:  -115.68147128740276   -5.12025e-06   8.94735e-06 DIIS
   @DF-RKS iter   7:  -115.68147144297079   -1.55568e-07   1.49300e-06 DIIS
   @DF-RKS iter   8:  -115.68147144818273   -5.21194e-09   3.46751e-07 DIIS
   @DF-RKS iter   9:  -115.68147144845189   -2.69154e-10   8.82132e-08 DIIS
   @DF-RKS iter  10:  -115.68147144846799   -1.61009e-11   1.71365e-08 DIIS
   @DF-RKS iter  11:  -115.68147144846846   -4.68958e-13   2.59991e-09 DIIS
  Energy and wave function converged.


  ==> Post-Iterations <==

    Orbital Energies [Eh]
    ---------------------

    Doubly Occupied:                                                      

       1Ap   -19.211567     2Ap   -10.317240     3Ap    -1.137999  
       4Ap    -0.803831     5Ap    -0.609942     1App   -0.544438  
       6Ap    -0.525661     7Ap    -0.431997     2App   -0.368245  

    Virtual:                                                              

       8Ap     0.150749     9Ap     0.188997    10Ap     0.230866  
       3App    0.231349    11Ap     0.297203    12Ap     0.550501  
       4App    0.565870    13Ap     0.603253    14Ap     0.688603  
       5App    0.745682    15Ap     0.772047    16Ap     0.774666  
      17Ap     0.980571     6App    1.011934    18Ap     1.064777  
      19Ap     1.131335     7App    1.183337    20Ap     1.318183  
       8App    1.460408    21Ap     1.515013     9App    1.530237  
      10App    1.713017    22Ap     1.736570    23Ap     1.766697  
      11App    1.785014    24Ap     1.851480    25Ap     1.974080  
      26Ap     2.107983    12App    2.200007    27Ap     2.212175  
      28Ap     2.309645    13App    2.537287    29Ap     2.552094  
      30Ap     2.568016    14App    3.052951    15App    3.135155  
      31Ap     3.172700    32Ap     3.322504    33Ap     3.801881  

    Final Occupation by Irrep:
             Ap   App 
    DOCC [     7,    2 ]

  @DF-RKS Final Energy:  -115.68147144846846

   => Energetics <=

    Nuclear Repulsion Energy =             40.3556867967290600
    One-Electron Energy =                -237.0733029336623758
    Two-Electron Energy =                  91.6829427857065298
    DFT Exchange-Correlation Energy =     -10.7205719577526484
    Empirical Dispersion Energy =           0.0000000000000000
    VV10 Nonlocal Energy =                  0.0737738605109791
    Total Energy =                       -115.6814714484684572

Computation Completed


Properties will be evaluated at   0.000000,   0.000000,   0.000000 [a0]

Properties computed using the SCF density matrix

  Nuclear Dipole Moment: [e a0]
     X:     0.6794      Y:     2.1835      Z:     0.0000

  Electronic Dipole Moment: [e a0]
     X:    -0.1478      Y:    -1.8379      Z:     0.0000

  Dipole Moment: [e a0]
     X:     0.5316      Y:     0.3456      Z:     0.0000     Total:     0.6341

  Dipole Moment: [D]
     X:     1.3513      Y:     0.8783      Z:     0.0000     Total:     1.6116


*** tstop() called on bp1-compute00113.data.bp.acrc.priv at Tue Apr 27 18:08:29 2021
Module time:
	user time   =     106.89 seconds =       1.78 minutes
	system time =       2.89 seconds =       0.05 minutes
	total time  =          5 seconds =       0.08 minutes
Total time:
	user time   =     215.31 seconds =       3.59 minutes
	system time =       6.78 seconds =       0.11 minutes
	total time  =         10 seconds =       0.17 minutes

  //>>>>>>>>>>>>>>>>>>>>>>>>>>>>>>>>>>>//
  //    Loading displacement 3 of 17   //
  //<<<<<<<<<<<<<<<<<<<<<<<<<<<<<<<<<<<//

*** tstart() called on bp1-compute00113.data.bp.acrc.priv
*** at Tue Apr 27 18:08:29 2021

   => Loading Basis Set <=

    Name: CC-PV(D+D)Z
    Role: ORBITAL
    Keyword: BASIS
    atoms 1      entry C          line   147 file /work/zw18965/.conda/envs/p4env/share/psi4/basis/cc-pv_dpd_z.gbs 
    atoms 2-4, 6 entry H          line    31 file /work/zw18965/.conda/envs/p4env/share/psi4/basis/cc-pv_dpd_z.gbs 
    atoms 5      entry O          line   207 file /work/zw18965/.conda/envs/p4env/share/psi4/basis/cc-pv_dpd_z.gbs 


         ---------------------------------------------------------
                                   SCF
               by Justin Turney, Rob Parrish, Andy Simmonett
                          and Daniel G. A. Smith
                              RKS Reference
                       24 Threads, 137329 MiB Core
         ---------------------------------------------------------

  ==> Geometry <==

    Molecular point group: cs
    Full point group: Cs

    Geometry (in Angstrom), charge = 0, multiplicity = 1:

       Center              X                  Y                   Z               Mass       
    ------------   -----------------  -----------------  -----------------  -----------------
         C           -0.029441250884     0.726880238143     0.000000000000    12.000000000000
         H           -1.073747405379     1.035680675105     0.000000000000     1.007825032230
         H            0.451321282858     1.140377919049     0.889854379100     1.007825032230
         H            0.451321282858     1.140377919049    -0.889854379100     1.007825032230
         O           -0.023169748160    -0.692365375027     0.000000000000    15.994914619570
         H            0.889377487236    -0.982934043845     0.000000000000     1.007825032230

  Running in cs symmetry.

  Rotational constants: A =      4.29180  B =      0.82892  C =      0.79998 [cm^-1]
  Rotational constants: A = 128665.02123  B =  24850.54490  C =  23982.91928 [MHz]
  Nuclear repulsion =   40.356304923243833

  Charge       = 0
  Multiplicity = 1
  Electrons    = 18
  Nalpha       = 9
  Nbeta        = 9

  ==> Algorithm <==

  SCF Algorithm Type is DF.
  DIIS enabled.
  MOM disabled.
  Fractional occupation disabled.
  Guess Type is SAD.
  Energy threshold   = 1.00e-08
  Density threshold  = 1.00e-08
  Integral threshold = 0.00e+00

  ==> Primary Basis <==

  Basis Set: CC-PV(D+D)Z
    Blend: CC-PV(D+D)Z
    Number of shells: 24
    Number of basis function: 48
    Number of Cartesian functions: 50
    Spherical Harmonics?: true
    Max angular momentum: 2

  ==> DFT Potential <==

   => Composite Functional: WB97X-V <= 

    wB97X-V Hyb-GGA Exchange-Correlation Functional

    N. Mardirossian and M. Head-Gordon, Phys. Chem. Chem. Phys. 16, 9904 (2014)

    Deriv               =              1
    GGA                 =           TRUE
    Meta                =          FALSE

    Exchange Hybrid     =           TRUE
    MP2 Hybrid          =          FALSE

   => Exchange-Correlation Functionals <=

    1.0000   wB97X-V range-separated functional

   => Exact (HF) Exchange <=

    0.8330            HF,LR [omega = 0.3000]
    0.1670               HF 

   => VV10 Non-Local Parameters <=

    VV10 B              =     6.0000E+00
    VV10 C              =     1.0000E-02

   => Molecular Quadrature <=

    Radial Scheme          =       TREUTLER
    Pruning Scheme         =           FLAT
    Nuclear Scheme         =       TREUTLER

    BS radius alpha        =              1
    Pruning alpha          =              1
    Radial Points          =             75
    Spherical Points       =            302
    Total Points           =         133366
    Total Blocks           =           1065
    Max Points             =            256
    Max Functions          =             48

   => Loading Basis Set <=

    Name: (CC-PV(D+D)Z AUX)
    Role: JKFIT
    Keyword: DF_BASIS_SCF
    atoms 1      entry C          line   121 file /work/zw18965/.conda/envs/p4env/share/psi4/basis/cc-pvdz-jkfit.gbs 
    atoms 2-4, 6 entry H          line    51 file /work/zw18965/.conda/envs/p4env/share/psi4/basis/cc-pvdz-jkfit.gbs 
    atoms 5      entry O          line   221 file /work/zw18965/.conda/envs/p4env/share/psi4/basis/cc-pvdz-jkfit.gbs 

  ==> Pre-Iterations <==

   -------------------------------------------------------
    Irrep   Nso     Nmo     Nalpha   Nbeta   Ndocc  Nsocc
   -------------------------------------------------------
     A'        33      33       0       0       0       0
     A"        15      15       0       0       0       0
   -------------------------------------------------------
    Total      48      48       9       9       9       0
   -------------------------------------------------------

  ==> Integral Setup <==

  ==> DiskDFJK: Density-Fitted J/K Matrices <==

    J tasked:                  Yes
    K tasked:                  Yes
    wK tasked:                 Yes
    Omega:               3.000E-01
    OpenMP threads:             24
    Integrals threads:          24
    Memory [MiB]:           102816
    Algorithm:                Core
    Integral Cache:           NONE
    Schwarz Cutoff:          1E-12
    Fitting Condition:       1E-10

   => Auxiliary Basis Set <=

  Basis Set: (CC-PV(D+D)Z AUX)
    Blend: CC-PVDZ-JKFIT
    Number of shells: 84
    Number of basis function: 232
    Number of Cartesian functions: 262
    Spherical Harmonics?: true
    Max angular momentum: 3

  Cached 100.0% of DFT collocation blocks in 0.176 [GiB].

  Minimum eigenvalue in the overlap matrix is 1.6501146369E-02.
  Using Symmetric Orthogonalization.

  SCF Guess: Superposition of Atomic Densities via on-the-fly atomic UHF.

  ==> Iterations <==

                           Total Energy        Delta E     RMS |[F,P]|

   @DF-RKS iter SAD:  -115.12678506461869   -1.15127e+02   0.00000e+00 
   @DF-RKS iter   1:  -115.58598838606605   -4.59203e-01   1.27519e-02 DIIS
   @DF-RKS iter   2:  -115.62427169403043   -3.82833e-02   1.09280e-02 DIIS
   @DF-RKS iter   3:  -115.68070686828000   -5.64352e-02   1.10117e-03 DIIS
   @DF-RKS iter   4:  -115.68136506406904   -6.58196e-04   3.97636e-04 DIIS
   @DF-RKS iter   5:  -115.68147584141484   -1.10777e-04   8.13118e-05 DIIS
   @DF-RKS iter   6:  -115.68148096640103   -5.12499e-06   8.94801e-06 DIIS
   @DF-RKS iter   7:  -115.68148112209960   -1.55699e-07   1.49435e-06 DIIS
   @DF-RKS iter   8:  -115.68148112731919   -5.21959e-09   3.46995e-07 DIIS
   @DF-RKS iter   9:  -115.68148112758898   -2.69793e-10   8.84172e-08 DIIS
   @DF-RKS iter  10:  -115.68148112760520   -1.62146e-11   1.71735e-08 DIIS
   @DF-RKS iter  11:  -115.68148112760579   -5.96856e-13   2.59462e-09 DIIS
  Energy and wave function converged.


  ==> Post-Iterations <==

    Orbital Energies [Eh]
    ---------------------

    Doubly Occupied:                                                      

       1Ap   -19.211656     2Ap   -10.317211     3Ap    -1.138100  
       4Ap    -0.803754     5Ap    -0.609976     1App   -0.544889  
       6Ap    -0.525075     7Ap    -0.431981     2App   -0.368453  

    Virtual:                                                              

       8Ap     0.150812     9Ap     0.188981    10Ap     0.230478  
       3App    0.231582    11Ap     0.297245    12Ap     0.550011  
       4App    0.566446    13Ap     0.603281    14Ap     0.688689  
       5App    0.746253    15Ap     0.771038    16Ap     0.774916  
      17Ap     0.980641     6App    1.011767    18Ap     1.064695  
      19Ap     1.131397     7App    1.183318    20Ap     1.317797  
       8App    1.460069    21Ap     1.514835     9App    1.530259  
      10App    1.713294    22Ap     1.736853    23Ap     1.766148  
      11App    1.785973    24Ap     1.850720    25Ap     1.973835  
      26Ap     2.106321    12App    2.199803    27Ap     2.214541  
      28Ap     2.308668    13App    2.538882    29Ap     2.554454  
      30Ap     2.564290    14App    3.053440    15App    3.135676  
      31Ap     3.172550    32Ap     3.321916    33Ap     3.801722  

    Final Occupation by Irrep:
             Ap   App 
    DOCC [     7,    2 ]

  @DF-RKS Final Energy:  -115.68148112760579

   => Energetics <=

    Nuclear Repulsion Energy =             40.3563049232438331
    One-Electron Energy =                -237.0742372507116897
    Two-Electron Energy =                  91.6832030753198097
    DFT Exchange-Correlation Energy =     -10.7205251945477684
    Empirical Dispersion Energy =           0.0000000000000000
    VV10 Nonlocal Energy =                  0.0737733190900211
    Total Energy =                       -115.6814811276057782

Computation Completed


Properties will be evaluated at   0.000000,   0.000000,   0.000000 [a0]

Properties computed using the SCF density matrix

  Nuclear Dipole Moment: [e a0]
     X:     0.6732      Y:     2.1843      Z:     0.0000

  Electronic Dipole Moment: [e a0]
     X:    -0.1407      Y:    -1.8383      Z:     0.0000

  Dipole Moment: [e a0]
     X:     0.5325      Y:     0.3460      Z:     0.0000     Total:     0.6350

  Dipole Moment: [D]
     X:     1.3535      Y:     0.8794      Z:     0.0000     Total:     1.6141


*** tstop() called on bp1-compute00113.data.bp.acrc.priv at Tue Apr 27 18:08:33 2021
Module time:
	user time   =     106.51 seconds =       1.78 minutes
	system time =       2.62 seconds =       0.04 minutes
	total time  =          4 seconds =       0.07 minutes
Total time:
	user time   =     321.96 seconds =       5.37 minutes
	system time =       9.40 seconds =       0.16 minutes
	total time  =         14 seconds =       0.23 minutes

  //>>>>>>>>>>>>>>>>>>>>>>>>>>>>>>>>>>>//
  //    Loading displacement 4 of 17   //
  //<<<<<<<<<<<<<<<<<<<<<<<<<<<<<<<<<<<//

*** tstart() called on bp1-compute00113.data.bp.acrc.priv
*** at Tue Apr 27 18:08:33 2021

   => Loading Basis Set <=

    Name: CC-PV(D+D)Z
    Role: ORBITAL
    Keyword: BASIS
    atoms 1      entry C          line   147 file /work/zw18965/.conda/envs/p4env/share/psi4/basis/cc-pv_dpd_z.gbs 
    atoms 2-4, 6 entry H          line    31 file /work/zw18965/.conda/envs/p4env/share/psi4/basis/cc-pv_dpd_z.gbs 
    atoms 5      entry O          line   207 file /work/zw18965/.conda/envs/p4env/share/psi4/basis/cc-pv_dpd_z.gbs 


         ---------------------------------------------------------
                                   SCF
               by Justin Turney, Rob Parrish, Andy Simmonett
                          and Daniel G. A. Smith
                              RKS Reference
                       24 Threads, 137329 MiB Core
         ---------------------------------------------------------

  ==> Geometry <==

    Molecular point group: cs
    Full point group: Cs

    Geometry (in Angstrom), charge = 0, multiplicity = 1:

       Center              X                  Y                   Z               Mass       
    ------------   -----------------  -----------------  -----------------  -----------------
         C           -0.029876301320     0.726293308246     0.000000000000    12.000000000000
         H           -1.072623100720     1.036672274162     0.000000000000     1.007825032230
         H            0.452506522770     1.140474637730     0.889854379100     1.007825032230
         H            0.452506522770     1.140474637730    -0.889854379100     1.007825032230
         O           -0.023059730532    -0.691989648031     0.000000000000    15.994914619570
         H            0.889316714165    -0.983093666620     0.000000000000     1.007825032230

  Running in cs symmetry.

  Rotational constants: A =      4.29230  B =      0.82955  C =      0.80059 [cm^-1]
  Rotational constants: A = 128679.96076  B =  24869.40166  C =  24001.00162 [MHz]
  Nuclear repulsion =   40.366224870101988

  Charge       = 0
  Multiplicity = 1
  Electrons    = 18
  Nalpha       = 9
  Nbeta        = 9

  ==> Algorithm <==

  SCF Algorithm Type is DF.
  DIIS enabled.
  MOM disabled.
  Fractional occupation disabled.
  Guess Type is SAD.
  Energy threshold   = 1.00e-08
  Density threshold  = 1.00e-08
  Integral threshold = 0.00e+00

  ==> Primary Basis <==

  Basis Set: CC-PV(D+D)Z
    Blend: CC-PV(D+D)Z
    Number of shells: 24
    Number of basis function: 48
    Number of Cartesian functions: 50
    Spherical Harmonics?: true
    Max angular momentum: 2

  ==> DFT Potential <==

   => Composite Functional: WB97X-V <= 

    wB97X-V Hyb-GGA Exchange-Correlation Functional

    N. Mardirossian and M. Head-Gordon, Phys. Chem. Chem. Phys. 16, 9904 (2014)

    Deriv               =              1
    GGA                 =           TRUE
    Meta                =          FALSE

    Exchange Hybrid     =           TRUE
    MP2 Hybrid          =          FALSE

   => Exchange-Correlation Functionals <=

    1.0000   wB97X-V range-separated functional

   => Exact (HF) Exchange <=

    0.8330            HF,LR [omega = 0.3000]
    0.1670               HF 

   => VV10 Non-Local Parameters <=

    VV10 B              =     6.0000E+00
    VV10 C              =     1.0000E-02

   => Molecular Quadrature <=

    Radial Scheme          =       TREUTLER
    Pruning Scheme         =           FLAT
    Nuclear Scheme         =       TREUTLER

    BS radius alpha        =              1
    Pruning alpha          =              1
    Radial Points          =             75
    Spherical Points       =            302
    Total Points           =         133366
    Total Blocks           =           1068
    Max Points             =            256
    Max Functions          =             48

   => Loading Basis Set <=

    Name: (CC-PV(D+D)Z AUX)
    Role: JKFIT
    Keyword: DF_BASIS_SCF
    atoms 1      entry C          line   121 file /work/zw18965/.conda/envs/p4env/share/psi4/basis/cc-pvdz-jkfit.gbs 
    atoms 2-4, 6 entry H          line    51 file /work/zw18965/.conda/envs/p4env/share/psi4/basis/cc-pvdz-jkfit.gbs 
    atoms 5      entry O          line   221 file /work/zw18965/.conda/envs/p4env/share/psi4/basis/cc-pvdz-jkfit.gbs 

  ==> Pre-Iterations <==

   -------------------------------------------------------
    Irrep   Nso     Nmo     Nalpha   Nbeta   Ndocc  Nsocc
   -------------------------------------------------------
     A'        33      33       0       0       0       0
     A"        15      15       0       0       0       0
   -------------------------------------------------------
    Total      48      48       9       9       9       0
   -------------------------------------------------------

  ==> Integral Setup <==

  ==> DiskDFJK: Density-Fitted J/K Matrices <==

    J tasked:                  Yes
    K tasked:                  Yes
    wK tasked:                 Yes
    Omega:               3.000E-01
    OpenMP threads:             24
    Integrals threads:          24
    Memory [MiB]:           102816
    Algorithm:                Core
    Integral Cache:           NONE
    Schwarz Cutoff:          1E-12
    Fitting Condition:       1E-10

   => Auxiliary Basis Set <=

  Basis Set: (CC-PV(D+D)Z AUX)
    Blend: CC-PVDZ-JKFIT
    Number of shells: 84
    Number of basis function: 232
    Number of Cartesian functions: 262
    Spherical Harmonics?: true
    Max angular momentum: 3

  Cached 100.0% of DFT collocation blocks in 0.176 [GiB].

  Minimum eigenvalue in the overlap matrix is 1.6496995659E-02.
  Using Symmetric Orthogonalization.

  SCF Guess: Superposition of Atomic Densities via on-the-fly atomic UHF.

  ==> Iterations <==

                           Total Energy        Delta E     RMS |[F,P]|

   @DF-RKS iter SAD:  -115.12780219222279   -1.15128e+02   0.00000e+00 
   @DF-RKS iter   1:  -115.58595072148846   -4.58149e-01   1.27554e-02 DIIS
   @DF-RKS iter   2:  -115.62423024942794   -3.82795e-02   1.09332e-02 DIIS
   @DF-RKS iter   3:  -115.68073134720436   -5.65011e-02   1.09927e-03 DIIS
   @DF-RKS iter   4:  -115.68138739974144   -6.56053e-04   3.97593e-04 DIIS
   @DF-RKS iter   5:  -115.68149813599337   -1.10736e-04   8.13321e-05 DIIS
   @DF-RKS iter   6:  -115.68150326132537   -5.12533e-06   8.95282e-06 DIIS
   @DF-RKS iter   7:  -115.68150341716094   -1.55836e-07   1.49439e-06 DIIS
   @DF-RKS iter   8:  -115.68150342237797   -5.21703e-09   3.47202e-07 DIIS
   @DF-RKS iter   9:  -115.68150342264757   -2.69594e-10   8.84449e-08 DIIS
   @DF-RKS iter  10:  -115.68150342266374   -1.61720e-11   1.71562e-08 DIIS
   @DF-RKS iter  11:  -115.68150342266415   -4.12115e-13   2.59726e-09 DIIS
  Energy and wave function converged.


  ==> Post-Iterations <==

    Orbital Energies [Eh]
    ---------------------

    Doubly Occupied:                                                      

       1Ap   -19.211709     2Ap   -10.317259     3Ap    -1.138404  
       4Ap    -0.803710     5Ap    -0.610179     1App   -0.544624  
       6Ap    -0.525505     7Ap    -0.431954     2App   -0.368353  

    Virtual:                                                              

       8Ap     0.150770     9Ap     0.188955    10Ap     0.230679  
       3App    0.231473    11Ap     0.297572    12Ap     0.550319  
       4App    0.566174    13Ap     0.603569    14Ap     0.688478  
       5App    0.745762    15Ap     0.771538    16Ap     0.774692  
      17Ap     0.980668     6App    1.011914    18Ap     1.064684  
      19Ap     1.131090     7App    1.183178    20Ap     1.317848  
       8App    1.460035    21Ap     1.514862     9App    1.530388  
      10App    1.713322    22Ap     1.736831    23Ap     1.766419  
      11App    1.784991    24Ap     1.850925    25Ap     1.973880  
      26Ap     2.107839    12App    2.199125    27Ap     2.213253  
      28Ap     2.309065    13App    2.537395    29Ap     2.552589  
      30Ap     2.565548    14App    3.053417    15App    3.136014  
      31Ap     3.173276    32Ap     3.322871    33Ap     3.801722  

    Final Occupation by Irrep:
             Ap   App 
    DOCC [     7,    2 ]

  @DF-RKS Final Energy:  -115.68150342266415

   => Energetics <=

    Nuclear Repulsion Energy =             40.3662248701019877
    One-Electron Energy =                -237.0928755791204026
    Two-Electron Energy =                  91.6919725974862558
    DFT Exchange-Correlation Energy =     -10.7205975580609021
    Empirical Dispersion Energy =           0.0000000000000000
    VV10 Nonlocal Energy =                  0.0737722469289366
    Total Energy =                       -115.6815034226641359

Computation Completed


Properties will be evaluated at   0.000000,   0.000000,   0.000000 [a0]

Properties computed using the SCF density matrix

  Nuclear Dipole Moment: [e a0]
     X:     0.6765      Y:     2.1852      Z:     0.0000

  Electronic Dipole Moment: [e a0]
     X:    -0.1444      Y:    -1.8410      Z:     0.0000

  Dipole Moment: [e a0]
     X:     0.5321      Y:     0.3442      Z:     0.0000     Total:     0.6337

  Dipole Moment: [D]
     X:     1.3523      Y:     0.8750      Z:     0.0000     Total:     1.6107


*** tstop() called on bp1-compute00113.data.bp.acrc.priv at Tue Apr 27 18:08:38 2021
Module time:
	user time   =     106.31 seconds =       1.77 minutes
	system time =       2.56 seconds =       0.04 minutes
	total time  =          5 seconds =       0.08 minutes
Total time:
	user time   =     428.39 seconds =       7.14 minutes
	system time =      11.97 seconds =       0.20 minutes
	total time  =         19 seconds =       0.32 minutes

  //>>>>>>>>>>>>>>>>>>>>>>>>>>>>>>>>>>>//
  //    Loading displacement 5 of 17   //
  //<<<<<<<<<<<<<<<<<<<<<<<<<<<<<<<<<<<//

*** tstart() called on bp1-compute00113.data.bp.acrc.priv
*** at Tue Apr 27 18:08:38 2021

   => Loading Basis Set <=

    Name: CC-PV(D+D)Z
    Role: ORBITAL
    Keyword: BASIS
    atoms 1      entry C          line   147 file /work/zw18965/.conda/envs/p4env/share/psi4/basis/cc-pv_dpd_z.gbs 
    atoms 2-4, 6 entry H          line    31 file /work/zw18965/.conda/envs/p4env/share/psi4/basis/cc-pv_dpd_z.gbs 
    atoms 5      entry O          line   207 file /work/zw18965/.conda/envs/p4env/share/psi4/basis/cc-pv_dpd_z.gbs 


         ---------------------------------------------------------
                                   SCF
               by Justin Turney, Rob Parrish, Andy Simmonett
                          and Daniel G. A. Smith
                              RKS Reference
                       24 Threads, 137329 MiB Core
         ---------------------------------------------------------

  ==> Geometry <==

    Molecular point group: cs
    Full point group: Cs

    Geometry (in Angstrom), charge = 0, multiplicity = 1:

       Center              X                  Y                   Z               Mass       
    ------------   -----------------  -----------------  -----------------  -----------------
         C           -0.029876301320     0.727500334372     0.000000000000    12.000000000000
         H           -1.072716407721     1.035879870056     0.000000000000     1.007825032230
         H            0.452406632189     1.139778918488     0.889854379100     1.007825032230
         H            0.452406632189     1.139778918488    -0.889854379100     1.007825032230
         O           -0.023043451709    -0.692715511951     0.000000000000    15.994914619570
         H            0.889351445594    -0.983761690162     0.000000000000     1.007825032230

  Running in cs symmetry.

  Rotational constants: A =      4.29224  B =      0.82818  C =      0.79931 [cm^-1]
  Rotational constants: A = 128678.02789  B =  24828.33006  C =  23962.67902 [MHz]
  Nuclear repulsion =   40.345786811915787

  Charge       = 0
  Multiplicity = 1
  Electrons    = 18
  Nalpha       = 9
  Nbeta        = 9

  ==> Algorithm <==

  SCF Algorithm Type is DF.
  DIIS enabled.
  MOM disabled.
  Fractional occupation disabled.
  Guess Type is SAD.
  Energy threshold   = 1.00e-08
  Density threshold  = 1.00e-08
  Integral threshold = 0.00e+00

  ==> Primary Basis <==

  Basis Set: CC-PV(D+D)Z
    Blend: CC-PV(D+D)Z
    Number of shells: 24
    Number of basis function: 48
    Number of Cartesian functions: 50
    Spherical Harmonics?: true
    Max angular momentum: 2

  ==> DFT Potential <==

   => Composite Functional: WB97X-V <= 

    wB97X-V Hyb-GGA Exchange-Correlation Functional

    N. Mardirossian and M. Head-Gordon, Phys. Chem. Chem. Phys. 16, 9904 (2014)

    Deriv               =              1
    GGA                 =           TRUE
    Meta                =          FALSE

    Exchange Hybrid     =           TRUE
    MP2 Hybrid          =          FALSE

   => Exchange-Correlation Functionals <=

    1.0000   wB97X-V range-separated functional

   => Exact (HF) Exchange <=

    0.8330            HF,LR [omega = 0.3000]
    0.1670               HF 

   => VV10 Non-Local Parameters <=

    VV10 B              =     6.0000E+00
    VV10 C              =     1.0000E-02

   => Molecular Quadrature <=

    Radial Scheme          =       TREUTLER
    Pruning Scheme         =           FLAT
    Nuclear Scheme         =       TREUTLER

    BS radius alpha        =              1
    Pruning alpha          =              1
    Radial Points          =             75
    Spherical Points       =            302
    Total Points           =         133366
    Total Blocks           =           1068
    Max Points             =            256
    Max Functions          =             48

   => Loading Basis Set <=

    Name: (CC-PV(D+D)Z AUX)
    Role: JKFIT
    Keyword: DF_BASIS_SCF
    atoms 1      entry C          line   121 file /work/zw18965/.conda/envs/p4env/share/psi4/basis/cc-pvdz-jkfit.gbs 
    atoms 2-4, 6 entry H          line    51 file /work/zw18965/.conda/envs/p4env/share/psi4/basis/cc-pvdz-jkfit.gbs 
    atoms 5      entry O          line   221 file /work/zw18965/.conda/envs/p4env/share/psi4/basis/cc-pvdz-jkfit.gbs 

  ==> Pre-Iterations <==

   -------------------------------------------------------
    Irrep   Nso     Nmo     Nalpha   Nbeta   Ndocc  Nsocc
   -------------------------------------------------------
     A'        33      33       0       0       0       0
     A"        15      15       0       0       0       0
   -------------------------------------------------------
    Total      48      48       9       9       9       0
   -------------------------------------------------------

  ==> Integral Setup <==

  ==> DiskDFJK: Density-Fitted J/K Matrices <==

    J tasked:                  Yes
    K tasked:                  Yes
    wK tasked:                 Yes
    Omega:               3.000E-01
    OpenMP threads:             24
    Integrals threads:          24
    Memory [MiB]:           102816
    Algorithm:                Core
    Integral Cache:           NONE
    Schwarz Cutoff:          1E-12
    Fitting Condition:       1E-10

   => Auxiliary Basis Set <=

  Basis Set: (CC-PV(D+D)Z AUX)
    Blend: CC-PVDZ-JKFIT
    Number of shells: 84
    Number of basis function: 232
    Number of Cartesian functions: 262
    Spherical Harmonics?: true
    Max angular momentum: 3

  Cached 100.0% of DFT collocation blocks in 0.176 [GiB].

  Minimum eigenvalue in the overlap matrix is 1.6507729782E-02.
  Using Symmetric Orthogonalization.

  SCF Guess: Superposition of Atomic Densities via on-the-fly atomic UHF.

  ==> Iterations <==

                           Total Energy        Delta E     RMS |[F,P]|

   @DF-RKS iter SAD:  -115.12562038132434   -1.15126e+02   0.00000e+00 
   @DF-RKS iter   1:  -115.58597791456673   -4.60358e-01   1.27516e-02 DIIS
   @DF-RKS iter   2:  -115.62426526246399   -3.82873e-02   1.09262e-02 DIIS
   @DF-RKS iter   3:  -115.68067574829008   -5.64105e-02   1.10257e-03 DIIS
   @DF-RKS iter   4:  -115.68133554070123   -6.59792e-04   3.97593e-04 DIIS
   @DF-RKS iter   5:  -115.68144632710361   -1.10786e-04   8.12604e-05 DIIS
   @DF-RKS iter   6:  -115.68145144681331   -5.11971e-06   8.94234e-06 DIIS
   @DF-RKS iter   7:  -115.68145160223519   -1.55422e-07   1.49292e-06 DIIS
   @DF-RKS iter   8:  -115.68145160744911   -5.21392e-09   3.46542e-07 DIIS
   @DF-RKS iter   9:  -115.68145160771869   -2.69580e-10   8.81834e-08 DIIS
   @DF-RKS iter  10:  -115.68145160773472   -1.60298e-11   1.71532e-08 DIIS
   @DF-RKS iter  11:  -115.68145160773528   -5.68434e-13   2.59719e-09 DIIS
  Energy and wave function converged.


  ==> Post-Iterations <==

    Orbital Energies [Eh]
    ---------------------

    Doubly Occupied:                                                      

       1Ap   -19.211514     2Ap   -10.317191     3Ap    -1.137696  
       4Ap    -0.803875     5Ap    -0.609740     1App   -0.544703  
       6Ap    -0.525230     7Ap    -0.432025     2App   -0.368343  

    Virtual:                                                              

       8Ap     0.150792     9Ap     0.189023    10Ap     0.230665  
       3App    0.231459    11Ap     0.296876    12Ap     0.550193  
       4App    0.566140    13Ap     0.602967    14Ap     0.688815  
       5App    0.746173    15Ap     0.771577    16Ap     0.774857  
      17Ap     0.980544     6App    1.011787    18Ap     1.064789  
      19Ap     1.131642     7App    1.183477    20Ap     1.318133  
       8App    1.460442    21Ap     1.514987     9App    1.530110  
      10App    1.712987    22Ap     1.736595    23Ap     1.766423  
      11App    1.786000    24Ap     1.851275    25Ap     1.974036  
      26Ap     2.106457    12App    2.200686    27Ap     2.213479  
      28Ap     2.309242    13App    2.538776    29Ap     2.554268  
      30Ap     2.566431    14App    3.052971    15App    3.134820  
      31Ap     3.171973    32Ap     3.321554    33Ap     3.801881  

    Final Occupation by Irrep:
             Ap   App 
    DOCC [     7,    2 ]

  @DF-RKS Final Energy:  -115.68145160773528

   => Energetics <=

    Nuclear Repulsion Energy =             40.3457868119157865
    One-Electron Energy =                -237.0547075179636636
    Two-Electron Energy =                  91.6741947101486403
    DFT Exchange-Correlation Energy =     -10.7205005466997143
    Empirical Dispersion Energy =           0.0000000000000000
    VV10 Nonlocal Energy =                  0.0737749348636571
    Total Energy =                       -115.6814516077352835

Computation Completed


Properties will be evaluated at   0.000000,   0.000000,   0.000000 [a0]

Properties computed using the SCF density matrix

  Nuclear Dipole Moment: [e a0]
     X:     0.6762      Y:     2.1825      Z:     0.0000

  Electronic Dipole Moment: [e a0]
     X:    -0.1441      Y:    -1.8352      Z:     0.0000

  Dipole Moment: [e a0]
     X:     0.5321      Y:     0.3473      Z:     0.0000     Total:     0.6354

  Dipole Moment: [D]
     X:     1.3524      Y:     0.8828      Z:     0.0000     Total:     1.6150


*** tstop() called on bp1-compute00113.data.bp.acrc.priv at Tue Apr 27 18:08:42 2021
Module time:
	user time   =     105.33 seconds =       1.76 minutes
	system time =       2.54 seconds =       0.04 minutes
	total time  =          4 seconds =       0.07 minutes
Total time:
	user time   =     533.86 seconds =       8.90 minutes
	system time =      14.51 seconds =       0.24 minutes
	total time  =         23 seconds =       0.38 minutes

  //>>>>>>>>>>>>>>>>>>>>>>>>>>>>>>>>>>>//
  //    Loading displacement 6 of 17   //
  //<<<<<<<<<<<<<<<<<<<<<<<<<<<<<<<<<<<//

*** tstart() called on bp1-compute00113.data.bp.acrc.priv
*** at Tue Apr 27 18:08:42 2021

   => Loading Basis Set <=

    Name: CC-PV(D+D)Z
    Role: ORBITAL
    Keyword: BASIS
    atoms 1      entry C          line   147 file /work/zw18965/.conda/envs/p4env/share/psi4/basis/cc-pv_dpd_z.gbs 
    atoms 2-4, 6 entry H          line    31 file /work/zw18965/.conda/envs/p4env/share/psi4/basis/cc-pv_dpd_z.gbs 
    atoms 5      entry O          line   207 file /work/zw18965/.conda/envs/p4env/share/psi4/basis/cc-pv_dpd_z.gbs 


         ---------------------------------------------------------
                                   SCF
               by Justin Turney, Rob Parrish, Andy Simmonett
                          and Daniel G. A. Smith
                              RKS Reference
                       24 Threads, 137329 MiB Core
         ---------------------------------------------------------

  ==> Geometry <==

    Molecular point group: cs
    Full point group: Cs

    Geometry (in Angstrom), charge = 0, multiplicity = 1:

       Center              X                  Y                   Z               Mass       
    ------------   -----------------  -----------------  -----------------  -----------------
         C           -0.029876301320     0.726896821309     0.000000000000    12.000000000000
         H           -1.074951751230     1.036727163267     0.000000000000     1.007825032230
         H            0.453261517906     1.139947034293     0.889854379100     1.007825032230
         H            0.453261517906     1.139947034293    -0.889854379100     1.007825032230
         O           -0.023004615490    -0.692335640308     0.000000000000    15.994914619570
         H            0.889260658695    -0.983788126980     0.000000000000     1.007825032230

  Running in cs symmetry.

  Rotational constants: A =      4.28573  B =      0.82884  C =      0.79969 [cm^-1]
  Rotational constants: A = 128483.01720  B =  24847.99278  C =  23974.21262 [MHz]
  Nuclear repulsion =   40.345579244221270

  Charge       = 0
  Multiplicity = 1
  Electrons    = 18
  Nalpha       = 9
  Nbeta        = 9

  ==> Algorithm <==

  SCF Algorithm Type is DF.
  DIIS enabled.
  MOM disabled.
  Fractional occupation disabled.
  Guess Type is SAD.
  Energy threshold   = 1.00e-08
  Density threshold  = 1.00e-08
  Integral threshold = 0.00e+00

  ==> Primary Basis <==

  Basis Set: CC-PV(D+D)Z
    Blend: CC-PV(D+D)Z
    Number of shells: 24
    Number of basis function: 48
    Number of Cartesian functions: 50
    Spherical Harmonics?: true
    Max angular momentum: 2

  ==> DFT Potential <==

   => Composite Functional: WB97X-V <= 

    wB97X-V Hyb-GGA Exchange-Correlation Functional

    N. Mardirossian and M. Head-Gordon, Phys. Chem. Chem. Phys. 16, 9904 (2014)

    Deriv               =              1
    GGA                 =           TRUE
    Meta                =          FALSE

    Exchange Hybrid     =           TRUE
    MP2 Hybrid          =          FALSE

   => Exchange-Correlation Functionals <=

    1.0000   wB97X-V range-separated functional

   => Exact (HF) Exchange <=

    0.8330            HF,LR [omega = 0.3000]
    0.1670               HF 

   => VV10 Non-Local Parameters <=

    VV10 B              =     6.0000E+00
    VV10 C              =     1.0000E-02

   => Molecular Quadrature <=

    Radial Scheme          =       TREUTLER
    Pruning Scheme         =           FLAT
    Nuclear Scheme         =       TREUTLER

    BS radius alpha        =              1
    Pruning alpha          =              1
    Radial Points          =             75
    Spherical Points       =            302
    Total Points           =         133366
    Total Blocks           =           1065
    Max Points             =            256
    Max Functions          =             48

   => Loading Basis Set <=

    Name: (CC-PV(D+D)Z AUX)
    Role: JKFIT
    Keyword: DF_BASIS_SCF
    atoms 1      entry C          line   121 file /work/zw18965/.conda/envs/p4env/share/psi4/basis/cc-pvdz-jkfit.gbs 
    atoms 2-4, 6 entry H          line    51 file /work/zw18965/.conda/envs/p4env/share/psi4/basis/cc-pvdz-jkfit.gbs 
    atoms 5      entry O          line   221 file /work/zw18965/.conda/envs/p4env/share/psi4/basis/cc-pvdz-jkfit.gbs 

  ==> Pre-Iterations <==

   -------------------------------------------------------
    Irrep   Nso     Nmo     Nalpha   Nbeta   Ndocc  Nsocc
   -------------------------------------------------------
     A'        33      33       0       0       0       0
     A"        15      15       0       0       0       0
   -------------------------------------------------------
    Total      48      48       9       9       9       0
   -------------------------------------------------------

  ==> Integral Setup <==

  ==> DiskDFJK: Density-Fitted J/K Matrices <==

    J tasked:                  Yes
    K tasked:                  Yes
    wK tasked:                 Yes
    Omega:               3.000E-01
    OpenMP threads:             24
    Integrals threads:          24
    Memory [MiB]:           102816
    Algorithm:                Core
    Integral Cache:           NONE
    Schwarz Cutoff:          1E-12
    Fitting Condition:       1E-10

   => Auxiliary Basis Set <=

  Basis Set: (CC-PV(D+D)Z AUX)
    Blend: CC-PVDZ-JKFIT
    Number of shells: 84
    Number of basis function: 232
    Number of Cartesian functions: 262
    Spherical Harmonics?: true
    Max angular momentum: 3

  Cached 100.0% of DFT collocation blocks in 0.176 [GiB].

  Minimum eigenvalue in the overlap matrix is 1.6518210709E-02.
  Using Symmetric Orthogonalization.

  SCF Guess: Superposition of Atomic Densities via on-the-fly atomic UHF.

  ==> Iterations <==

                           Total Energy        Delta E     RMS |[F,P]|

   @DF-RKS iter SAD:  -115.12556697408210   -1.15126e+02   0.00000e+00 
   @DF-RKS iter   1:  -115.58603120504743   -4.60464e-01   1.27526e-02 DIIS
   @DF-RKS iter   2:  -115.62422914215117   -3.81979e-02   1.09358e-02 DIIS
   @DF-RKS iter   3:  -115.68074813372139   -5.65190e-02   1.09895e-03 DIIS
   @DF-RKS iter   4:  -115.68140414461929   -6.56011e-04   3.97707e-04 DIIS
   @DF-RKS iter   5:  -115.68151499863814   -1.10854e-04   8.13500e-05 DIIS
   @DF-RKS iter   6:  -115.68152012982581   -5.13119e-06   8.95928e-06 DIIS
   @DF-RKS iter   7:  -115.68152028602229   -1.56196e-07   1.49679e-06 DIIS
   @DF-RKS iter   8:  -115.68152029126391   -5.24162e-09   3.47590e-07 DIIS
   @DF-RKS iter   9:  -115.68152029153512   -2.71214e-10   8.83491e-08 DIIS
   @DF-RKS iter  10:  -115.68152029155112   -1.60014e-11   1.71821e-08 DIIS
   @DF-RKS iter  11:  -115.68152029155158   -4.54747e-13   2.60070e-09 DIIS
  Energy and wave function converged.


  ==> Post-Iterations <==

    Orbital Energies [Eh]
    ---------------------

    Doubly Occupied:                                                      

       1Ap   -19.211622     2Ap   -10.317533     3Ap    -1.138062  
       4Ap    -0.803540     5Ap    -0.609990     1App   -0.544586  
       6Ap    -0.525155     7Ap    -0.431907     2App   -0.368326  

    Virtual:                                                              

       8Ap     0.150716     9Ap     0.188885    10Ap     0.230380  
       3App    0.231407    11Ap     0.297220    12Ap     0.550460  
       4App    0.565947    13Ap     0.603256    14Ap     0.688509  
       5App    0.745810    15Ap     0.770509    16Ap     0.774272  
      17Ap     0.980485     6App    1.011898    18Ap     1.064562  
      19Ap     1.131283     7App    1.183345    20Ap     1.318132  
       8App    1.460284    21Ap     1.514714     9App    1.529468  
      10App    1.712878    22Ap     1.736305    23Ap     1.764765  
      11App    1.785238    24Ap     1.850448    25Ap     1.973951  
      26Ap     2.106495    12App    2.198382    27Ap     2.212668  
      28Ap     2.309056    13App    2.537636    29Ap     2.552036  
      30Ap     2.561899    14App    3.052877    15App    3.135275  
      31Ap     3.172031    32Ap     3.322232    33Ap     3.801784  

    Final Occupation by Irrep:
             Ap   App 
    DOCC [     7,    2 ]

  @DF-RKS Final Energy:  -115.68152029155158

   => Energetics <=

    Nuclear Repulsion Energy =             40.3455792442212697
    One-Electron Energy =                -237.0541094491263152
    Two-Electron Energy =                  91.6729913900465192
    DFT Exchange-Correlation Energy =     -10.7197535997181586
    Empirical Dispersion Energy =           0.0000000000000000
    VV10 Nonlocal Energy =                  0.0737721230251260
    Total Energy =                       -115.6815202915515783

Computation Completed


Properties will be evaluated at   0.000000,   0.000000,   0.000000 [a0]

Properties computed using the SCF density matrix

  Nuclear Dipole Moment: [e a0]
     X:     0.6756      Y:     2.1836      Z:     0.0000

  Electronic Dipole Moment: [e a0]
     X:    -0.1431      Y:    -1.8385      Z:     0.0000

  Dipole Moment: [e a0]
     X:     0.5326      Y:     0.3452      Z:     0.0000     Total:     0.6347

  Dipole Moment: [D]
     X:     1.3537      Y:     0.8773      Z:     0.0000     Total:     1.6131


*** tstop() called on bp1-compute00113.data.bp.acrc.priv at Tue Apr 27 18:08:47 2021
Module time:
	user time   =     105.60 seconds =       1.76 minutes
	system time =       2.73 seconds =       0.05 minutes
	total time  =          5 seconds =       0.08 minutes
Total time:
	user time   =     639.60 seconds =      10.66 minutes
	system time =      17.24 seconds =       0.29 minutes
	total time  =         28 seconds =       0.47 minutes

  //>>>>>>>>>>>>>>>>>>>>>>>>>>>>>>>>>>>//
  //    Loading displacement 7 of 17   //
  //<<<<<<<<<<<<<<<<<<<<<<<<<<<<<<<<<<<//

*** tstart() called on bp1-compute00113.data.bp.acrc.priv
*** at Tue Apr 27 18:08:47 2021

   => Loading Basis Set <=

    Name: CC-PV(D+D)Z
    Role: ORBITAL
    Keyword: BASIS
    atoms 1      entry C          line   147 file /work/zw18965/.conda/envs/p4env/share/psi4/basis/cc-pv_dpd_z.gbs 
    atoms 2-4, 6 entry H          line    31 file /work/zw18965/.conda/envs/p4env/share/psi4/basis/cc-pv_dpd_z.gbs 
    atoms 5      entry O          line   207 file /work/zw18965/.conda/envs/p4env/share/psi4/basis/cc-pv_dpd_z.gbs 


         ---------------------------------------------------------
                                   SCF
               by Justin Turney, Rob Parrish, Andy Simmonett
                          and Daniel G. A. Smith
                              RKS Reference
                       24 Threads, 137329 MiB Core
         ---------------------------------------------------------

  ==> Geometry <==

    Molecular point group: cs
    Full point group: Cs

    Geometry (in Angstrom), charge = 0, multiplicity = 1:

       Center              X                  Y                   Z               Mass       
    ------------   -----------------  -----------------  -----------------  -----------------
         C           -0.029876301320     0.726896821309     0.000000000000    12.000000000000
         H           -1.070387757211     1.035824980951     0.000000000000     1.007825032230
         H            0.451651637054     1.140306521925     0.889854379100     1.007825032230
         H            0.451651637054     1.140306521925    -0.889854379100     1.007825032230
         O           -0.023098566751    -0.692369519674     0.000000000000    15.994914619570
         H            0.889407501064    -0.983067229802     0.000000000000     1.007825032230

  Running in cs symmetry.

  Rotational constants: A =      4.29881  B =      0.82890  C =      0.80020 [cm^-1]
  Rotational constants: A = 128875.17047  B =  24849.71993  C =  23989.44223 [MHz]
  Nuclear repulsion =   40.366445753132410

  Charge       = 0
  Multiplicity = 1
  Electrons    = 18
  Nalpha       = 9
  Nbeta        = 9

  ==> Algorithm <==

  SCF Algorithm Type is DF.
  DIIS enabled.
  MOM disabled.
  Fractional occupation disabled.
  Guess Type is SAD.
  Energy threshold   = 1.00e-08
  Density threshold  = 1.00e-08
  Integral threshold = 0.00e+00

  ==> Primary Basis <==

  Basis Set: CC-PV(D+D)Z
    Blend: CC-PV(D+D)Z
    Number of shells: 24
    Number of basis function: 48
    Number of Cartesian functions: 50
    Spherical Harmonics?: true
    Max angular momentum: 2

  ==> DFT Potential <==

   => Composite Functional: WB97X-V <= 

    wB97X-V Hyb-GGA Exchange-Correlation Functional

    N. Mardirossian and M. Head-Gordon, Phys. Chem. Chem. Phys. 16, 9904 (2014)

    Deriv               =              1
    GGA                 =           TRUE
    Meta                =          FALSE

    Exchange Hybrid     =           TRUE
    MP2 Hybrid          =          FALSE

   => Exchange-Correlation Functionals <=

    1.0000   wB97X-V range-separated functional

   => Exact (HF) Exchange <=

    0.8330            HF,LR [omega = 0.3000]
    0.1670               HF 

   => VV10 Non-Local Parameters <=

    VV10 B              =     6.0000E+00
    VV10 C              =     1.0000E-02

   => Molecular Quadrature <=

    Radial Scheme          =       TREUTLER
    Pruning Scheme         =           FLAT
    Nuclear Scheme         =       TREUTLER

    BS radius alpha        =              1
    Pruning alpha          =              1
    Radial Points          =             75
    Spherical Points       =            302
    Total Points           =         133366
    Total Blocks           =           1065
    Max Points             =            256
    Max Functions          =             48

   => Loading Basis Set <=

    Name: (CC-PV(D+D)Z AUX)
    Role: JKFIT
    Keyword: DF_BASIS_SCF
    atoms 1      entry C          line   121 file /work/zw18965/.conda/envs/p4env/share/psi4/basis/cc-pvdz-jkfit.gbs 
    atoms 2-4, 6 entry H          line    51 file /work/zw18965/.conda/envs/p4env/share/psi4/basis/cc-pvdz-jkfit.gbs 
    atoms 5      entry O          line   221 file /work/zw18965/.conda/envs/p4env/share/psi4/basis/cc-pvdz-jkfit.gbs 

  ==> Pre-Iterations <==

   -------------------------------------------------------
    Irrep   Nso     Nmo     Nalpha   Nbeta   Ndocc  Nsocc
   -------------------------------------------------------
     A'        33      33       0       0       0       0
     A"        15      15       0       0       0       0
   -------------------------------------------------------
    Total      48      48       9       9       9       0
   -------------------------------------------------------

  ==> Integral Setup <==

  ==> DiskDFJK: Density-Fitted J/K Matrices <==

    J tasked:                  Yes
    K tasked:                  Yes
    wK tasked:                 Yes
    Omega:               3.000E-01
    OpenMP threads:             24
    Integrals threads:          24
    Memory [MiB]:           102816
    Algorithm:                Core
    Integral Cache:           NONE
    Schwarz Cutoff:          1E-12
    Fitting Condition:       1E-10

   => Auxiliary Basis Set <=

  Basis Set: (CC-PV(D+D)Z AUX)
    Blend: CC-PVDZ-JKFIT
    Number of shells: 84
    Number of basis function: 232
    Number of Cartesian functions: 262
    Spherical Harmonics?: true
    Max angular momentum: 3

  Cached 100.0% of DFT collocation blocks in 0.176 [GiB].

  Minimum eigenvalue in the overlap matrix is 1.6486306433E-02.
  Using Symmetric Orthogonalization.

  SCF Guess: Superposition of Atomic Densities via on-the-fly atomic UHF.

  ==> Iterations <==

                           Total Energy        Delta E     RMS |[F,P]|

   @DF-RKS iter SAD:  -115.12784997748153   -1.15128e+02   0.00000e+00 
   @DF-RKS iter   1:  -115.58589051285034   -4.58041e-01   1.27544e-02 DIIS
   @DF-RKS iter   2:  -115.62426042155471   -3.83699e-02   1.09235e-02 DIIS
   @DF-RKS iter   3:  -115.68065266324103   -5.63922e-02   1.10289e-03 DIIS
   @DF-RKS iter   4:  -115.68131250049090   -6.59837e-04   3.97483e-04 DIIS
   @DF-RKS iter   5:  -115.68142317083635   -1.10670e-04   8.12435e-05 DIIS
   @DF-RKS iter   6:  -115.68142828481091   -5.11397e-06   8.93588e-06 DIIS
   @DF-RKS iter   7:  -115.68142843987316   -1.55062e-07   1.49051e-06 DIIS
   @DF-RKS iter   8:  -115.68142844506266   -5.18951e-09   3.46151e-07 DIIS
   @DF-RKS iter   9:  -115.68142844533051   -2.67846e-10   8.82780e-08 DIIS
   @DF-RKS iter  10:  -115.68142844534651   -1.60014e-11   1.71273e-08 DIIS
   @DF-RKS iter  11:  -115.68142844534707   -5.54223e-13   2.59370e-09 DIIS
  Energy and wave function converged.


  ==> Post-Iterations <==

    Orbital Energies [Eh]
    ---------------------

    Doubly Occupied:                                                      

       1Ap   -19.211600     2Ap   -10.316917     3Ap    -1.138037  
       4Ap    -0.804046     5Ap    -0.609929     1App   -0.544741  
       6Ap    -0.525580     7Ap    -0.432072     2App   -0.368371  

    Virtual:                                                              

       8Ap     0.150845     9Ap     0.189092    10Ap     0.230965  
       3App    0.231524    11Ap     0.297229    12Ap     0.550051  
       4App    0.566368    13Ap     0.603277    14Ap     0.688783  
       5App    0.746125    15Ap     0.772401    16Ap     0.775493  
      17Ap     0.980728     6App    1.011805    18Ap     1.064911  
      19Ap     1.131450     7App    1.183310    20Ap     1.317848  
       8App    1.460194    21Ap     1.515135     9App    1.531030  
      10App    1.713439    22Ap     1.737095    23Ap     1.768100  
      11App    1.785751    24Ap     1.851752    25Ap     1.973965  
      26Ap     2.107816    12App    2.201424    27Ap     2.214052  
      28Ap     2.309246    13App    2.538533    29Ap     2.554588  
      30Ap     2.570373    14App    3.053514    15App    3.135555  
      31Ap     3.173219    32Ap     3.322192    33Ap     3.801818  

    Final Occupation by Irrep:
             Ap   App 
    DOCC [     7,    2 ]

  @DF-RKS Final Energy:  -115.68142844534707

   => Energetics <=

    Nuclear Repulsion Energy =             40.3664457531324103
    One-Electron Energy =                -237.0934873244546566
    Two-Electron Energy =                  91.6931841617892616
    DFT Exchange-Correlation Energy =     -10.7213460990535427
    Empirical Dispersion Energy =           0.0000000000000000
    VV10 Nonlocal Energy =                  0.0737750632394695
    Total Energy =                       -115.6814284453470663

Computation Completed


Properties will be evaluated at   0.000000,   0.000000,   0.000000 [a0]

Properties computed using the SCF density matrix

  Nuclear Dipole Moment: [e a0]
     X:     0.6770      Y:     2.1841      Z:     0.0000

  Electronic Dipole Moment: [e a0]
     X:    -0.1455      Y:    -1.8377      Z:     0.0000

  Dipole Moment: [e a0]
     X:     0.5316      Y:     0.3464      Z:     0.0000     Total:     0.6345

  Dipole Moment: [D]
     X:     1.3511      Y:     0.8804      Z:     0.0000     Total:     1.6126


*** tstop() called on bp1-compute00113.data.bp.acrc.priv at Tue Apr 27 18:08:51 2021
Module time:
	user time   =     104.78 seconds =       1.75 minutes
	system time =       2.60 seconds =       0.04 minutes
	total time  =          4 seconds =       0.07 minutes
Total time:
	user time   =     744.51 seconds =      12.41 minutes
	system time =      19.85 seconds =       0.33 minutes
	total time  =         32 seconds =       0.53 minutes

  //>>>>>>>>>>>>>>>>>>>>>>>>>>>>>>>>>>>//
  //    Loading displacement 8 of 17   //
  //<<<<<<<<<<<<<<<<<<<<<<<<<<<<<<<<<<<//

*** tstart() called on bp1-compute00113.data.bp.acrc.priv
*** at Tue Apr 27 18:08:51 2021

   => Loading Basis Set <=

    Name: CC-PV(D+D)Z
    Role: ORBITAL
    Keyword: BASIS
    atoms 1      entry C          line   147 file /work/zw18965/.conda/envs/p4env/share/psi4/basis/cc-pv_dpd_z.gbs 
    atoms 2-4, 6 entry H          line    31 file /work/zw18965/.conda/envs/p4env/share/psi4/basis/cc-pv_dpd_z.gbs 
    atoms 5      entry O          line   207 file /work/zw18965/.conda/envs/p4env/share/psi4/basis/cc-pv_dpd_z.gbs 


         ---------------------------------------------------------
                                   SCF
               by Justin Turney, Rob Parrish, Andy Simmonett
                          and Daniel G. A. Smith
                              RKS Reference
                       24 Threads, 137329 MiB Core
         ---------------------------------------------------------

  ==> Geometry <==

    Molecular point group: cs
    Full point group: Cs

    Geometry (in Angstrom), charge = 0, multiplicity = 1:

       Center              X                  Y                   Z               Mass       
    ------------   -----------------  -----------------  -----------------  -----------------
         C           -0.029876301320     0.726896821309     0.000000000000    12.000000000000
         H           -1.072669754220     1.033903191064     0.000000000000     1.007825032230
         H            0.453074021858     1.140111848920     0.889854379100     1.007825032230
         H            0.453074021858     1.140111848920    -0.889854379100     1.007825032230
         O           -0.023118346338    -0.692189966936     0.000000000000    15.994914619570
         H            0.889158644875    -0.983605726149     0.000000000000     1.007825032230

  Running in cs symmetry.

  Rotational constants: A =      4.29076  B =      0.82923  C =      0.80023 [cm^-1]
  Rotational constants: A = 128633.83645  B =  24859.59485  C =  23990.26375 [MHz]
  Nuclear repulsion =   40.360546981415553

  Charge       = 0
  Multiplicity = 1
  Electrons    = 18
  Nalpha       = 9
  Nbeta        = 9

  ==> Algorithm <==

  SCF Algorithm Type is DF.
  DIIS enabled.
  MOM disabled.
  Fractional occupation disabled.
  Guess Type is SAD.
  Energy threshold   = 1.00e-08
  Density threshold  = 1.00e-08
  Integral threshold = 0.00e+00

  ==> Primary Basis <==

  Basis Set: CC-PV(D+D)Z
    Blend: CC-PV(D+D)Z
    Number of shells: 24
    Number of basis function: 48
    Number of Cartesian functions: 50
    Spherical Harmonics?: true
    Max angular momentum: 2

  ==> DFT Potential <==

   => Composite Functional: WB97X-V <= 

    wB97X-V Hyb-GGA Exchange-Correlation Functional

    N. Mardirossian and M. Head-Gordon, Phys. Chem. Chem. Phys. 16, 9904 (2014)

    Deriv               =              1
    GGA                 =           TRUE
    Meta                =          FALSE

    Exchange Hybrid     =           TRUE
    MP2 Hybrid          =          FALSE

   => Exchange-Correlation Functionals <=

    1.0000   wB97X-V range-separated functional

   => Exact (HF) Exchange <=

    0.8330            HF,LR [omega = 0.3000]
    0.1670               HF 

   => VV10 Non-Local Parameters <=

    VV10 B              =     6.0000E+00
    VV10 C              =     1.0000E-02

   => Molecular Quadrature <=

    Radial Scheme          =       TREUTLER
    Pruning Scheme         =           FLAT
    Nuclear Scheme         =       TREUTLER

    BS radius alpha        =              1
    Pruning alpha          =              1
    Radial Points          =             75
    Spherical Points       =            302
    Total Points           =         133366
    Total Blocks           =           1065
    Max Points             =            256
    Max Functions          =             48

   => Loading Basis Set <=

    Name: (CC-PV(D+D)Z AUX)
    Role: JKFIT
    Keyword: DF_BASIS_SCF
    atoms 1      entry C          line   121 file /work/zw18965/.conda/envs/p4env/share/psi4/basis/cc-pvdz-jkfit.gbs 
    atoms 2-4, 6 entry H          line    51 file /work/zw18965/.conda/envs/p4env/share/psi4/basis/cc-pvdz-jkfit.gbs 
    atoms 5      entry O          line   221 file /work/zw18965/.conda/envs/p4env/share/psi4/basis/cc-pvdz-jkfit.gbs 

  ==> Pre-Iterations <==

   -------------------------------------------------------
    Irrep   Nso     Nmo     Nalpha   Nbeta   Ndocc  Nsocc
   -------------------------------------------------------
     A'        33      33       0       0       0       0
     A"        15      15       0       0       0       0
   -------------------------------------------------------
    Total      48      48       9       9       9       0
   -------------------------------------------------------

  ==> Integral Setup <==

  ==> DiskDFJK: Density-Fitted J/K Matrices <==

    J tasked:                  Yes
    K tasked:                  Yes
    wK tasked:                 Yes
    Omega:               3.000E-01
    OpenMP threads:             24
    Integrals threads:          24
    Memory [MiB]:           102816
    Algorithm:                Core
    Integral Cache:           NONE
    Schwarz Cutoff:          1E-12
    Fitting Condition:       1E-10

   => Auxiliary Basis Set <=

  Basis Set: (CC-PV(D+D)Z AUX)
    Blend: CC-PVDZ-JKFIT
    Number of shells: 84
    Number of basis function: 232
    Number of Cartesian functions: 262
    Spherical Harmonics?: true
    Max angular momentum: 3

  Cached 100.0% of DFT collocation blocks in 0.176 [GiB].

  Minimum eigenvalue in the overlap matrix is 1.6489117289E-02.
  Using Symmetric Orthogonalization.

  SCF Guess: Superposition of Atomic Densities via on-the-fly atomic UHF.

  ==> Iterations <==

                           Total Energy        Delta E     RMS |[F,P]|

   @DF-RKS iter SAD:  -115.12704265350088   -1.15127e+02   0.00000e+00 
   @DF-RKS iter   1:  -115.58592542297643   -4.58883e-01   1.27558e-02 DIIS
   @DF-RKS iter   2:  -115.62421334908200   -3.82879e-02   1.09326e-02 DIIS
   @DF-RKS iter   3:  -115.68069850370557   -5.64852e-02   1.10097e-03 DIIS
   @DF-RKS iter   4:  -115.68135650737621   -6.58004e-04   3.97546e-04 DIIS
   @DF-RKS iter   5:  -115.68146724581543   -1.10738e-04   8.12628e-05 DIIS
   @DF-RKS iter   6:  -115.68147236503950   -5.11922e-06   8.95402e-06 DIIS
   @DF-RKS iter   7:  -115.68147252094268   -1.55903e-07   1.49439e-06 DIIS
   @DF-RKS iter   8:  -115.68147252616656   -5.22388e-09   3.46781e-07 DIIS
   @DF-RKS iter   9:  -115.68147252643564   -2.69083e-10   8.82657e-08 DIIS
   @DF-RKS iter  10:  -115.68147252645188   -1.62430e-11   1.71472e-08 DIIS
   @DF-RKS iter  11:  -115.68147252645228   -3.97904e-13   2.59900e-09 DIIS
  Energy and wave function converged.


  ==> Post-Iterations <==

    Orbital Energies [Eh]
    ---------------------

    Doubly Occupied:                                                      

       1Ap   -19.211564     2Ap   -10.317192     3Ap    -1.138075  
       4Ap    -0.803775     5Ap    -0.610036     1App   -0.544577  
       6Ap    -0.525388     7Ap    -0.432057     2App   -0.368289  

    Virtual:                                                              

       8Ap     0.150755     9Ap     0.189094    10Ap     0.230672  
       3App    0.231415    11Ap     0.297281    12Ap     0.550421  
       4App    0.566031    13Ap     0.603313    14Ap     0.688594  
       5App    0.745833    15Ap     0.771773    16Ap     0.774712  
      17Ap     0.980480     6App    1.012083    18Ap     1.064626  
      19Ap     1.131341     7App    1.183368    20Ap     1.318290  
       8App    1.460323    21Ap     1.515114     9App    1.529974  
      10App    1.712927    22Ap     1.736939    23Ap     1.766854  
      11App    1.785344    24Ap     1.851301    25Ap     1.973967  
      26Ap     2.106740    12App    2.200554    27Ap     2.213179  
      28Ap     2.309389    13App    2.537690    29Ap     2.552923  
      30Ap     2.567237    14App    3.053097    15App    3.135425  
      31Ap     3.172497    32Ap     3.322440    33Ap     3.802034  

    Final Occupation by Irrep:
             Ap   App 
    DOCC [     7,    2 ]

  @DF-RKS Final Energy:  -115.68147252645228

   => Energetics <=

    Nuclear Repulsion Energy =             40.3605469814155526
    One-Electron Energy =                -237.0828865511003869
    Two-Electron Energy =                  91.6877777181139919
    DFT Exchange-Correlation Energy =     -10.7206838420870199
    Empirical Dispersion Energy =           0.0000000000000000
    VV10 Nonlocal Energy =                  0.0737731672055870
    Total Energy =                       -115.6814725264522679

Computation Completed


Properties will be evaluated at   0.000000,   0.000000,   0.000000 [a0]

Properties computed using the SCF density matrix

  Nuclear Dipole Moment: [e a0]
[...]
  Using Symmetric Orthogonalization.

  SCF Guess: Superposition of Atomic Densities via on-the-fly atomic UHF.

  ==> Iterations <==

                           Total Energy        Delta E     RMS |[F,P]|

   @DF-RKS iter SAD:  -115.11482982161547   -1.15115e+02   0.00000e+00 
   @DF-RKS iter   1:  -115.58646426267478   -4.71634e-01   9.60304e-03 DIIS
   @DF-RKS iter   2:  -115.62332337687408   -3.68591e-02   8.34176e-03 DIIS
   @DF-RKS iter   3:  -115.68120146080014   -5.78781e-02   8.16484e-04 DIIS
   @DF-RKS iter   4:  -115.68184098711146   -6.39526e-04   3.03831e-04 DIIS
   @DF-RKS iter   5:  -115.68195449754535   -1.13510e-04   6.28703e-05 DIIS
   @DF-RKS iter   6:  -115.68195987745943   -5.37991e-06   6.91056e-06 DIIS
   @DF-RKS iter   7:  -115.68196004130574   -1.63846e-07   1.15922e-06 DIIS
   @DF-RKS iter   8:  -115.68196004673611   -5.43037e-09   2.74663e-07 DIIS
   @DF-RKS iter   9:  -115.68196004702313   -2.87017e-10   7.01828e-08 DIIS
   @DF-RKS iter  10:  -115.68196004704100   -1.78773e-11   1.32599e-08 DIIS
   @DF-RKS iter  11:  -115.68196004704140   -3.97904e-13   1.98445e-09 DIIS
   @DF-RKS iter  12:  -115.68196004704140    0.00000e+00   3.85975e-10 DIIS
   @DF-RKS iter  13:  -115.68196004704141   -1.42109e-14   1.04861e-10 DIIS
   @DF-RKS iter  14:  -115.68196004704150   -8.52651e-14   2.68217e-11 DIIS
  Energy and wave function converged.


  ==> Post-Iterations <==

    Orbital Energies [Eh]
    ---------------------

    Doubly Occupied:                                                      

       1A    -19.214686     2A    -10.321267     3A     -1.140065  
       4A     -0.799835     5A     -0.610319     6A     -0.542035  
       7A     -0.524706     8A     -0.432218     9A     -0.368759  

    Virtual:                                                              

      10A      0.149002    11A      0.186500    12A      0.228200  
      13A      0.229758    14A      0.298932    15A      0.550230  
      16A      0.565890    17A      0.604314    18A      0.682746  
      19A      0.739413    20A      0.763469    21A      0.765703  
      22A      0.980039    23A      1.011105    24A      1.062771  
      25A      1.127821    26A      1.180681    27A      1.313264  
      28A      1.454560    29A      1.507953    30A      1.524658  
      31A      1.707069    32A      1.731343    33A      1.759848  
      34A      1.769528    35A      1.846289    36A      1.965058  
      37A      2.103918    38A      2.180395    39A      2.203668  
      40A      2.288110    41A      2.510285    42A      2.521378  
      43A      2.543073    44A      3.049152    45A      3.131043  
      46A      3.175874    47A      3.317114    48A      3.789120  

    Final Occupation by Irrep:
              A 
    DOCC [     9 ]

  @DF-RKS Final Energy:  -115.68196004704150

   => Energetics <=

    Nuclear Repulsion Energy =             40.2339079692608692
    One-Electron Energy =                -236.8333531686161564
    Two-Electron Energy =                  91.5510608371078547
    DFT Exchange-Correlation Energy =     -10.7073177957560137
    Empirical Dispersion Energy =           0.0000000000000000
    VV10 Nonlocal Energy =                  0.0737421109619366
    Total Energy =                       -115.6819600470414997

Computation Completed


Properties will be evaluated at   0.000000,   0.000000,   0.000000 [a0]

Properties computed using the SCF density matrix

  Nuclear Dipole Moment: [e a0]
     X:     0.6793      Y:     2.2234      Z:    -0.0030

  Electronic Dipole Moment: [e a0]
     X:    -0.1458      Y:    -1.8909      Z:     0.0034

  Dipole Moment: [e a0]
     X:     0.5335      Y:     0.3325      Z:     0.0004     Total:     0.6286

  Dipole Moment: [D]
     X:     1.3560      Y:     0.8450      Z:     0.0011     Total:     1.5978


*** tstop() called on bp1-compute00113.data.bp.acrc.priv at Tue Apr 27 18:21:15 2021
Module time:
	user time   =     123.30 seconds =       2.05 minutes
	system time =       2.30 seconds =       0.04 minutes
	total time  =          5 seconds =       0.08 minutes
Total time:
	user time   =   18081.89 seconds =     301.36 minutes
	system time =     377.67 seconds =       6.29 minutes
	total time  =        776 seconds =      12.93 minutes

         ----------------------------------------------------------
                                   FINDIF
                     R. A. King and Jonathon Misiewicz
         ---------------------------------------------------------

  Computing second-derivative from energies using projected, 
  symmetry-adapted, cartesian coordinates.

  89 energies passed in, including the reference geometry.
    Using 3-point formula.
    Energy without displacement: -115.6819653490
    Check energies below for precision!
    0: -1          :      -115.6819635422
    0: 1           :      -115.6819632630
    1: -1          :      -115.6819644496
    1: 1           :      -115.6819645465
    2: -1          :      -115.6819619769
    2: 1           :      -115.6819612899
    3: -1          :      -115.6819641015
    3: 1           :      -115.6819643009
    4: -1          :      -115.6819643106
    4: 1           :      -115.6819639665
    5: -1          :      -115.6819641524
    5: 1           :      -115.6819643987
    6: -1          :      -115.6819620230
    6: 1           :      -115.6819623184
    7: -1          :      -115.6819580727
    7: 1           :      -115.6819586130
    0: 1, 1: 1     :      -115.6819623939
    0: -1, 1: -1   :      -115.6819625844
    0: 1, 2: 1     :      -115.6819618775
    0: -1, 2: -1   :      -115.6819628186
    1: 1, 2: 1     :      -115.6819597934
    1: -1, 2: -1   :      -115.6819603938
    0: 1, 3: 1     :      -115.6819609480
    0: -1, 3: -1   :      -115.6819610118
    1: 1, 3: 1     :      -115.6819636820
    1: -1, 3: -1   :      -115.6819633837
    2: 1, 3: 1     :      -115.6819615130
    2: -1, 3: -1   :      -115.6819619757
    0: 1, 4: 1     :      -115.6819623752
    0: -1, 4: -1   :      -115.6819630009
    1: 1, 4: 1     :      -115.6819637548
    1: -1, 4: -1   :      -115.6819640005
    2: 1, 4: 1     :      -115.6819602916
    2: -1, 4: -1   :      -115.6819613239
    3: 1, 4: 1     :      -115.6819634341
    3: -1, 4: -1   :      -115.6819635789
    0: 1, 5: 1     :      -115.6819631297
    0: -1, 5: -1   :      -115.6819631627
    1: 1, 5: 1     :      -115.6819642161
    1: -1, 5: -1   :      -115.6819638706
    2: 1, 5: 1     :      -115.6819606542
    2: -1, 5: -1   :      -115.6819610954
    3: 1, 5: 1     :      -115.6819634371
    3: -1, 5: -1   :      -115.6819629914
    4: 1, 5: 1     :      -115.6819621939
    4: -1, 5: -1   :      -115.6819622891
    0: 1, 6: 1     :      -115.6819618971
    0: -1, 6: -1   :      -115.6819618983
    1: 1, 6: 1     :      -115.6819624647
    1: -1, 6: -1   :      -115.6819620835
    2: 1, 6: 1     :      -115.6819590104
    2: -1, 6: -1   :      -115.6819594092
    3: 1, 6: 1     :      -115.6819619495
    3: -1, 6: -1   :      -115.6819614618
    4: 1, 6: 1     :      -115.6819592898
    4: -1, 6: -1   :      -115.6819593096
    5: 1, 6: 1     :      -115.6819598596
    5: -1, 6: -1   :      -115.6819592943
    0: 1, 7: 1     :      -115.6819564013
    0: -1, 7: -1   :      -115.6819561396
    1: 1, 7: 1     :      -115.6819577204
    1: -1, 7: -1   :      -115.6819570835
    2: 1, 7: 1     :      -115.6819545642
    2: -1, 7: -1   :      -115.6819547105
    3: 1, 7: 1     :      -115.6819575342
    3: -1, 7: -1   :      -115.6819567946
    4: 1, 7: 1     :      -115.6819570494
    4: -1, 7: -1   :      -115.6819568354
    5: 1, 7: 1     :      -115.6819576971
    5: -1, 7: -1   :      -115.6819569018
    6: 1, 7: 1     :      -115.6819555838
    6: -1, 7: -1   :      -115.6819547482
    8: -1          :      -115.6819634975
    9: -1          :      -115.6819640401
    10: -1         :      -115.6819643652
    11: -1         :      -115.6819633093
    8: 1, 9: 1     :      -115.6819608705
    8: -1, 9: -1   :      -115.6819608705
    8: 1, 10: 1    :      -115.6819643142
    8: -1, 10: -1  :      -115.6819643142
    9: 1, 10: 1    :      -115.6819648726
    9: -1, 10: -1  :      -115.6819648727
    8: 1, 11: 1    :      -115.6819641058
    8: -1, 11: -1  :      -115.6819641058
    9: 1, 11: 1    :      -115.6819632840
    9: -1, 11: -1  :      -115.6819632840
    10: 1, 11: 1   :      -115.6819600471
    10: -1, 11: -1 :      -115.6819600470

-------------------------------------------------------------


  ==> Harmonic Vibrational Analysis <==

  non-mass-weighted Hessian:       Symmetric? True   Hermitian? True   Lin Dep Dim?  6 (0)
  projection of translations (True) and rotations (True) removed 6 degrees of freedom (6)
  total projector:                 Symmetric? True   Hermitian? True   Lin Dep Dim?  6 (6)
  mass-weighted Hessian:           Symmetric? True   Hermitian? True   Lin Dep Dim?  6 (0)
  pre-proj  low-frequency mode:    0.0000i [cm^-1]
  pre-proj  low-frequency mode:    0.0000i [cm^-1]
  pre-proj  low-frequency mode:    0.0000i [cm^-1]
  pre-proj  low-frequency mode:    0.0000  [cm^-1]
  pre-proj  low-frequency mode:    0.0000  [cm^-1]
  pre-proj  low-frequency mode:    0.0000  [cm^-1]
  pre-proj  all modes:['0.0000i' '0.0000i' '0.0000i' '0.0000' '0.0000' '0.0000' '331.8492'
 '1075.0337' '1121.6360' '1166.4563' '1386.5580' '1475.7629' '1477.5481'
 '1494.5640' '3010.8267' '3068.9514' '3149.9311' '3849.2478']
  projected mass-weighted Hessian: Symmetric? True   Hermitian? True   Lin Dep Dim?  6 (6)
  post-proj low-frequency mode:    0.0000i [cm^-1] (TR)
  post-proj low-frequency mode:    0.0000i [cm^-1] (TR)
  post-proj low-frequency mode:    0.0000i [cm^-1] (TR)
  post-proj low-frequency mode:    0.0000  [cm^-1] (TR)
  post-proj low-frequency mode:    0.0000  [cm^-1] (TR)
  post-proj low-frequency mode:    0.0000  [cm^-1] (TR)
  post-proj  all modes:['0.0000i' '0.0000i' '0.0000i' '0.0000' '0.0000' '0.0000' '331.8492'
 '1075.0337' '1121.6360' '1166.4563' '1386.5580' '1475.7629' '1477.5481'
 '1494.5640' '3010.8267' '3068.9514' '3149.9311' '3849.2478']

  Vibration                       7                   8                   9           
  Freq [cm^-1]                 331.8492           1075.0337           1121.6360       
  Irrep                          App                  Ap                  Ap          
  Reduced mass [u]              1.0691              1.1722              4.6941        
  Force const [mDyne/A]         0.0694              0.7982              3.4794        
  Turning point v=0 [a0]        0.5826              0.3091              0.1512        
  RMS dev v=0 [a0 u^1/2]        0.4259              0.2366              0.2317        
  Char temp [K]                477.4571           1546.7342           1613.7845       
  ----------------------------------------------------------------------------------
      1   C               -0.00  0.00  0.00   -0.08  0.04  0.00    0.04  0.41  0.00   
      2   H               -0.00  0.00  0.29    0.09  0.60 -0.00   -0.07  0.01 -0.00   
      3   H                0.23 -0.04 -0.10    0.24 -0.24 -0.04   -0.14  0.50  0.03   
      4   H               -0.23  0.04 -0.10    0.24 -0.24  0.04   -0.14  0.50 -0.03   
      5   O                0.00  0.00 -0.06    0.01 -0.07 -0.00   -0.01 -0.35 -0.00   
      6   H                0.00  0.00  0.88    0.22  0.58 -0.00   -0.00 -0.40 -0.00   

  Vibration                       10                  11                  12          
  Freq [cm^-1]                1166.4563           1386.5580           1475.7629       
  Irrep                          App                  Ap                  Ap          
  Reduced mass [u]              1.2821              1.2872              1.1403        
  Force const [mDyne/A]         1.0278              1.4581              1.4632        
  Turning point v=0 [a0]        0.2837              0.2597              0.2675        
  RMS dev v=0 [a0 u^1/2]        0.2272              0.2084              0.2020        
  Char temp [K]               1678.2709           1994.9482           2123.2942       
  ----------------------------------------------------------------------------------
      1   C                0.00 -0.00  0.14    0.13 -0.02  0.00    0.02 -0.11 -0.00   
      2   H                0.00 -0.00 -0.29    0.02 -0.36 -0.00    0.24  0.66  0.00   
      3   H                0.06  0.64 -0.19   -0.24  0.10  0.14   -0.32  0.38 -0.03   
      4   H               -0.06 -0.64 -0.19   -0.24  0.10 -0.14   -0.32  0.38  0.03   
      5   O               -0.00  0.00 -0.06   -0.08 -0.03  0.00    0.01 -0.01 -0.00   
      6   H               -0.00 -0.00 -0.01    0.19  0.79  0.00   -0.00 -0.04 -0.00   

  Vibration                       13                  14                  15          
  Freq [cm^-1]                1477.5481           1494.5640           3010.8267       
  Irrep                          App                  Ap                  Ap          
  Reduced mass [u]              1.0430              1.0558              1.0375        
  Force const [mDyne/A]         1.3416              1.3895              5.5410        
  Turning point v=0 [a0]        0.2795              0.2762              0.1963        
  RMS dev v=0 [a0 u^1/2]        0.2018              0.2007              0.1414        
  Char temp [K]               2125.8627           2150.3448           4331.9093       
  ----------------------------------------------------------------------------------
      1   C               -0.00  0.00 -0.06   -0.03 -0.05  0.00   -0.03 -0.05  0.00   
      2   H               -0.00 -0.00  0.72   -0.06 -0.21 -0.00   -0.29  0.08 -0.00   
      3   H               -0.40  0.29  0.05    0.36  0.41 -0.40    0.29  0.25  0.56   
      4   H                0.40 -0.29  0.05    0.36  0.41  0.40    0.29  0.25 -0.56   
      5   O               -0.00  0.00 -0.01   -0.02 -0.01  0.00    0.00 -0.00 -0.00   
      6   H                0.00  0.00 -0.01    0.03  0.16  0.00    0.00 -0.00 -0.00   

  Vibration                       16                  17                  18          
  Freq [cm^-1]                3068.9514           3149.9311           3849.2478       
  Irrep                          App                  Ap                  Ap          
  Reduced mass [u]              1.1058              1.0990              1.0665        
  Force const [mDyne/A]         6.1360              6.4248              9.3100        
  Turning point v=0 [a0]        0.1884              0.1865              0.1713        
  RMS dev v=0 [a0 u^1/2]        0.1401              0.1382              0.1251        
  Char temp [K]               4415.5378           4532.0496           5538.2105       
  ----------------------------------------------------------------------------------
      1   C               -0.00 -0.00 -0.09   -0.09  0.01  0.00   -0.00 -0.00 -0.00   
      2   H                0.00 -0.00 -0.02    0.92 -0.26  0.00    0.01 -0.00  0.00   
      3   H                0.32  0.26  0.57    0.07  0.07  0.17    0.00 -0.00  0.00   
      4   H               -0.32 -0.26  0.57    0.07  0.07 -0.17    0.00 -0.00 -0.00   
      5   O                0.00  0.00  0.00    0.00 -0.00  0.00   -0.06  0.02 -0.00   
      6   H               -0.00  0.00  0.00   -0.02 -0.00 -0.00    0.95 -0.31  0.00   

  ==> Thermochemistry Components <==

  Entropy, S
    Electronic S            0.000 [cal/(mol K)]        0.000 [J/(mol K)]       0.00000000 [mEh/K] (multiplicity = 1)
    Translational S        36.324 [cal/(mol K)]      151.980 [J/(mol K)]       0.05788598 [mEh/K] (mol. weight = 32.0262 [u], P = 101325.00 [Pa])
    Rotational S           18.997 [cal/(mol K)]       79.482 [J/(mol K)]       0.03027313 [mEh/K] (symmetry no. = 1)
    Vibrational S           1.482 [cal/(mol K)]        6.199 [J/(mol K)]       0.00236124 [mEh/K]
  Total S                  56.802 [cal/(mol K)]      237.661 [J/(mol K)]       0.09052035 [mEh/K]
  Correction S              0.000 [cal/(mol K)]        0.000 [J/(mol K)]       0.00000000 [mEh/K]

  Constant volume heat capacity, Cv
    Electronic Cv           0.000 [cal/(mol K)]        0.000 [J/(mol K)]       0.00000000 [mEh/K]
    Translational Cv        2.981 [cal/(mol K)]       12.472 [J/(mol K)]       0.00475022 [mEh/K]
    Rotational Cv           2.981 [cal/(mol K)]       12.472 [J/(mol K)]       0.00475022 [mEh/K]
    Vibrational Cv          2.754 [cal/(mol K)]       11.522 [J/(mol K)]       0.00438854 [mEh/K]
  Total Cv                  8.715 [cal/(mol K)]       36.465 [J/(mol K)]       0.01388897 [mEh/K]
  Correction Cv             0.000 [cal/(mol K)]        0.000 [J/(mol K)]       0.00000000 [mEh/K]

  Constant pressure heat capacity, Cp
    Electronic Cp           0.000 [cal/(mol K)]        0.000 [J/(mol K)]       0.00000000 [mEh/K]
    Translational Cp        4.968 [cal/(mol K)]       20.786 [J/(mol K)]       0.00791703 [mEh/K]
    Rotational Cp           2.981 [cal/(mol K)]       12.472 [J/(mol K)]       0.00475022 [mEh/K]
    Vibrational Cp          2.754 [cal/(mol K)]       11.522 [J/(mol K)]       0.00438854 [mEh/K]
  Total Cp                 10.703 [cal/(mol K)]       44.780 [J/(mol K)]       0.01705578 [mEh/K]
  Correction Cp             0.000 [cal/(mol K)]        0.000 [J/(mol K)]       0.00000000 [mEh/K]

  ==> Thermochemistry Energy Analysis <==

  Raw electronic energy, E0
  Total E0, Electronic energy at well bottom at 0 [K]                 -115.68196535 [Eh]

  Zero-point energy, ZPE_vib = Sum_i nu_i / 2
    Electronic ZPE          0.000 [kcal/mol]        0.000 [kJ/mol]       0.00000000 [Eh]
    Translational ZPE       0.000 [kcal/mol]        0.000 [kJ/mol]       0.00000000 [Eh]
    Rotational ZPE          0.000 [kcal/mol]        0.000 [kJ/mol]       0.00000000 [Eh]
    Vibrational ZPE        32.320 [kcal/mol]      135.228 [kJ/mol]       0.05150565 [Eh]       11304.182 [cm^-1]
  Correction ZPE           32.320 [kcal/mol]      135.228 [kJ/mol]       0.05150565 [Eh]       11304.182 [cm^-1]
  Total ZPE, Electronic energy at 0 [K]                               -115.63045970 [Eh]

  Thermal Energy, E (includes ZPE)
    Electronic E            0.000 [kcal/mol]        0.000 [kJ/mol]       0.00000000 [Eh]
    Translational E         0.889 [kcal/mol]        3.718 [kJ/mol]       0.00141628 [Eh]
    Rotational E            0.889 [kcal/mol]        3.718 [kJ/mol]       0.00141628 [Eh]
    Vibrational E          32.618 [kcal/mol]      136.475 [kJ/mol]       0.05198076 [Eh]
  Correction E             34.396 [kcal/mol]      143.912 [kJ/mol]       0.05481331 [Eh]
  Total E, Electronic energy at  298.15 [K]                           -115.62715204 [Eh]

  Enthalpy, H_trans = E_trans + k_B * T
    Electronic H            0.000 [kcal/mol]        0.000 [kJ/mol]       0.00000000 [Eh]
    Translational H         1.481 [kcal/mol]        6.197 [kJ/mol]       0.00236046 [Eh]
    Rotational H            0.889 [kcal/mol]        3.718 [kJ/mol]       0.00141628 [Eh]
    Vibrational H          32.618 [kcal/mol]      136.475 [kJ/mol]       0.05198076 [Eh]
  Correction H             34.988 [kcal/mol]      146.391 [kJ/mol]       0.05575750 [Eh]
  Total H, Enthalpy at  298.15 [K]                                    -115.62620785 [Eh]

  Gibbs free energy, G = H - T * S
    Electronic G            0.000 [kcal/mol]        0.000 [kJ/mol]       0.00000000 [Eh]
    Translational G        -9.349 [kcal/mol]      -39.115 [kJ/mol]      -0.01489824 [Eh]
    Rotational G           -4.775 [kcal/mol]      -19.979 [kJ/mol]      -0.00760966 [Eh]
    Vibrational G          32.177 [kcal/mol]      134.627 [kJ/mol]       0.05127675 [Eh]
  Correction G             18.053 [kcal/mol]       75.533 [kJ/mol]       0.02876885 [Eh]
  Total G, Free enthalpy at  298.15 [K]                               -115.65319650 [Eh]

    Psi4 stopped on: Tuesday, 27 April 2021 06:21PM
    Psi4 wall time for execution: 0:12:56.64

*** Psi4 exiting successfully. Buy a developer a beer!
