
    -----------------------------------------------------------------------
          Psi4: An Open-Source Ab Initio Electronic Structure Package
                               Psi4 1.3.2 release

                         Git: Rev {HEAD} ecbda83 


    R. M. Parrish, L. A. Burns, D. G. A. Smith, A. C. Simmonett,
    A. E. DePrince III, E. G. Hohenstein, U. Bozkaya, A. Yu. Sokolov,
    R. Di Remigio, R. M. Richard, J. F. Gonthier, A. M. James,
    H. R. McAlexander, A. Kumar, M. Saitow, X. Wang, B. P. Pritchard,
    P. Verma, H. F. Schaefer III, K. Patkowski, R. A. King, E. F. Valeev,
    F. A. Evangelista, J. M. Turney, T. D. Crawford, and C. D. Sherrill,
    J. Chem. Theory Comput. 13(7) pp 3185--3197 (2017).
    (doi: 10.1021/acs.jctc.7b00174)


                         Additional Contributions by
    P. Kraus, H. Kruse, M. H. Lechner, M. C. Schieber, R. A. Shaw,
    A. Alenaizan, R. Galvelis, Z. L. Glick, S. Lehtola, and J. P. Misiewicz

    -----------------------------------------------------------------------


    Psi4 started on: Tuesday, 27 April 2021 06:07PM

    Process ID: 190817
    Host:       bp1-compute00107.data.bp.acrc.priv
    PSIDATADIR: /work/zw18965/.conda/envs/p4env/share/psi4
    Memory:     500.0 MiB
    Threads:    24
    
  ==> Input File <==

--------------------------------------------------------------------------
memory 144 GB

molecule {
0 3
S 0.0000000000 0.0000000000 0.0000000000
O 0.0000000000 0.0000000000 1.4862145500
}

set reference uks
set dynamic_level 1
set basis cc-pV(D+d)Z
 
optimize("wB97X-V")
frequencies("wB97X-V")
--------------------------------------------------------------------------

  Memory set to 134.110 GiB by Python driver.
gradient() will perform gradient computation by finite difference of analytic energies.

         ----------------------------------------------------------
                                   FINDIF
                     R. A. King and Jonathon Misiewicz
         ---------------------------------------------------------

  Using finite-differences of energies to determine gradients.
    Generating geometries for use with 3-point formula.
    Displacement size will be 5.00e-03.
    Number of atoms is 2.
    Number of symmetric SALCs is 1.
    Translations projected? 1. Rotations projected? 1.
    Number of geometries (including reference) is 3.

  //>>>>>>>>>>>>>>>>>>>>>>>>>>>>>>>>>>>//
  //    Loading displacement 1 of 3    //
  //<<<<<<<<<<<<<<<<<<<<<<<<<<<<<<<<<<<//

*** tstart() called on bp1-compute00107.data.bp.acrc.priv
*** at Tue Apr 27 18:07:55 2021

   => Loading Basis Set <=

    Name: CC-PV(D+D)Z
    Role: ORBITAL
    Keyword: BASIS
    atoms 1 entry S          line   613 file /work/zw18965/.conda/envs/p4env/share/psi4/basis/cc-pv_dpd_z.gbs 
    atoms 2 entry O          line   207 file /work/zw18965/.conda/envs/p4env/share/psi4/basis/cc-pv_dpd_z.gbs 


         ---------------------------------------------------------
                                   SCF
               by Justin Turney, Rob Parrish, Andy Simmonett
                          and Daniel G. A. Smith
                              UKS Reference
                       24 Threads, 137329 MiB Core
         ---------------------------------------------------------

  ==> Geometry <==

    Molecular point group: c2v
    Full point group: C_inf_v

    Geometry (in Angstrom), charge = 0, multiplicity = 3:

       Center              X                  Y                   Z               Mass       
    ------------   -----------------  -----------------  -----------------  -----------------
         S            0.000000000000     0.000000000000    -0.495588255967    31.972071174400
         O            0.000000000000     0.000000000000     0.990626294033    15.994914619570

  Running in c2v symmetry.

  Rotational constants: A = ************  B =      0.71585  C =      0.71585 [cm^-1]
  Rotational constants: A = ************  B =  21460.70147  C =  21460.70147 [MHz]
  Nuclear repulsion =   45.575306045658088

  Charge       = 0
  Multiplicity = 3
  Electrons    = 24
  Nalpha       = 13
  Nbeta        = 11

  ==> Algorithm <==

  SCF Algorithm Type is DF.
  DIIS enabled.
  MOM disabled.
  Fractional occupation disabled.
  Guess Type is SAD.
  Energy threshold   = 1.00e-08
  Density threshold  = 1.00e-08
  Integral threshold = 0.00e+00

  ==> Primary Basis <==

  Basis Set: CC-PV(D+D)Z
    Blend: CC-PV(D+D)Z
    Number of shells: 15
    Number of basis function: 37
    Number of Cartesian functions: 40
    Spherical Harmonics?: true
    Max angular momentum: 2

  ==> DFT Potential <==

   => Composite Functional: WB97X-V <= 

    wB97X-V Hyb-GGA Exchange-Correlation Functional

    N. Mardirossian and M. Head-Gordon, Phys. Chem. Chem. Phys. 16, 9904 (2014)

    Deriv               =              1
    GGA                 =           TRUE
    Meta                =          FALSE

    Exchange Hybrid     =           TRUE
    MP2 Hybrid          =          FALSE

   => Exchange-Correlation Functionals <=

    1.0000   wB97X-V range-separated functional

   => Exact (HF) Exchange <=

    0.8330            HF,LR [omega = 0.3000]
    0.1670               HF 

   => VV10 Non-Local Parameters <=

    VV10 B              =     6.0000E+00
    VV10 C              =     1.0000E-02

   => Molecular Quadrature <=

    Radial Scheme          =       TREUTLER
    Pruning Scheme         =           FLAT
    Nuclear Scheme         =       TREUTLER

    BS radius alpha        =              1
    Pruning alpha          =              1
    Radial Points          =             75
    Spherical Points       =            302
    Total Points           =          42532
    Total Blocks           =            383
    Max Points             =            256
    Max Functions          =             37

   => Loading Basis Set <=

    Name: (CC-PV(D+D)Z AUX)
    Role: JKFIT
    Keyword: DF_BASIS_SCF
    atoms 1 entry S          line   593 file /work/zw18965/.conda/envs/p4env/share/psi4/basis/cc-pvdz-jkfit.gbs 
    atoms 2 entry O          line   221 file /work/zw18965/.conda/envs/p4env/share/psi4/basis/cc-pvdz-jkfit.gbs 

  ==> Pre-Iterations <==

   -------------------------------------------------------
    Irrep   Nso     Nmo     Nalpha   Nbeta   Ndocc  Nsocc
   -------------------------------------------------------
     A1        18      18       0       0       0       0
     A2         3       3       0       0       0       0
     B1         8       8       0       0       0       0
     B2         8       8       0       0       0       0
   -------------------------------------------------------
    Total      37      37      13      11      11       2
   -------------------------------------------------------

  ==> Integral Setup <==

  ==> DiskDFJK: Density-Fitted J/K Matrices <==

    J tasked:                  Yes
    K tasked:                  Yes
    wK tasked:                 Yes
    Omega:               3.000E-01
    OpenMP threads:             24
    Integrals threads:          24
    Memory [MiB]:           102952
    Algorithm:                Core
    Integral Cache:           NONE
    Schwarz Cutoff:          1E-12
    Fitting Condition:       1E-10

   => Auxiliary Basis Set <=

  Basis Set: (CC-PV(D+D)Z AUX)
    Blend: CC-PVDZ-JKFIT
    Number of shells: 60
    Number of basis function: 182
    Number of Cartesian functions: 211
    Spherical Harmonics?: true
    Max angular momentum: 3

  Cached 100.0% of DFT collocation blocks in 0.043 [GiB].

  Minimum eigenvalue in the overlap matrix is 3.0447896410E-02.
  Using Symmetric Orthogonalization.

  SCF Guess: Superposition of Atomic Densities via on-the-fly atomic UHF.

  ==> Iterations <==

                           Total Energy        Delta E     RMS |[F,P]|

   @DF-UKS iter SAD:  -472.84178361969452   -4.72842e+02   0.00000e+00 
   @DF-UKS iter   1:  -473.20611350434245   -3.64330e-01   1.84651e-02 DIIS
   @DF-UKS iter   2:  -473.14646524902594    5.96483e-02   2.67866e-02 DIIS
   @DF-UKS iter   3:  -473.27354744128093   -1.27082e-01   1.63453e-03 DIIS
   @DF-UKS iter   4:  -473.27426493943341   -7.17498e-04   6.78185e-04 DIIS
   @DF-UKS iter   5:  -473.27444529491555   -1.80355e-04   2.26872e-04 DIIS
   @DF-UKS iter   6:  -473.27447538375867   -3.00888e-05   8.38828e-05 DIIS
   @DF-UKS iter   7:  -473.27448106774989   -5.68399e-06   2.33861e-05 DIIS
   @DF-UKS iter   8:  -473.27448131795990   -2.50210e-07   5.51720e-06 DIIS
   @DF-UKS iter   9:  -473.27448133012325   -1.21634e-08   4.99614e-07 DIIS
   @DF-UKS iter  10:  -473.27448133023643   -1.13175e-10   9.05317e-08 DIIS
   @DF-UKS iter  11:  -473.27448133024166   -5.22959e-12   2.56596e-08 DIIS
   @DF-UKS iter  12:  -473.27448133024177   -1.13687e-13   2.57653e-09 DIIS
  Energy and wave function converged.


  ==> Post-Iterations <==

   @Spin Contamination Metric:   8.421446843E-03
   @S^2 Expected:                2.000000000E+00
   @S^2 Observed:                2.008421447E+00
   @S   Expected:                1.000000000E+00
   @S   Observed:                1.000000000E+00

    Orbital Energies [Eh]
    ---------------------

    Alpha Occupied:                                                       

       1A1   -88.957871     2A1   -19.296297     3A1    -8.121525  
       4A1    -6.076173     1B1    -6.075233     1B2    -6.075233  
       5A1    -1.221715     6A1    -0.804090     2B2    -0.566546  
       2B1    -0.566546     7A1    -0.556871     3B1    -0.356150  
       3B2    -0.356150  

    Alpha Virtual:                                                        

       8A1     0.119215     9A1     0.542906     4B1     0.546887  
       4B2     0.546887     1A2     0.570141    10A1     0.570141  
      11A1     0.591535     5B1     0.639960     5B2     0.639960  
      12A1     0.859615     6B2     1.076401     6B1     1.076401  
      13A1     1.167257    14A1     1.737164    15A1     2.632803  
       2A2     2.632806     7B2     2.766160     7B1     2.766160  
      16A1     3.292439     3A2     4.460166    17A1     4.460170  
       8B1     4.557177     8B2     4.557177    18A1     4.677531  

    Beta Occupied:                                                        

       1A1   -88.951748     2A1   -19.276820     3A1    -8.115509  
       4A1    -6.072499     1B1    -6.062537     1B2    -6.062537  
       5A1    -1.178004     6A1    -0.731566     7A1    -0.521869  
       2B1    -0.485936     2B2    -0.485936  

    Beta Virtual:                                                         

       3B1    -0.023783     3B2    -0.023783     8A1     0.141369  
       9A1     0.562358     4B2     0.570309     4B1     0.570309  
      10A1     0.602950    11A1     0.631592     1A2     0.631592  
       5B1     0.688912     5B2     0.688912    12A1     0.880561  
       6B1     1.118166     6B2     1.118166    13A1     1.190682  
      14A1     1.763152    15A1     2.696337     2A2     2.696338  
       7B1     2.803308     7B2     2.803308    16A1     3.324100  
       3A2     4.470122    17A1     4.470130     8B1     4.563436  
       8B2     4.563436    18A1     4.682586  

    Final Occupation by Irrep:
             A1    A2    B1    B2 
    DOCC [     7,    0,    2,    2 ]
    SOCC [     0,    0,    1,    1 ]

  @DF-UKS Final Energy:  -473.27448133024177

   => Energetics <=

    Nuclear Repulsion Energy =             45.5753060456580883
    One-Electron Energy =                -743.3902862607786801
    Two-Electron Energy =                 249.9399461403785097
    DFT Exchange-Correlation Energy =     -25.5003726268733999
    Empirical Dispersion Energy =           0.0000000000000000
    VV10 Nonlocal Energy =                  0.1009253713737321
    Total Energy =                       -473.2744813302417697

  UHF NO Occupations:
  HONO-2 :    2 B2 1.9984310
  HONO-1 :    3 B1 1.0000000
  HONO-0 :    3 B2 1.0000000
  LUNO+0 :    4 B2 0.0015690
  LUNO+1 :    4 B1 0.0015690
  LUNO+2 :    8 A1 0.0008009
  LUNO+3 :    9 A1 0.0002067


Computation Completed


Properties will be evaluated at   0.000000,   0.000000,   0.000000 [a0]

Properties computed using the SCF density matrix

  Nuclear Dipole Moment: [e a0]
     X:     0.0000      Y:     0.0000      Z:    -0.0083

  Electronic Dipole Moment: [e a0]
     X:     0.0000      Y:     0.0000      Z:    -0.6157

  Dipole Moment: [e a0]
     X:     0.0000      Y:     0.0000      Z:    -0.6240     Total:     0.6240

  Dipole Moment: [D]
     X:     0.0000      Y:     0.0000      Z:    -1.5860     Total:     1.5860


*** tstop() called on bp1-compute00107.data.bp.acrc.priv at Tue Apr 27 18:07:59 2021
Module time:
	user time   =      83.73 seconds =       1.40 minutes
	system time =       4.73 seconds =       0.08 minutes
	total time  =          4 seconds =       0.07 minutes
Total time:
	user time   =      83.73 seconds =       1.40 minutes
	system time =       4.73 seconds =       0.08 minutes
	total time  =          4 seconds =       0.07 minutes

  //>>>>>>>>>>>>>>>>>>>>>>>>>>>>>>>>>>>//
  //    Loading displacement 2 of 3    //
  //<<<<<<<<<<<<<<<<<<<<<<<<<<<<<<<<<<<//

*** tstart() called on bp1-compute00107.data.bp.acrc.priv
*** at Tue Apr 27 18:07:59 2021

   => Loading Basis Set <=

    Name: CC-PV(D+D)Z
    Role: ORBITAL
    Keyword: BASIS
    atoms 1 entry S          line   613 file /work/zw18965/.conda/envs/p4env/share/psi4/basis/cc-pv_dpd_z.gbs 
    atoms 2 entry O          line   207 file /work/zw18965/.conda/envs/p4env/share/psi4/basis/cc-pv_dpd_z.gbs 


         ---------------------------------------------------------
                                   SCF
               by Justin Turney, Rob Parrish, Andy Simmonett
                          and Daniel G. A. Smith
                              UKS Reference
                       24 Threads, 137329 MiB Core
         ---------------------------------------------------------

  ==> Geometry <==

    Molecular point group: c2v
    Full point group: C_inf_v

    Geometry (in Angstrom), charge = 0, multiplicity = 3:

       Center              X                  Y                   Z               Mass       
    ------------   -----------------  -----------------  -----------------  -----------------
         S            0.000000000000     0.000000000000    -0.495858468507    31.972071174400
         O            0.000000000000     0.000000000000     0.991166419115    15.994914619570

  Running in c2v symmetry.

  Rotational constants: A = ************  B =      0.71507  C =      0.71507 [cm^-1]
  Rotational constants: A = ************  B =  21437.31830  C =  21437.31830 [MHz]
  Nuclear repulsion =   45.550470291095749

  Charge       = 0
  Multiplicity = 3
  Electrons    = 24
  Nalpha       = 13
  Nbeta        = 11

  ==> Algorithm <==

  SCF Algorithm Type is DF.
  DIIS enabled.
  MOM disabled.
  Fractional occupation disabled.
  Guess Type is SAD.
  Energy threshold   = 1.00e-08
  Density threshold  = 1.00e-08
  Integral threshold = 0.00e+00

  ==> Primary Basis <==

  Basis Set: CC-PV(D+D)Z
    Blend: CC-PV(D+D)Z
    Number of shells: 15
    Number of basis function: 37
    Number of Cartesian functions: 40
    Spherical Harmonics?: true
    Max angular momentum: 2

  ==> DFT Potential <==

   => Composite Functional: WB97X-V <= 

    wB97X-V Hyb-GGA Exchange-Correlation Functional

    N. Mardirossian and M. Head-Gordon, Phys. Chem. Chem. Phys. 16, 9904 (2014)

    Deriv               =              1
    GGA                 =           TRUE
    Meta                =          FALSE

    Exchange Hybrid     =           TRUE
    MP2 Hybrid          =          FALSE

   => Exchange-Correlation Functionals <=

    1.0000   wB97X-V range-separated functional

   => Exact (HF) Exchange <=

    0.8330            HF,LR [omega = 0.3000]
    0.1670               HF 

   => VV10 Non-Local Parameters <=

    VV10 B              =     6.0000E+00
    VV10 C              =     1.0000E-02

   => Molecular Quadrature <=

    Radial Scheme          =       TREUTLER
    Pruning Scheme         =           FLAT
    Nuclear Scheme         =       TREUTLER

    BS radius alpha        =              1
    Pruning alpha          =              1
    Radial Points          =             75
    Spherical Points       =            302
    Total Points           =          42532
    Total Blocks           =            382
    Max Points             =            256
    Max Functions          =             37

   => Loading Basis Set <=

    Name: (CC-PV(D+D)Z AUX)
    Role: JKFIT
    Keyword: DF_BASIS_SCF
    atoms 1 entry S          line   593 file /work/zw18965/.conda/envs/p4env/share/psi4/basis/cc-pvdz-jkfit.gbs 
    atoms 2 entry O          line   221 file /work/zw18965/.conda/envs/p4env/share/psi4/basis/cc-pvdz-jkfit.gbs 

  ==> Pre-Iterations <==

   -------------------------------------------------------
    Irrep   Nso     Nmo     Nalpha   Nbeta   Ndocc  Nsocc
   -------------------------------------------------------
     A1        18      18       0       0       0       0
     A2         3       3       0       0       0       0
     B1         8       8       0       0       0       0
     B2         8       8       0       0       0       0
   -------------------------------------------------------
    Total      37      37      13      11      11       2
   -------------------------------------------------------

  ==> Integral Setup <==

  ==> DiskDFJK: Density-Fitted J/K Matrices <==

    J tasked:                  Yes
    K tasked:                  Yes
    wK tasked:                 Yes
    Omega:               3.000E-01
    OpenMP threads:             24
    Integrals threads:          24
    Memory [MiB]:           102952
    Algorithm:                Core
    Integral Cache:           NONE
    Schwarz Cutoff:          1E-12
    Fitting Condition:       1E-10

   => Auxiliary Basis Set <=

  Basis Set: (CC-PV(D+D)Z AUX)
    Blend: CC-PVDZ-JKFIT
    Number of shells: 60
    Number of basis function: 182
    Number of Cartesian functions: 211
    Spherical Harmonics?: true
    Max angular momentum: 3

  Cached 100.0% of DFT collocation blocks in 0.043 [GiB].

  Minimum eigenvalue in the overlap matrix is 3.0487513888E-02.
  Using Symmetric Orthogonalization.

  SCF Guess: Superposition of Atomic Densities via on-the-fly atomic UHF.

  ==> Iterations <==

                           Total Energy        Delta E     RMS |[F,P]|

   @DF-UKS iter SAD:  -472.84019107389804   -4.72840e+02   0.00000e+00 
   @DF-UKS iter   1:  -473.20609593522818   -3.65905e-01   1.84659e-02 DIIS
   @DF-UKS iter   2:  -473.14615138910779    5.99445e-02   2.68160e-02 DIIS
   @DF-UKS iter   3:  -473.27356037846442   -1.27409e-01   1.63527e-03 DIIS
   @DF-UKS iter   4:  -473.27427898552719   -7.18607e-04   6.79923e-04 DIIS
   @DF-UKS iter   5:  -473.27446021475424   -1.81229e-04   2.27689e-04 DIIS
   @DF-UKS iter   6:  -473.27449053870885   -3.03240e-05   8.42041e-05 DIIS
   @DF-UKS iter   7:  -473.27449627504745   -5.73634e-06   2.34612e-05 DIIS
   @DF-UKS iter   8:  -473.27449652707600   -2.52029e-07   5.53092e-06 DIIS
   @DF-UKS iter   9:  -473.27449653929983   -1.22238e-08   4.99939e-07 DIIS
   @DF-UKS iter  10:  -473.27449653941284   -1.13005e-10   9.04813e-08 DIIS
   @DF-UKS iter  11:  -473.27449653941795   -5.11591e-12   2.56232e-08 DIIS
   @DF-UKS iter  12:  -473.27449653941818   -2.27374e-13   2.57185e-09 DIIS
  Energy and wave function converged.


  ==> Post-Iterations <==

   @Spin Contamination Metric:   8.430473725E-03
   @S^2 Expected:                2.000000000E+00
   @S^2 Observed:                2.008430474E+00
   @S   Expected:                1.000000000E+00
   @S   Observed:                1.000000000E+00

    Orbital Energies [Eh]
    ---------------------

    Alpha Occupied:                                                       

       1A1   -88.957933     2A1   -19.296418     3A1    -8.121565  
       4A1    -6.076215     1B2    -6.075274     1B1    -6.075274  
       5A1    -1.221390     6A1    -0.804218     2B1    -0.566384  
       2B2    -0.566384     7A1    -0.556804     3B2    -0.356291  
       3B1    -0.356291  

    Alpha Virtual:                                                        

       8A1     0.118996     9A1     0.542873     4B2     0.546899  
       4B1     0.546899     1A2     0.570151    10A1     0.570151  
      11A1     0.591319     5B2     0.639752     5B1     0.639752  
      12A1     0.859417     6B1     1.076420     6B2     1.076420  
      13A1     1.166717    14A1     1.737126    15A1     2.632822  
       2A2     2.632825     7B1     2.765728     7B2     2.765728  
      16A1     3.291299     3A2     4.460128    17A1     4.460132  
       8B2     4.557027     8B1     4.557027    18A1     4.677715  

    Beta Occupied:                                                        

       1A1   -88.951810     2A1   -19.276931     3A1    -8.115549  
       4A1    -6.072542     1B2    -6.062579     1B1    -6.062579  
       5A1    -1.177635     6A1    -0.731703     7A1    -0.521815  
       2B2    -0.485717     2B1    -0.485717  

    Beta Virtual:                                                         

       3B2    -0.023926     3B1    -0.023926     8A1     0.141165  
       9A1     0.562311     4B1     0.570321     4B2     0.570321  
      10A1     0.602714    11A1     0.631591     1A2     0.631592  
       5B2     0.688687     5B1     0.688687    12A1     0.880413  
       6B2     1.118209     6B1     1.118209    13A1     1.190117  
      14A1     1.763129    15A1     2.696393     2A2     2.696394  
       7B2     2.802899     7B1     2.802899    16A1     3.322976  
       3A2     4.470082    17A1     4.470089     8B2     4.563281  
       8B1     4.563281    18A1     4.682771  

    Final Occupation by Irrep:
             A1    A2    B1    B2 
    DOCC [     7,    0,    2,    2 ]
    SOCC [     0,    0,    1,    1 ]

  @DF-UKS Final Energy:  -473.27449653941818

   => Energetics <=

    Nuclear Repulsion Energy =             45.5504702910957491
    One-Electron Energy =                -743.3412828110510873
    Two-Electron Energy =                 249.9152987152448588
    DFT Exchange-Correlation Energy =     -25.4999089469412112
    Empirical Dispersion Energy =           0.0000000000000000
    VV10 Nonlocal Energy =                  0.1009262122335285
    Total Energy =                       -473.2744965394182373

  UHF NO Occupations:
  HONO-2 :    2 B1 1.9984291
  HONO-1 :    3 B1 1.0000000
  HONO-0 :    3 B2 1.0000000
  LUNO+0 :    4 B1 0.0015709
  LUNO+1 :    4 B2 0.0015709
  LUNO+2 :    8 A1 0.0008013
  LUNO+3 :    9 A1 0.0002069


Computation Completed


Properties will be evaluated at   0.000000,   0.000000,   0.000000 [a0]

Properties computed using the SCF density matrix

  Nuclear Dipole Moment: [e a0]
     X:     0.0000      Y:     0.0000      Z:    -0.0083

  Electronic Dipole Moment: [e a0]
     X:     0.0000      Y:     0.0000      Z:    -0.6161

  Dipole Moment: [e a0]
     X:     0.0000      Y:     0.0000      Z:    -0.6244     Total:     0.6244

  Dipole Moment: [D]
     X:     0.0000      Y:     0.0000      Z:    -1.5872     Total:     1.5872


*** tstop() called on bp1-compute00107.data.bp.acrc.priv at Tue Apr 27 18:08:02 2021
Module time:
	user time   =      81.39 seconds =       1.36 minutes
	system time =       4.33 seconds =       0.07 minutes
	total time  =          3 seconds =       0.05 minutes
Total time:
	user time   =     165.29 seconds =       2.75 minutes
	system time =       9.07 seconds =       0.15 minutes
	total time  =          7 seconds =       0.12 minutes

  //>>>>>>>>>>>>>>>>>>>>>>>>>>>>>>>>>>>//
  //    Loading displacement 3 of 3    //
  //<<<<<<<<<<<<<<<<<<<<<<<<<<<<<<<<<<<//

*** tstart() called on bp1-compute00107.data.bp.acrc.priv
*** at Tue Apr 27 18:08:02 2021

   => Loading Basis Set <=

    Name: CC-PV(D+D)Z
    Role: ORBITAL
    Keyword: BASIS
    atoms 1 entry S          line   613 file /work/zw18965/.conda/envs/p4env/share/psi4/basis/cc-pv_dpd_z.gbs 
    atoms 2 entry O          line   207 file /work/zw18965/.conda/envs/p4env/share/psi4/basis/cc-pv_dpd_z.gbs 


         ---------------------------------------------------------
                                   SCF
               by Justin Turney, Rob Parrish, Andy Simmonett
                          and Daniel G. A. Smith
                              UKS Reference
                       24 Threads, 137329 MiB Core
         ---------------------------------------------------------

  ==> Geometry <==

    Molecular point group: c2v
    Full point group: C_inf_v

    Geometry (in Angstrom), charge = 0, multiplicity = 3:

       Center              X                  Y                   Z               Mass       
    ------------   -----------------  -----------------  -----------------  -----------------
         S            0.000000000000     0.000000000000    -0.495318043426    31.972071174400
         O            0.000000000000     0.000000000000     0.990086168951    15.994914619570

  Running in c2v symmetry.

  Rotational constants: A = ************  B =      0.71663  C =      0.71663 [cm^-1]
  Rotational constants: A = ************  B =  21484.12291  C =  21484.12291 [MHz]
  Nuclear repulsion =   45.600168897688086

  Charge       = 0
  Multiplicity = 3
  Electrons    = 24
  Nalpha       = 13
  Nbeta        = 11

  ==> Algorithm <==

  SCF Algorithm Type is DF.
  DIIS enabled.
  MOM disabled.
  Fractional occupation disabled.
  Guess Type is SAD.
  Energy threshold   = 1.00e-08
  Density threshold  = 1.00e-08
  Integral threshold = 0.00e+00

  ==> Primary Basis <==

  Basis Set: CC-PV(D+D)Z
    Blend: CC-PV(D+D)Z
    Number of shells: 15
    Number of basis function: 37
    Number of Cartesian functions: 40
    Spherical Harmonics?: true
    Max angular momentum: 2

  ==> DFT Potential <==

   => Composite Functional: WB97X-V <= 

    wB97X-V Hyb-GGA Exchange-Correlation Functional

    N. Mardirossian and M. Head-Gordon, Phys. Chem. Chem. Phys. 16, 9904 (2014)

    Deriv               =              1
    GGA                 =           TRUE
    Meta                =          FALSE

    Exchange Hybrid     =           TRUE
    MP2 Hybrid          =          FALSE

   => Exchange-Correlation Functionals <=

    1.0000   wB97X-V range-separated functional

   => Exact (HF) Exchange <=

    0.8330            HF,LR [omega = 0.3000]
    0.1670               HF 

   => VV10 Non-Local Parameters <=

    VV10 B              =     6.0000E+00
    VV10 C              =     1.0000E-02

   => Molecular Quadrature <=

    Radial Scheme          =       TREUTLER
    Pruning Scheme         =           FLAT
    Nuclear Scheme         =       TREUTLER

    BS radius alpha        =              1
    Pruning alpha          =              1
    Radial Points          =             75
    Spherical Points       =            302
    Total Points           =          42532
    Total Blocks           =            382
    Max Points             =            256
    Max Functions          =             37

   => Loading Basis Set <=

    Name: (CC-PV(D+D)Z AUX)
    Role: JKFIT
    Keyword: DF_BASIS_SCF
    atoms 1 entry S          line   593 file /work/zw18965/.conda/envs/p4env/share/psi4/basis/cc-pvdz-jkfit.gbs 
    atoms 2 entry O          line   221 file /work/zw18965/.conda/envs/p4env/share/psi4/basis/cc-pvdz-jkfit.gbs 

  ==> Pre-Iterations <==

   -------------------------------------------------------
    Irrep   Nso     Nmo     Nalpha   Nbeta   Ndocc  Nsocc
   -------------------------------------------------------
     A1        18      18       0       0       0       0
     A2         3       3       0       0       0       0
     B1         8       8       0       0       0       0
     B2         8       8       0       0       0       0
   -------------------------------------------------------
    Total      37      37      13      11      11       2
   -------------------------------------------------------

  ==> Integral Setup <==

  ==> DiskDFJK: Density-Fitted J/K Matrices <==

    J tasked:                  Yes
    K tasked:                  Yes
    wK tasked:                 Yes
    Omega:               3.000E-01
    OpenMP threads:             24
    Integrals threads:          24
    Memory [MiB]:           102952
    Algorithm:                Core
    Integral Cache:           NONE
    Schwarz Cutoff:          1E-12
    Fitting Condition:       1E-10

   => Auxiliary Basis Set <=

  Basis Set: (CC-PV(D+D)Z AUX)
    Blend: CC-PVDZ-JKFIT
    Number of shells: 60
    Number of basis function: 182
    Number of Cartesian functions: 211
    Spherical Harmonics?: true
    Max angular momentum: 3

  Cached 100.0% of DFT collocation blocks in 0.043 [GiB].

  Minimum eigenvalue in the overlap matrix is 3.0408316612E-02.
  Using Symmetric Orthogonalization.

  SCF Guess: Superposition of Atomic Densities via on-the-fly atomic UHF.

  ==> Iterations <==

                           Total Energy        Delta E     RMS |[F,P]|

   @DF-UKS iter SAD:  -472.84338018245984   -4.72843e+02   0.00000e+00 
   @DF-UKS iter   1:  -473.20612957537656   -3.62749e-01   1.84643e-02 DIIS
   @DF-UKS iter   2:  -473.14677659618803    5.93530e-02   2.67573e-02 DIIS
   @DF-UKS iter   3:  -473.27353309832466   -1.26757e-01   1.63378e-03 DIIS
   @DF-UKS iter   4:  -473.27424948327649   -7.16385e-04   6.76447e-04 DIIS
   @DF-UKS iter   5:  -473.27442896614724   -1.79483e-04   2.26056e-04 DIIS
   @DF-UKS iter   6:  -473.27445882100682   -2.98549e-05   8.35619e-05 DIIS
   @DF-UKS iter   7:  -473.27446445302797   -5.63202e-06   2.33110e-05 DIIS
   @DF-UKS iter   8:  -473.27446470143229   -2.48404e-07   5.50350e-06 DIIS
   @DF-UKS iter   9:  -473.27446471353602   -1.21037e-08   4.99295e-07 DIIS
   @DF-UKS iter  10:  -473.27446471364874   -1.12720e-10   9.05934e-08 DIIS
   @DF-UKS iter  11:  -473.27446471365380   -5.05906e-12   2.56966e-08 DIIS
   @DF-UKS iter  12:  -473.27446471365403   -2.27374e-13   2.58790e-09 DIIS
  Energy and wave function converged.


  ==> Post-Iterations <==

   @Spin Contamination Metric:   8.412409749E-03
   @S^2 Expected:                2.000000000E+00
   @S^2 Observed:                2.008412410E+00
   @S   Expected:                1.000000000E+00
   @S   Observed:                1.000000000E+00

    Orbital Energies [Eh]
    ---------------------

    Alpha Occupied:                                                       

       1A1   -88.957809     2A1   -19.296176     3A1    -8.121485  
       4A1    -6.076132     1B1    -6.075191     1B2    -6.075191  
       5A1    -1.222040     6A1    -0.803963     2B2    -0.566708  
       2B1    -0.566708     7A1    -0.556938     3B1    -0.356010  
       3B2    -0.356010  

    Alpha Virtual:                                                        

       8A1     0.119433     9A1     0.542939     4B1     0.546875  
       4B2     0.546875     1A2     0.570132    10A1     0.570132  
      11A1     0.591752     5B1     0.640169     5B2     0.640169  
      12A1     0.859812     6B2     1.076382     6B1     1.076382  
      13A1     1.167801    14A1     1.737202    15A1     2.632784  
       2A2     2.632787     7B2     2.766593     7B1     2.766593  
      16A1     3.293577     3A2     4.460204    17A1     4.460208  
       8B1     4.557326     8B2     4.557326    18A1     4.677348  

    Beta Occupied:                                                        

       1A1   -88.951685     2A1   -19.276710     3A1    -8.115468  
       4A1    -6.072457     1B1    -6.062495     1B2    -6.062495  
       5A1    -1.178375     6A1    -0.731429     7A1    -0.521922  
       2B1    -0.486156     2B2    -0.486156  

    Beta Virtual:                                                         

       3B1    -0.023639     3B2    -0.023639     8A1     0.141573  
       9A1     0.562405     4B2     0.570298     4B1     0.570298  
      10A1     0.603186    11A1     0.631592     1A2     0.631593  
       5B1     0.689138     5B2     0.689138    12A1     0.880708  
       6B1     1.118122     6B2     1.118122    13A1     1.191250  
      14A1     1.763175    15A1     2.696281     2A2     2.696281  
       7B1     2.803718     7B2     2.803718    16A1     3.325221  
       3A2     4.470163    17A1     4.470171     8B1     4.563590  
       8B2     4.563590    18A1     4.682402  

    Final Occupation by Irrep:
             A1    A2    B1    B2 
    DOCC [     7,    0,    2,    2 ]
    SOCC [     0,    0,    1,    1 ]

  @DF-UKS Final Energy:  -473.27446471365403

   => Energetics <=

    Nuclear Repulsion Energy =             45.6001688976880857
    One-Electron Energy =                -743.4393392270319509
    Two-Electron Energy =                 249.9646181680715529
    DFT Exchange-Correlation Energy =     -25.5008370834807998
    Empirical Dispersion Energy =           0.0000000000000000
    VV10 Nonlocal Energy =                  0.1009245310990517
    Total Energy =                       -473.2744647136541403

  UHF NO Occupations:
  HONO-2 :    2 B2 1.9984329
  HONO-1 :    3 B2 1.0000000
  HONO-0 :    3 B1 1.0000000
  LUNO+0 :    4 B2 0.0015671
  LUNO+1 :    4 B1 0.0015671
  LUNO+2 :    8 A1 0.0008006
  LUNO+3 :    9 A1 0.0002065


Computation Completed


Properties will be evaluated at   0.000000,   0.000000,   0.000000 [a0]

Properties computed using the SCF density matrix

  Nuclear Dipole Moment: [e a0]
     X:     0.0000      Y:     0.0000      Z:    -0.0083

  Electronic Dipole Moment: [e a0]
     X:     0.0000      Y:     0.0000      Z:    -0.6152

  Dipole Moment: [e a0]
     X:     0.0000      Y:     0.0000      Z:    -0.6235     Total:     0.6235

  Dipole Moment: [D]
     X:     0.0000      Y:     0.0000      Z:    -1.5848     Total:     1.5848


*** tstop() called on bp1-compute00107.data.bp.acrc.priv at Tue Apr 27 18:08:06 2021
Module time:
	user time   =      79.51 seconds =       1.33 minutes
	system time =       4.11 seconds =       0.07 minutes
	total time  =          4 seconds =       0.07 minutes
Total time:
	user time   =     244.93 seconds =       4.08 minutes
	system time =      13.19 seconds =       0.22 minutes
	total time  =         11 seconds =       0.18 minutes

         ----------------------------------------------------------
                                   FINDIF
                     R. A. King and Jonathon Misiewicz
         ---------------------------------------------------------

  Computing gradient from energies.
    Using 3-point formula.
    Energy without displacement: -473.2744813302
    Check energies below for precision!
    Forces are for mass-weighted, symmetry-adapted cartesians (in au).

     Coord      Energy(-1)        Energy(+1)            Force
        0   -473.2744965394   -473.2744647137      0.0031825764


-------------------------------------------------------------
  ## New Matrix (Symmetry 0) ##
  Irrep: 1 Size: 2 x 3

                 1                   2                   3

    1     0.00000000000000     0.00000000000000     0.01039163716376
    2     0.00000000000000     0.00000000000000    -0.01039163716376




			-----------------------------------------
			 OPTKING 2.0: for geometry optimizations 
			  - R.A. King,  Bethel University        
			-----------------------------------------
	At level 1: Red. Int., RFO, no backsteps, dynamic trust

	Internal coordinates to be generated automatically.
	Detected frag 1 with atoms:  1 2
	---Fragment 1 Bond Connectivity---
	 1 : 2
	 2 : 1

	---Fragment 1 Geometry and Gradient---
	 S           0.0000000000        0.0000000000       -0.9365260748
	 O           0.0000000000        0.0000000000        1.8720123884
	             0.0000000000        0.0000000000        0.0103916372
	             0.0000000000        0.0000000000       -0.0103916372

	Previous optimization step data not found.  Starting new optimization.

	---Fragment 1 Intrafragment Coordinates---
	 - Coordinate -           - BOHR/RAD -       - ANG/DEG -
	 R(1,2)           =         2.808538	       1.486215

	Current energy   :      -473.2744813302

	Generating empirical Hessian (Schlegel '84) for each fragment.
	Taking RFO optimization step.
	Going to follow RFO solution 1.
	Using RFO vector 1.
	Norm of target step-size    0.01276
	Projected energy change by RFO approximation:        -0.0000511814

	Back-transformation to cartesian coordinates...
	Successfully converged to displaced geometry.

	--- Internal Coordinate Step in ANG or DEG, aJ/ANG or AJ/DEG ---
	 ---------------------------------------------------------------------------
	   Coordinate                Previous        Force       Change         New 
	   ----------                --------       ------       ------       ------
	    1 R(1,2)          =      1.486215     0.085614     0.006752     1.492967
	 ---------------------------------------------------------------------------
	Successfully symmetrized geometry.

  ==> Convergence Check <==

  Measures of convergence in internal coordinates in au.
  Criteria marked as inactive (o), active & met (*), and active & unmet ( ).
  --------------------------------------------------------------------------------------------- ~
   Step     Total Energy     Delta E     MAX Force     RMS Force      MAX Disp      RMS Disp    ~
  --------------------------------------------------------------------------------------------- ~
    Convergence Criteria    1.00e-06 *    3.00e-04 *             o    1.20e-03 *             o  ~
  --------------------------------------------------------------------------------------------- ~
      1    -473.27448133   -4.73e+02      1.04e-02      1.04e-02 o    1.28e-02      1.28e-02 o  ~
  ---------------------------------------------------------------------------------------------

	Writing optimization data to binary file.
	Structure for next step:
	Cartesian Geometry (in Angstrom)
	    S     0.0000000000   0.0000000000  -0.4989642633
	    O     0.0000000000   0.0000000000   0.9940022994
			--------------------------
			 OPTKING Finished Execution 
			--------------------------

    Structure for next step:
    Molecular point group: c2v
    Full point group: C_inf_v

    Geometry (in Angstrom), charge = 0, multiplicity = 3:

    S            0.000000000000     0.000000000000    -0.497839762052
    O            0.000000000000     0.000000000000     0.995126806509

gradient() will perform gradient computation by finite difference of analytic energies.

         ----------------------------------------------------------
                                   FINDIF
                     R. A. King and Jonathon Misiewicz
         ---------------------------------------------------------

  Using finite-differences of energies to determine gradients.
    Generating geometries for use with 3-point formula.
    Displacement size will be 5.00e-03.
    Number of atoms is 2.
    Number of symmetric SALCs is 1.
    Translations projected? 1. Rotations projected? 1.
    Number of geometries (including reference) is 3.

  //>>>>>>>>>>>>>>>>>>>>>>>>>>>>>>>>>>>//
  //    Loading displacement 1 of 3    //
  //<<<<<<<<<<<<<<<<<<<<<<<<<<<<<<<<<<<//

*** tstart() called on bp1-compute00107.data.bp.acrc.priv
*** at Tue Apr 27 18:08:06 2021

   => Loading Basis Set <=

    Name: CC-PV(D+D)Z
    Role: ORBITAL
    Keyword: BASIS
    atoms 1 entry S          line   613 file /work/zw18965/.conda/envs/p4env/share/psi4/basis/cc-pv_dpd_z.gbs 
    atoms 2 entry O          line   207 file /work/zw18965/.conda/envs/p4env/share/psi4/basis/cc-pv_dpd_z.gbs 


         ---------------------------------------------------------
                                   SCF
               by Justin Turney, Rob Parrish, Andy Simmonett
                          and Daniel G. A. Smith
                              UKS Reference
                       24 Threads, 137329 MiB Core
         ---------------------------------------------------------

  ==> Geometry <==

    Molecular point group: c2v
    Full point group: C_inf_v

    Geometry (in Angstrom), charge = 0, multiplicity = 3:

       Center              X                  Y                   Z               Mass       
    ------------   -----------------  -----------------  -----------------  -----------------
         S            0.000000000000     0.000000000000    -0.497839762052    31.972071174400
         O            0.000000000000     0.000000000000     0.995126806509    15.994914619570

  Running in c2v symmetry.

  Rotational constants: A = ************  B =      0.70939  C =      0.70939 [cm^-1]
  Rotational constants: A = ************  B =  21267.02615  C =  21267.02615 [MHz]
  Nuclear repulsion =   45.369189365733135

  Charge       = 0
  Multiplicity = 3
  Electrons    = 24
  Nalpha       = 13
  Nbeta        = 11

  ==> Algorithm <==

  SCF Algorithm Type is DF.
  DIIS enabled.
  MOM disabled.
  Fractional occupation disabled.
  Guess Type is READ.
  Energy threshold   = 1.00e-08
  Density threshold  = 1.00e-08
  Integral threshold = 0.00e+00

  ==> Primary Basis <==

  Basis Set: CC-PV(D+D)Z
    Blend: CC-PV(D+D)Z
    Number of shells: 15
    Number of basis function: 37
    Number of Cartesian functions: 40
    Spherical Harmonics?: true
    Max angular momentum: 2

  ==> DFT Potential <==

   => Composite Functional: WB97X-V <= 

    wB97X-V Hyb-GGA Exchange-Correlation Functional

    N. Mardirossian and M. Head-Gordon, Phys. Chem. Chem. Phys. 16, 9904 (2014)

    Deriv               =              1
    GGA                 =           TRUE
    Meta                =          FALSE

    Exchange Hybrid     =           TRUE
    MP2 Hybrid          =          FALSE

   => Exchange-Correlation Functionals <=

    1.0000   wB97X-V range-separated functional

   => Exact (HF) Exchange <=

    0.8330            HF,LR [omega = 0.3000]
    0.1670               HF 

   => VV10 Non-Local Parameters <=

    VV10 B              =     6.0000E+00
    VV10 C              =     1.0000E-02

   => Molecular Quadrature <=

    Radial Scheme          =       TREUTLER
    Pruning Scheme         =           FLAT
    Nuclear Scheme         =       TREUTLER

    BS radius alpha        =              1
    Pruning alpha          =              1
    Radial Points          =             75
    Spherical Points       =            302
    Total Points           =          42532
    Total Blocks           =            382
    Max Points             =            256
    Max Functions          =             37

   => Loading Basis Set <=

    Name: (CC-PV(D+D)Z AUX)
    Role: JKFIT
    Keyword: DF_BASIS_SCF
    atoms 1 entry S          line   593 file /work/zw18965/.conda/envs/p4env/share/psi4/basis/cc-pvdz-jkfit.gbs 
    atoms 2 entry O          line   221 file /work/zw18965/.conda/envs/p4env/share/psi4/basis/cc-pvdz-jkfit.gbs 

   => Loading Basis Set <=

    Name: CC-PV(D+D)Z
    Role: ORBITAL
    Keyword: BASIS
    atoms 1 entry S          line   613 file /work/zw18965/.conda/envs/p4env/share/psi4/basis/cc-pv_dpd_z.gbs 
    atoms 2 entry O          line   207 file /work/zw18965/.conda/envs/p4env/share/psi4/basis/cc-pv_dpd_z.gbs 

  Reading orbitals from file 180, no projection.

  ==> Pre-Iterations <==

   -------------------------------------------------------
    Irrep   Nso     Nmo     Nalpha   Nbeta   Ndocc  Nsocc
   -------------------------------------------------------
     A1        18      18       0       0       0       0
     A2         3       3       0       0       0       0
     B1         8       8       0       0       0       0
     B2         8       8       0       0       0       0
   -------------------------------------------------------
    Total      37      37      13      11      11       2
   -------------------------------------------------------

  ==> Integral Setup <==

  ==> DiskDFJK: Density-Fitted J/K Matrices <==

    J tasked:                  Yes
    K tasked:                  Yes
    wK tasked:                 Yes
    Omega:               3.000E-01
    OpenMP threads:             24
    Integrals threads:          24
    Memory [MiB]:           102952
    Algorithm:                Core
    Integral Cache:           NONE
    Schwarz Cutoff:          1E-12
    Fitting Condition:       1E-10

   => Auxiliary Basis Set <=

  Basis Set: (CC-PV(D+D)Z AUX)
    Blend: CC-PVDZ-JKFIT
    Number of shells: 60
    Number of basis function: 182
    Number of Cartesian functions: 211
    Spherical Harmonics?: true
    Max angular momentum: 3

  Cached 100.0% of DFT collocation blocks in 0.043 [GiB].

  Minimum eigenvalue in the overlap matrix is 3.0779156071E-02.
  Using Symmetric Orthogonalization.

  SCF Guess: Orbitals guess was supplied from a previous computation.

  ==> Iterations <==

                           Total Energy        Delta E     RMS |[F,P]|

   @DF-UKS iter   0:  -473.26892030984533   -4.73269e+02   1.04979e-03 
   @DF-UKS iter   1:  -473.27455795081323   -5.63764e-03   1.80929e-04 DIIS
   @DF-UKS iter   2:  -473.27455933003245   -1.37922e-06   1.95256e-04 DIIS
   @DF-UKS iter   3:  -473.27456529219722   -5.96216e-06   3.82860e-05 DIIS
   @DF-UKS iter   4:  -473.27456560882604   -3.16629e-07   1.47860e-05 DIIS
   @DF-UKS iter   5:  -473.27456566933404   -6.05080e-08   2.75807e-06 DIIS
   @DF-UKS iter   6:  -473.27456567482659   -5.49255e-09   1.00279e-06 DIIS
   @DF-UKS iter   7:  -473.27456567554361   -7.17023e-10   2.19398e-07 DIIS
   @DF-UKS iter   8:  -473.27456567558545   -4.18368e-11   4.75465e-08 DIIS
   @DF-UKS iter   9:  -473.27456567558716   -1.70530e-12   7.83861e-09 DIIS
  Energy and wave function converged.


  ==> Post-Iterations <==

   @Spin Contamination Metric:   8.496350873E-03
   @S^2 Expected:                2.000000000E+00
   @S^2 Observed:                2.008496351E+00
   @S   Expected:                1.000000000E+00
   @S   Observed:                1.000000000E+00

    Orbital Energies [Eh]
    ---------------------

    Alpha Occupied:                                                       

       1A1   -88.958387     2A1   -19.297304     3A1    -8.121855  
       4A1    -6.076518     1B1    -6.075574     1B2    -6.075574  
       5A1    -1.219023     6A1    -0.805148     2B2    -0.565208  
       2B1    -0.565208     7A1    -0.556313     3B1    -0.357314  
       3B2    -0.357314  

    Alpha Virtual:                                                        

       8A1     0.117380     9A1     0.542632     4B1     0.546991  
       4B2     0.546991     1A2     0.570220    10A1     0.570220  
      11A1     0.589733     5B1     0.638239     5B2     0.638239  
      12A1     0.857951     6B2     1.076550     6B1     1.076550  
      13A1     1.162862    14A1     1.736837    15A1     2.632956  
       2A2     2.632959     7B2     2.762597     7B1     2.762597  
      16A1     3.282876     3A2     4.459851    17A1     4.459855  
       8B1     4.555905     8B2     4.555905    18A1     4.679100  

    Beta Occupied:                                                        

       1A1   -88.952266     2A1   -19.277742     3A1    -8.115843  
       4A1    -6.072853     1B1    -6.062883     1B2    -6.062883  
       5A1    -1.174940     6A1    -0.732703     7A1    -0.521422  
       2B1    -0.484118     2B2    -0.484118  

    Beta Virtual:                                                         

       3B1    -0.024977     3B2    -0.024977     8A1     0.139657  
       9A1     0.561968     4B2     0.570407     4B1     0.570407  
      10A1     0.600994    11A1     0.631587     1A2     0.631587  
       5B1     0.687046     5B2     0.687046    12A1     0.879308  
       6B1     1.118515     6B2     1.118515    13A1     1.186079  
      14A1     1.762947    15A1     2.696799     2A2     2.696800  
       7B1     2.799934     7B2     2.799934    16A1     3.314673  
       3A2     4.469784    17A1     4.469791     8B1     4.562131  
       8B2     4.562131    18A1     4.684165  

    Final Occupation by Irrep:
             A1    A2    B1    B2 
    DOCC [     7,    0,    2,    2 ]
    SOCC [     0,    0,    1,    1 ]

  @DF-UKS Final Energy:  -473.27456567558716

   => Energetics <=

    Nuclear Repulsion Energy =             45.3691893657331349
    One-Electron Energy =                -742.9834783888082939
    Two-Electron Energy =                 249.7353236428592140
    DFT Exchange-Correlation Energy =     -25.4965326911562080
    Empirical Dispersion Energy =           0.0000000000000000
    VV10 Nonlocal Energy =                  0.1009323957849547
    Total Energy =                       -473.2745656755871551

  UHF NO Occupations:
  HONO-2 :    2 B2 1.9984154
  HONO-1 :    3 B1 1.0000000
  HONO-0 :    3 B2 1.0000000
  LUNO+0 :    4 B2 0.0015846
  LUNO+1 :    4 B1 0.0015846
  LUNO+2 :    8 A1 0.0008039
  LUNO+3 :    9 A1 0.0002085


Computation Completed


Properties will be evaluated at   0.000000,   0.000000,   0.000000 [a0]

Properties computed using the SCF density matrix

  Nuclear Dipole Moment: [e a0]
     X:     0.0000      Y:     0.0000      Z:    -0.0084

  Electronic Dipole Moment: [e a0]
     X:     0.0000      Y:     0.0000      Z:    -0.6194

  Dipole Moment: [e a0]
     X:     0.0000      Y:     0.0000      Z:    -0.6278     Total:     0.6278

  Dipole Moment: [D]
     X:     0.0000      Y:     0.0000      Z:    -1.5957     Total:     1.5957


*** tstop() called on bp1-compute00107.data.bp.acrc.priv at Tue Apr 27 18:08:09 2021
Module time:
	user time   =      57.94 seconds =       0.97 minutes
	system time =       2.98 seconds =       0.05 minutes
	total time  =          3 seconds =       0.05 minutes
Total time:
	user time   =     303.25 seconds =       5.05 minutes
	system time =      16.18 seconds =       0.27 minutes
	total time  =         14 seconds =       0.23 minutes

  //>>>>>>>>>>>>>>>>>>>>>>>>>>>>>>>>>>>//
  //    Loading displacement 2 of 3    //
  //<<<<<<<<<<<<<<<<<<<<<<<<<<<<<<<<<<<//

*** tstart() called on bp1-compute00107.data.bp.acrc.priv
*** at Tue Apr 27 18:08:09 2021

   => Loading Basis Set <=

    Name: CC-PV(D+D)Z
    Role: ORBITAL
    Keyword: BASIS
    atoms 1 entry S          line   613 file /work/zw18965/.conda/envs/p4env/share/psi4/basis/cc-pv_dpd_z.gbs 
    atoms 2 entry O          line   207 file /work/zw18965/.conda/envs/p4env/share/psi4/basis/cc-pv_dpd_z.gbs 


         ---------------------------------------------------------
                                   SCF
               by Justin Turney, Rob Parrish, Andy Simmonett
                          and Daniel G. A. Smith
                              UKS Reference
                       24 Threads, 137329 MiB Core
         ---------------------------------------------------------

  ==> Geometry <==

    Molecular point group: c2v
    Full point group: C_inf_v

    Geometry (in Angstrom), charge = 0, multiplicity = 3:

       Center              X                  Y                   Z               Mass       
    ------------   -----------------  -----------------  -----------------  -----------------
         S            0.000000000000     0.000000000000    -0.498109974592    31.972071174400
         O            0.000000000000     0.000000000000     0.995666931591    15.994914619570

  Running in c2v symmetry.

  Rotational constants: A = ************  B =      0.70862  C =      0.70862 [cm^-1]
  Rotational constants: A = ************  B =  21243.95872  C =  21243.95872 [MHz]
  Nuclear repulsion =   45.344577684507804

  Charge       = 0
  Multiplicity = 3
  Electrons    = 24
  Nalpha       = 13
  Nbeta        = 11

  ==> Algorithm <==

  SCF Algorithm Type is DF.
  DIIS enabled.
  MOM disabled.
  Fractional occupation disabled.
  Guess Type is READ.
  Energy threshold   = 1.00e-08
  Density threshold  = 1.00e-08
  Integral threshold = 0.00e+00

  ==> Primary Basis <==

  Basis Set: CC-PV(D+D)Z
    Blend: CC-PV(D+D)Z
    Number of shells: 15
    Number of basis function: 37
    Number of Cartesian functions: 40
    Spherical Harmonics?: true
    Max angular momentum: 2

  ==> DFT Potential <==

   => Composite Functional: WB97X-V <= 

    wB97X-V Hyb-GGA Exchange-Correlation Functional

    N. Mardirossian and M. Head-Gordon, Phys. Chem. Chem. Phys. 16, 9904 (2014)

    Deriv               =              1
    GGA                 =           TRUE
    Meta                =          FALSE

    Exchange Hybrid     =           TRUE
    MP2 Hybrid          =          FALSE

   => Exchange-Correlation Functionals <=

    1.0000   wB97X-V range-separated functional

   => Exact (HF) Exchange <=

    0.8330            HF,LR [omega = 0.3000]
    0.1670               HF 

   => VV10 Non-Local Parameters <=

    VV10 B              =     6.0000E+00
    VV10 C              =     1.0000E-02

   => Molecular Quadrature <=

    Radial Scheme          =       TREUTLER
    Pruning Scheme         =           FLAT
    Nuclear Scheme         =       TREUTLER

    BS radius alpha        =              1
    Pruning alpha          =              1
    Radial Points          =             75
    Spherical Points       =            302
    Total Points           =          42532
    Total Blocks           =            382
    Max Points             =            256
    Max Functions          =             37

   => Loading Basis Set <=

    Name: (CC-PV(D+D)Z AUX)
    Role: JKFIT
    Keyword: DF_BASIS_SCF
    atoms 1 entry S          line   593 file /work/zw18965/.conda/envs/p4env/share/psi4/basis/cc-pvdz-jkfit.gbs 
    atoms 2 entry O          line   221 file /work/zw18965/.conda/envs/p4env/share/psi4/basis/cc-pvdz-jkfit.gbs 

   => Loading Basis Set <=

    Name: CC-PV(D+D)Z
    Role: ORBITAL
    Keyword: BASIS
    atoms 1 entry S          line   613 file /work/zw18965/.conda/envs/p4env/share/psi4/basis/cc-pv_dpd_z.gbs 
    atoms 2 entry O          line   207 file /work/zw18965/.conda/envs/p4env/share/psi4/basis/cc-pv_dpd_z.gbs 

  Reading orbitals from file 180, no projection.

  ==> Pre-Iterations <==

   -------------------------------------------------------
    Irrep   Nso     Nmo     Nalpha   Nbeta   Ndocc  Nsocc
   -------------------------------------------------------
     A1        18      18       0       0       0       0
     A2         3       3       0       0       0       0
     B1         8       8       0       0       0       0
     B2         8       8       0       0       0       0
   -------------------------------------------------------
    Total      37      37      13      11      11       2
   -------------------------------------------------------

  ==> Integral Setup <==

  ==> DiskDFJK: Density-Fitted J/K Matrices <==

    J tasked:                  Yes
    K tasked:                  Yes
    wK tasked:                 Yes
    Omega:               3.000E-01
    OpenMP threads:             24
    Integrals threads:          24
    Memory [MiB]:           102952
    Algorithm:                Core
    Integral Cache:           NONE
    Schwarz Cutoff:          1E-12
    Fitting Condition:       1E-10

   => Auxiliary Basis Set <=

  Basis Set: (CC-PV(D+D)Z AUX)
    Blend: CC-PVDZ-JKFIT
    Number of shells: 60
    Number of basis function: 182
    Number of Cartesian functions: 211
    Spherical Harmonics?: true
    Max angular momentum: 3

  Cached 100.0% of DFT collocation blocks in 0.043 [GiB].

  Minimum eigenvalue in the overlap matrix is 3.0819088258E-02.
  Using Symmetric Orthogonalization.

  SCF Guess: Orbitals guess was supplied from a previous computation.

  ==> Iterations <==

                           Total Energy        Delta E     RMS |[F,P]|

   @DF-UKS iter   0:  -473.27389233267388   -4.73274e+02   1.25263e-04 
   @DF-UKS iter   1:  -473.27456929753646   -6.76965e-04   2.15602e-05 DIIS
   @DF-UKS iter   2:  -473.27456931864930   -2.11128e-08   2.30633e-05 DIIS
   @DF-UKS iter   3:  -473.27456940155821   -8.29089e-08   4.63709e-06 DIIS
   @DF-UKS iter   4:  -473.27456940618885   -4.63064e-09   1.76955e-06 DIIS
   @DF-UKS iter   5:  -473.27456940705315   -8.64304e-10   3.30384e-07 DIIS
   @DF-UKS iter   6:  -473.27456940713216   -7.90124e-11   1.20208e-07 DIIS
   @DF-UKS iter   7:  -473.27456940714205   -9.89075e-12   2.62040e-08 DIIS
   @DF-UKS iter   8:  -473.27456940714313   -1.08002e-12   5.69477e-09 DIIS
  Energy and wave function converged.


  ==> Post-Iterations <==

   @Spin Contamination Metric:   8.505294858E-03
   @S^2 Expected:                2.000000000E+00
   @S^2 Observed:                2.008505295E+00
   @S   Expected:                1.000000000E+00
   @S   Observed:                1.000000000E+00

    Orbital Energies [Eh]
    ---------------------

    Alpha Occupied:                                                       

       1A1   -88.958449     2A1   -19.297424     3A1    -8.121895  
       4A1    -6.076560     1B2    -6.075615     1B1    -6.075615  
       5A1    -1.218702     6A1    -0.805274     2B1    -0.565049  
       2B2    -0.565049     7A1    -0.556246     3B2    -0.357453  
       3B1    -0.357453  

    Alpha Virtual:                                                        

       8A1     0.117158     9A1     0.542599     4B1     0.547004  
       4B2     0.547004     1A2     0.570229    10A1     0.570229  
      11A1     0.589518     5B1     0.638034     5B2     0.638034  
      12A1     0.857749     6B2     1.076567     6B1     1.076567  
      13A1     1.162351    14A1     1.736796    15A1     2.632974  
       2A2     2.632977     7B2     2.762175     7B1     2.762175  
      16A1     3.281719     3A2     4.459814    17A1     4.459817  
       8B1     4.555750     8B2     4.555750    18A1     4.679293  

    Beta Occupied:                                                        

       1A1   -88.952327     2A1   -19.277852     3A1    -8.115883  
       4A1    -6.072895     1B2    -6.062925     1B1    -6.062925  
       5A1    -1.174574     6A1    -0.732839     7A1    -0.521368  
       2B1    -0.483901     2B2    -0.483901  

    Beta Virtual:                                                         

       3B1    -0.025120     3B2    -0.025120     8A1     0.139450  
       9A1     0.561921     4B1     0.570419     4B2     0.570419  
      10A1     0.600761    11A1     0.631586     1A2     0.631586  
       5B1     0.686824     5B2     0.686824    12A1     0.879155  
       6B2     1.118555     6B1     1.118555    13A1     1.185543  
      14A1     1.762920    15A1     2.696854     2A2     2.696855  
       7B1     2.799534     7B2     2.799534    16A1     3.313533  
       3A2     4.469744    17A1     4.469750     8B1     4.561971  
       8B2     4.561971    18A1     4.684359  

    Final Occupation by Irrep:
             A1    A2    B1    B2 
    DOCC [     7,    0,    2,    2 ]
    SOCC [     0,    0,    1,    1 ]

  @DF-UKS Final Energy:  -473.27456940714313

   => Energetics <=

    Nuclear Repulsion Energy =             45.3445776845078043
    One-Electron Energy =                -742.9348848264786511
    Two-Electron Energy =                 249.7108799009330085
    DFT Exchange-Correlation Energy =     -25.4960754076635219
    Empirical Dispersion Energy =           0.0000000000000000
    VV10 Nonlocal Energy =                  0.1009332415581615
    Total Energy =                       -473.2745694071431330

  UHF NO Occupations:
  HONO-2 :    2 B1 1.9984136
  HONO-1 :    3 B1 1.0000000
  HONO-0 :    3 B2 1.0000000
  LUNO+0 :    4 B2 0.0015864
  LUNO+1 :    4 B1 0.0015864
  LUNO+2 :    8 A1 0.0008043
  LUNO+3 :    9 A1 0.0002087


Computation Completed


Properties will be evaluated at   0.000000,   0.000000,   0.000000 [a0]

Properties computed using the SCF density matrix

  Nuclear Dipole Moment: [e a0]
     X:     0.0000      Y:     0.0000      Z:    -0.0084

  Electronic Dipole Moment: [e a0]
     X:     0.0000      Y:     0.0000      Z:    -0.6199

  Dipole Moment: [e a0]
     X:     0.0000      Y:     0.0000      Z:    -0.6282     Total:     0.6282

  Dipole Moment: [D]
     X:     0.0000      Y:     0.0000      Z:    -1.5968     Total:     1.5968


*** tstop() called on bp1-compute00107.data.bp.acrc.priv at Tue Apr 27 18:08:11 2021
Module time:
	user time   =      59.06 seconds =       0.98 minutes
	system time =       3.13 seconds =       0.05 minutes
	total time  =          2 seconds =       0.03 minutes
Total time:
	user time   =     362.44 seconds =       6.04 minutes
	system time =      19.32 seconds =       0.32 minutes
	total time  =         16 seconds =       0.27 minutes

  //>>>>>>>>>>>>>>>>>>>>>>>>>>>>>>>>>>>//
  //    Loading displacement 3 of 3    //
  //<<<<<<<<<<<<<<<<<<<<<<<<<<<<<<<<<<<//

*** tstart() called on bp1-compute00107.data.bp.acrc.priv
*** at Tue Apr 27 18:08:11 2021

   => Loading Basis Set <=

    Name: CC-PV(D+D)Z
    Role: ORBITAL
    Keyword: BASIS
    atoms 1 entry S          line   613 file /work/zw18965/.conda/envs/p4env/share/psi4/basis/cc-pv_dpd_z.gbs 
    atoms 2 entry O          line   207 file /work/zw18965/.conda/envs/p4env/share/psi4/basis/cc-pv_dpd_z.gbs 


         ---------------------------------------------------------
                                   SCF
               by Justin Turney, Rob Parrish, Andy Simmonett
                          and Daniel G. A. Smith
                              UKS Reference
                       24 Threads, 137329 MiB Core
         ---------------------------------------------------------

  ==> Geometry <==

    Molecular point group: c2v
    Full point group: C_inf_v

    Geometry (in Angstrom), charge = 0, multiplicity = 3:

       Center              X                  Y                   Z               Mass       
    ------------   -----------------  -----------------  -----------------  -----------------
         S            0.000000000000     0.000000000000    -0.497569549511    31.972071174400
         O            0.000000000000     0.000000000000     0.994586681427    15.994914619570

  Running in c2v symmetry.

  Rotational constants: A = ************  B =      0.71016  C =      0.71016 [cm^-1]
  Rotational constants: A = ************  B =  21290.13117  C =  21290.13117 [MHz]
  Nuclear repulsion =   45.393827778437164

  Charge       = 0
  Multiplicity = 3
  Electrons    = 24
  Nalpha       = 13
  Nbeta        = 11

  ==> Algorithm <==

  SCF Algorithm Type is DF.
  DIIS enabled.
  MOM disabled.
  Fractional occupation disabled.
  Guess Type is READ.
  Energy threshold   = 1.00e-08
  Density threshold  = 1.00e-08
  Integral threshold = 0.00e+00

  ==> Primary Basis <==

  Basis Set: CC-PV(D+D)Z
    Blend: CC-PV(D+D)Z
    Number of shells: 15
    Number of basis function: 37
    Number of Cartesian functions: 40
    Spherical Harmonics?: true
    Max angular momentum: 2

  ==> DFT Potential <==

   => Composite Functional: WB97X-V <= 

    wB97X-V Hyb-GGA Exchange-Correlation Functional

    N. Mardirossian and M. Head-Gordon, Phys. Chem. Chem. Phys. 16, 9904 (2014)

    Deriv               =              1
    GGA                 =           TRUE
    Meta                =          FALSE

    Exchange Hybrid     =           TRUE
    MP2 Hybrid          =          FALSE

   => Exchange-Correlation Functionals <=

    1.0000   wB97X-V range-separated functional

   => Exact (HF) Exchange <=

    0.8330            HF,LR [omega = 0.3000]
    0.1670               HF 

   => VV10 Non-Local Parameters <=

    VV10 B              =     6.0000E+00
    VV10 C              =     1.0000E-02

   => Molecular Quadrature <=

    Radial Scheme          =       TREUTLER
    Pruning Scheme         =           FLAT
    Nuclear Scheme         =       TREUTLER

    BS radius alpha        =              1
    Pruning alpha          =              1
    Radial Points          =             75
    Spherical Points       =            302
    Total Points           =          42532
    Total Blocks           =            382
    Max Points             =            256
    Max Functions          =             37

   => Loading Basis Set <=

    Name: (CC-PV(D+D)Z AUX)
    Role: JKFIT
    Keyword: DF_BASIS_SCF
    atoms 1 entry S          line   593 file /work/zw18965/.conda/envs/p4env/share/psi4/basis/cc-pvdz-jkfit.gbs 
    atoms 2 entry O          line   221 file /work/zw18965/.conda/envs/p4env/share/psi4/basis/cc-pvdz-jkfit.gbs 

   => Loading Basis Set <=

    Name: CC-PV(D+D)Z
    Role: ORBITAL
    Keyword: BASIS
    atoms 1 entry S          line   613 file /work/zw18965/.conda/envs/p4env/share/psi4/basis/cc-pv_dpd_z.gbs 
    atoms 2 entry O          line   207 file /work/zw18965/.conda/envs/p4env/share/psi4/basis/cc-pv_dpd_z.gbs 

  Reading orbitals from file 180, no projection.

  ==> Pre-Iterations <==

   -------------------------------------------------------
    Irrep   Nso     Nmo     Nalpha   Nbeta   Ndocc  Nsocc
   -------------------------------------------------------
     A1        18      18       0       0       0       0
     A2         3       3       0       0       0       0
     B1         8       8       0       0       0       0
     B2         8       8       0       0       0       0
   -------------------------------------------------------
    Total      37      37      13      11      11       2
   -------------------------------------------------------

  ==> Integral Setup <==

  ==> DiskDFJK: Density-Fitted J/K Matrices <==

    J tasked:                  Yes
    K tasked:                  Yes
    wK tasked:                 Yes
    Omega:               3.000E-01
    OpenMP threads:             24
    Integrals threads:          24
    Memory [MiB]:           102952
    Algorithm:                Core
    Integral Cache:           NONE
    Schwarz Cutoff:          1E-12
    Fitting Condition:       1E-10

   => Auxiliary Basis Set <=

  Basis Set: (CC-PV(D+D)Z AUX)
    Blend: CC-PVDZ-JKFIT
    Number of shells: 60
    Number of basis function: 182
    Number of Cartesian functions: 211
    Spherical Harmonics?: true
    Max angular momentum: 3

  Cached 100.0% of DFT collocation blocks in 0.043 [GiB].

  Minimum eigenvalue in the overlap matrix is 3.0739261721E-02.
  Using Symmetric Orthogonalization.

  SCF Guess: Orbitals guess was supplied from a previous computation.

  ==> Iterations <==

                           Total Energy        Delta E     RMS |[F,P]|

   @DF-UKS iter   0:  -473.27523901995909   -4.73275e+02   1.25512e-04 
   @DF-UKS iter   1:  -473.27456048074083    6.78539e-04   2.15411e-05 DIIS
   @DF-UKS iter   2:  -473.27456050233593   -2.15951e-08   2.29890e-05 DIIS
   @DF-UKS iter   3:  -473.27456058462889   -8.22930e-08   4.62565e-06 DIIS
   @DF-UKS iter   4:  -473.27456058923912   -4.61023e-09   1.76860e-06 DIIS
   @DF-UKS iter   5:  -473.27456059010336   -8.64247e-10   3.29618e-07 DIIS
   @DF-UKS iter   6:  -473.27456059018164   -7.82734e-11   1.19886e-07 DIIS
   @DF-UKS iter   7:  -473.27456059019170   -1.00613e-11   2.61815e-08 DIIS
   @DF-UKS iter   8:  -473.27456059019249   -7.95808e-13   5.66221e-09 DIIS
  Energy and wave function converged.


  ==> Post-Iterations <==

   @Spin Contamination Metric:   8.487400857E-03
   @S^2 Expected:                2.000000000E+00
   @S^2 Observed:                2.008487401E+00
   @S   Expected:                1.000000000E+00
   @S   Observed:                1.000000000E+00

    Orbital Energies [Eh]
    ---------------------

    Alpha Occupied:                                                       

       1A1   -88.958326     2A1   -19.297183     3A1    -8.121816  
       4A1    -6.076477     1B1    -6.075533     1B2    -6.075533  
       5A1    -1.219344     6A1    -0.805022     2B2    -0.565367  
       2B1    -0.565367     7A1    -0.556380     3B2    -0.357175  
       3B1    -0.357175  

    Alpha Virtual:                                                        

       8A1     0.117601     9A1     0.542665     4B2     0.546979  
       4B1     0.546979     1A2     0.570210    10A1     0.570210  
      11A1     0.589949     5B1     0.638444     5B2     0.638444  
      12A1     0.858152     6B2     1.076534     6B1     1.076534  
      13A1     1.163377    14A1     1.736878    15A1     2.632938  
       2A2     2.632941     7B2     2.763020     7B1     2.763020  
      16A1     3.284031     3A2     4.459889    17A1     4.459892  
       8B2     4.556060     8B1     4.556060    18A1     4.678908  

    Beta Occupied:                                                        

       1A1   -88.952204     2A1   -19.277631     3A1    -8.115803  
       4A1    -6.072810     1B1    -6.062842     1B2    -6.062842  
       5A1    -1.175306     6A1    -0.732567     7A1    -0.521475  
       2B1    -0.484335     2B2    -0.484335  

    Beta Virtual:                                                         

       3B1    -0.024834     3B2    -0.024834     8A1     0.139864  
       9A1     0.562015     4B2     0.570395     4B1     0.570395  
      10A1     0.601228    11A1     0.631587     1A2     0.631588  
       5B1     0.687268     5B2     0.687268    12A1     0.879461  
       6B1     1.118474     6B2     1.118474    13A1     1.186619  
      14A1     1.762973    15A1     2.696745     2A2     2.696745  
       7B1     2.800335     7B2     2.800335    16A1     3.315812  
       3A2     4.469825    17A1     4.469831     8B2     4.562289  
       8B1     4.562289    18A1     4.683971  

    Final Occupation by Irrep:
             A1    A2    B1    B2 
    DOCC [     7,    0,    2,    2 ]
    SOCC [     0,    0,    1,    1 ]

  @DF-UKS Final Energy:  -473.27456059019249

   => Energetics <=

    Nuclear Repulsion Energy =             45.3938277784371635
    One-Electron Energy =                -743.0321204804949957
    Two-Electron Energy =                 249.7597912572561540
    DFT Exchange-Correlation Energy =     -25.4969906959356045
    Empirical Dispersion Energy =           0.0000000000000000
    VV10 Nonlocal Energy =                  0.1009315505446928
    Total Energy =                       -473.2745605901925501

  UHF NO Occupations:
  HONO-2 :    2 B1 1.9984173
  HONO-1 :    3 B2 1.0000000
  HONO-0 :    3 B1 1.0000000
  LUNO+0 :    4 B2 0.0015827
  LUNO+1 :    4 B1 0.0015827
  LUNO+2 :    8 A1 0.0008036
  LUNO+3 :    9 A1 0.0002082


Computation Completed


Properties will be evaluated at   0.000000,   0.000000,   0.000000 [a0]

Properties computed using the SCF density matrix

  Nuclear Dipole Moment: [e a0]
     X:     0.0000      Y:     0.0000      Z:    -0.0084

  Electronic Dipole Moment: [e a0]
     X:     0.0000      Y:     0.0000      Z:    -0.6190

  Dipole Moment: [e a0]
     X:     0.0000      Y:     0.0000      Z:    -0.6273     Total:     0.6273

  Dipole Moment: [D]
     X:     0.0000      Y:     0.0000      Z:    -1.5945     Total:     1.5945


*** tstop() called on bp1-compute00107.data.bp.acrc.priv at Tue Apr 27 18:08:14 2021
Module time:
	user time   =      53.82 seconds =       0.90 minutes
	system time =       2.68 seconds =       0.04 minutes
	total time  =          3 seconds =       0.05 minutes
Total time:
	user time   =     416.40 seconds =       6.94 minutes
	system time =      22.00 seconds =       0.37 minutes
	total time  =         19 seconds =       0.32 minutes

         ----------------------------------------------------------
                                   FINDIF
                     R. A. King and Jonathon Misiewicz
         ---------------------------------------------------------

  Computing gradient from energies.
    Using 3-point formula.
    Energy without displacement: -473.2745656756
    Check energies below for precision!
    Forces are for mass-weighted, symmetry-adapted cartesians (in au).

     Coord      Energy(-1)        Energy(+1)            Force
        0   -473.2745694071   -473.2745605902      0.0008816951


-------------------------------------------------------------
  ## New Matrix (Symmetry 0) ##
  Irrep: 1 Size: 2 x 3

                 1                   2                   3

    1     0.00000000000000     0.00000000000000     0.00287887987534
    2     0.00000000000000     0.00000000000000    -0.00287887987534




			-----------------------------------------
			 OPTKING 2.0: for geometry optimizations 
			  - R.A. King,  Bethel University        
			-----------------------------------------
	At level 1: Red. Int., RFO, no backsteps, dynamic trust

	Previous internal coordinate definitions found.
	---Fragment 1 Geometry and Gradient---
	 S           0.0000000000        0.0000000000       -0.9407808046
	 O           0.0000000000        0.0000000000        1.8805171244
	             0.0000000000        0.0000000000        0.0028788799
	             0.0000000000        0.0000000000       -0.0028788799

	---Fragment 1 Intrafragment Coordinates---
	 - Coordinate -           - BOHR/RAD -       - ANG/DEG -
	 R(1,2)           =         2.821298	       1.492967

	Current energy   :      -473.2745656756

	Energy change for the previous step:
		Projected    :        -0.0000511814
		Actual       :        -0.0000843453
	Energy ratio indicates good step: Trust radius increased to 1.000e+00.


	Performing BFGS update.
	Previous computed or guess Hessian on step 1.
	Steps to be used in Hessian update: 1
	Taking RFO optimization step.
	Going to follow RFO solution 1.
	Using RFO vector 1.
	Norm of target step-size    0.00489
	Projected energy change by RFO approximation:        -0.0000021230

	Back-transformation to cartesian coordinates...
	Successfully converged to displaced geometry.

	--- Internal Coordinate Step in ANG or DEG, aJ/ANG or AJ/DEG ---
	 ---------------------------------------------------------------------------
	   Coordinate                Previous        Force       Change         New 
	   ----------                --------       ------       ------       ------
	    1 R(1,2)          =      1.492967     0.023718     0.002587     1.495554
	 ---------------------------------------------------------------------------
	Successfully symmetrized geometry.

  ==> Convergence Check <==

  Measures of convergence in internal coordinates in au.
  Criteria marked as inactive (o), active & met (*), and active & unmet ( ).
  ---------------------------------------------------------------------------------------------
   Step     Total Energy     Delta E     MAX Force     RMS Force      MAX Disp      RMS Disp   
  ---------------------------------------------------------------------------------------------
    Convergence Criteria    1.00e-06 *    3.00e-04 *             o    1.20e-03 *             o
  ---------------------------------------------------------------------------------------------
      2    -473.27456568   -8.43e-05      2.88e-03      2.88e-03 o    4.89e-03      4.89e-03 o  ~
  ---------------------------------------------------------------------------------------------

	Writing optimization data to binary file.
	Structure for next step:
	Cartesian Geometry (in Angstrom)
	    S     0.0000000000   0.0000000000  -0.4991334120
	    O     0.0000000000   0.0000000000   0.9964204545
			--------------------------
			 OPTKING Finished Execution 
			--------------------------

    Structure for next step:
    Molecular point group: c2v
    Full point group: C_inf_v

    Geometry (in Angstrom), charge = 0, multiplicity = 3:

    S            0.000000000000     0.000000000000    -0.498702515946
    O            0.000000000000     0.000000000000     0.996851356441

gradient() will perform gradient computation by finite difference of analytic energies.

         ----------------------------------------------------------
                                   FINDIF
                     R. A. King and Jonathon Misiewicz
         ---------------------------------------------------------

  Using finite-differences of energies to determine gradients.
    Generating geometries for use with 3-point formula.
    Displacement size will be 5.00e-03.
    Number of atoms is 2.
    Number of symmetric SALCs is 1.
    Translations projected? 1. Rotations projected? 1.
    Number of geometries (including reference) is 3.

  //>>>>>>>>>>>>>>>>>>>>>>>>>>>>>>>>>>>//
  //    Loading displacement 1 of 3    //
  //<<<<<<<<<<<<<<<<<<<<<<<<<<<<<<<<<<<//

*** tstart() called on bp1-compute00107.data.bp.acrc.priv
*** at Tue Apr 27 18:08:14 2021

   => Loading Basis Set <=

    Name: CC-PV(D+D)Z
    Role: ORBITAL
    Keyword: BASIS
    atoms 1 entry S          line   613 file /work/zw18965/.conda/envs/p4env/share/psi4/basis/cc-pv_dpd_z.gbs 
    atoms 2 entry O          line   207 file /work/zw18965/.conda/envs/p4env/share/psi4/basis/cc-pv_dpd_z.gbs 


         ---------------------------------------------------------
                                   SCF
               by Justin Turney, Rob Parrish, Andy Simmonett
                          and Daniel G. A. Smith
                              UKS Reference
                       24 Threads, 137329 MiB Core
         ---------------------------------------------------------

  ==> Geometry <==

    Molecular point group: c2v
    Full point group: C_inf_v

    Geometry (in Angstrom), charge = 0, multiplicity = 3:

       Center              X                  Y                   Z               Mass       
    ------------   -----------------  -----------------  -----------------  -----------------
         S            0.000000000000     0.000000000000    -0.498702515946    31.972071174400
         O            0.000000000000     0.000000000000     0.996851356441    15.994914619570

  Running in c2v symmetry.

  Rotational constants: A = ************  B =      0.70694  C =      0.70694 [cm^-1]
  Rotational constants: A = ************  B =  21193.50601  C =  21193.50601 [MHz]
  Nuclear repulsion =   45.290700800788912

  Charge       = 0
  Multiplicity = 3
  Electrons    = 24
  Nalpha       = 13
  Nbeta        = 11

  ==> Algorithm <==

  SCF Algorithm Type is DF.
  DIIS enabled.
  MOM disabled.
  Fractional occupation disabled.
  Guess Type is READ.
  Energy threshold   = 1.00e-08
  Density threshold  = 1.00e-08
  Integral threshold = 0.00e+00

  ==> Primary Basis <==

  Basis Set: CC-PV(D+D)Z
    Blend: CC-PV(D+D)Z
    Number of shells: 15
    Number of basis function: 37
    Number of Cartesian functions: 40
    Spherical Harmonics?: true
    Max angular momentum: 2

  ==> DFT Potential <==

   => Composite Functional: WB97X-V <= 

    wB97X-V Hyb-GGA Exchange-Correlation Functional

    N. Mardirossian and M. Head-Gordon, Phys. Chem. Chem. Phys. 16, 9904 (2014)

    Deriv               =              1
    GGA                 =           TRUE
    Meta                =          FALSE

    Exchange Hybrid     =           TRUE
    MP2 Hybrid          =          FALSE

   => Exchange-Correlation Functionals <=

    1.0000   wB97X-V range-separated functional

   => Exact (HF) Exchange <=

    0.8330            HF,LR [omega = 0.3000]
    0.1670               HF 

   => VV10 Non-Local Parameters <=

    VV10 B              =     6.0000E+00
    VV10 C              =     1.0000E-02

   => Molecular Quadrature <=

    Radial Scheme          =       TREUTLER
    Pruning Scheme         =           FLAT
    Nuclear Scheme         =       TREUTLER

    BS radius alpha        =              1
    Pruning alpha          =              1
    Radial Points          =             75
    Spherical Points       =            302
    Total Points           =          42532
    Total Blocks           =            381
    Max Points             =            256
    Max Functions          =             37

   => Loading Basis Set <=

    Name: (CC-PV(D+D)Z AUX)
    Role: JKFIT
    Keyword: DF_BASIS_SCF
    atoms 1 entry S          line   593 file /work/zw18965/.conda/envs/p4env/share/psi4/basis/cc-pvdz-jkfit.gbs 
    atoms 2 entry O          line   221 file /work/zw18965/.conda/envs/p4env/share/psi4/basis/cc-pvdz-jkfit.gbs 

   => Loading Basis Set <=

    Name: CC-PV(D+D)Z
    Role: ORBITAL
    Keyword: BASIS
[...]
      14A1     1.762834    15A1     2.697027     2A2     2.697028  
       7B2     2.798266     7B1     2.798266    16A1     3.309877  
       3A2     4.469616    17A1     4.469622     8B2     4.561458  
       8B1     4.561458    18A1     4.684986  

    Final Occupation by Irrep:
             A1    A2    B1    B2 
    DOCC [     7,    0,    2,    2 ]
    SOCC [     0,    0,    1,    1 ]

  @DF-UKS Final Energy:  -473.27457232865959

   => Energetics <=

    Nuclear Repulsion Energy =             45.2661741791588597
    One-Electron Energy =                -742.7800579960148752
    Two-Electron Energy =                 249.6329960522817544
    DFT Exchange-Correlation Energy =     -25.4946205101696464
    Empirical Dispersion Energy =           0.0000000000000000
    VV10 Nonlocal Energy =                  0.1009359460842770
    Total Energy =                       -473.2745723286595876

  UHF NO Occupations:
  HONO-2 :    2 B1 1.9984077
  HONO-1 :    3 B2 1.0000000
  HONO-0 :    3 B1 1.0000000
  LUNO+0 :    4 B1 0.0015923
  LUNO+1 :    4 B2 0.0015923
  LUNO+2 :    8 A1 0.0008055
  LUNO+3 :    9 A1 0.0002093


Computation Completed


Properties will be evaluated at   0.000000,   0.000000,   0.000000 [a0]

Properties computed using the SCF density matrix

  Nuclear Dipole Moment: [e a0]
     X:     0.0000      Y:     0.0000      Z:    -0.0084

  Electronic Dipole Moment: [e a0]
     X:     0.0000      Y:     0.0000      Z:    -0.6213

  Dipole Moment: [e a0]
     X:     0.0000      Y:     0.0000      Z:    -0.6296     Total:     0.6296

  Dipole Moment: [D]
     X:     0.0000      Y:     0.0000      Z:    -1.6004     Total:     1.6004


*** tstop() called on bp1-compute00107.data.bp.acrc.priv at Tue Apr 27 18:08:40 2021
Module time:
	user time   =      90.57 seconds =       1.51 minutes
	system time =       4.59 seconds =       0.08 minutes
	total time  =          4 seconds =       0.07 minutes
Total time:
	user time   =    1006.23 seconds =      16.77 minutes
	system time =      52.42 seconds =       0.87 minutes
	total time  =         45 seconds =       0.75 minutes

  //>>>>>>>>>>>>>>>>>>>>>>>>>>>>>>>>>>>//
  //    Loading displacement 3 of 3    //
  //<<<<<<<<<<<<<<<<<<<<<<<<<<<<<<<<<<<//

*** tstart() called on bp1-compute00107.data.bp.acrc.priv
*** at Tue Apr 27 18:08:40 2021

   => Loading Basis Set <=

    Name: CC-PV(D+D)Z
    Role: ORBITAL
    Keyword: BASIS
    atoms 1 entry S          line   613 file /work/zw18965/.conda/envs/p4env/share/psi4/basis/cc-pv_dpd_z.gbs 
    atoms 2 entry O          line   207 file /work/zw18965/.conda/envs/p4env/share/psi4/basis/cc-pv_dpd_z.gbs 


         ---------------------------------------------------------
                                   SCF
               by Justin Turney, Rob Parrish, Andy Simmonett
                          and Daniel G. A. Smith
                              UKS Reference
                       24 Threads, 137329 MiB Core
         ---------------------------------------------------------

  ==> Geometry <==

    Molecular point group: c2v
    Full point group: C_inf_v

    Geometry (in Angstrom), charge = 0, multiplicity = 3:

       Center              X                  Y                   Z               Mass       
    ------------   -----------------  -----------------  -----------------  -----------------
         S            0.000000000000     0.000000000000    -0.498432303406    31.972071174400
         O            0.000000000000     0.000000000000     0.996311231359    15.994914619570

  Running in c2v symmetry.

  Rotational constants: A = ************  B =      0.70771  C =      0.70771 [cm^-1]
  Rotational constants: A = ************  B =  21216.49129  C =  21216.49129 [MHz]
  Nuclear repulsion =   45.315254015401358

  Charge       = 0
  Multiplicity = 3
  Electrons    = 24
  Nalpha       = 13
  Nbeta        = 11

  ==> Algorithm <==

  SCF Algorithm Type is DF.
  DIIS enabled.
  MOM disabled.
  Fractional occupation disabled.
  Guess Type is SAD.
  Energy threshold   = 1.00e-10
  Density threshold  = 1.00e-10
  Integral threshold = 0.00e+00

  ==> Primary Basis <==

  Basis Set: CC-PV(D+D)Z
    Blend: CC-PV(D+D)Z
    Number of shells: 15
    Number of basis function: 37
    Number of Cartesian functions: 40
    Spherical Harmonics?: true
    Max angular momentum: 2

  ==> DFT Potential <==

   => Composite Functional: WB97X-V <= 

    wB97X-V Hyb-GGA Exchange-Correlation Functional

    N. Mardirossian and M. Head-Gordon, Phys. Chem. Chem. Phys. 16, 9904 (2014)

    Deriv               =              1
    GGA                 =           TRUE
    Meta                =          FALSE

    Exchange Hybrid     =           TRUE
    MP2 Hybrid          =          FALSE

   => Exchange-Correlation Functionals <=

    1.0000   wB97X-V range-separated functional

   => Exact (HF) Exchange <=

    0.8330            HF,LR [omega = 0.3000]
    0.1670               HF 

   => VV10 Non-Local Parameters <=

    VV10 B              =     6.0000E+00
    VV10 C              =     1.0000E-02

   => Molecular Quadrature <=

    Radial Scheme          =       TREUTLER
    Pruning Scheme         =           FLAT
    Nuclear Scheme         =       TREUTLER

    BS radius alpha        =              1
    Pruning alpha          =              1
    Radial Points          =             75
    Spherical Points       =            302
    Total Points           =          42532
    Total Blocks           =            382
    Max Points             =            256
    Max Functions          =             37

   => Loading Basis Set <=

    Name: (CC-PV(D+D)Z AUX)
    Role: JKFIT
    Keyword: DF_BASIS_SCF
    atoms 1 entry S          line   593 file /work/zw18965/.conda/envs/p4env/share/psi4/basis/cc-pvdz-jkfit.gbs 
    atoms 2 entry O          line   221 file /work/zw18965/.conda/envs/p4env/share/psi4/basis/cc-pvdz-jkfit.gbs 

  ==> Pre-Iterations <==

   -------------------------------------------------------
    Irrep   Nso     Nmo     Nalpha   Nbeta   Ndocc  Nsocc
   -------------------------------------------------------
     A1        18      18       0       0       0       0
     A2         3       3       0       0       0       0
     B1         8       8       0       0       0       0
     B2         8       8       0       0       0       0
   -------------------------------------------------------
    Total      37      37      13      11      11       2
   -------------------------------------------------------

  ==> Integral Setup <==

  ==> DiskDFJK: Density-Fitted J/K Matrices <==

    J tasked:                  Yes
    K tasked:                  Yes
    wK tasked:                 Yes
    Omega:               3.000E-01
    OpenMP threads:             24
    Integrals threads:          24
    Memory [MiB]:           102952
    Algorithm:                Core
    Integral Cache:           NONE
    Schwarz Cutoff:          1E-12
    Fitting Condition:       1E-10

   => Auxiliary Basis Set <=

  Basis Set: (CC-PV(D+D)Z AUX)
    Blend: CC-PVDZ-JKFIT
    Number of shells: 60
    Number of basis function: 182
    Number of Cartesian functions: 211
    Spherical Harmonics?: true
    Max angular momentum: 3

  Cached 100.0% of DFT collocation blocks in 0.043 [GiB].

  Minimum eigenvalue in the overlap matrix is 3.0866771736E-02.
  Using Symmetric Orthogonalization.

  SCF Guess: Superposition of Atomic Densities via on-the-fly atomic UHF.

  ==> Iterations <==

                           Total Energy        Delta E     RMS |[F,P]|

   @DF-UKS iter SAD:  -472.82514038795534   -4.72825e+02   0.00000e+00 
   @DF-UKS iter   1:  -473.20584491992946   -3.80705e-01   1.84752e-02 DIIS
   @DF-UKS iter   2:  -473.14301522059822    6.28297e-02   2.71008e-02 DIIS
   @DF-UKS iter   3:  -473.27361406115887   -1.30599e-01   1.64224e-03 DIIS
   @DF-UKS iter   4:  -473.27434320877347   -7.29148e-04   6.96619e-04 DIIS
   @DF-UKS iter   5:  -473.27453291362247   -1.89705e-04   2.35563e-04 DIIS
   @DF-UKS iter   6:  -473.27456555594927   -3.26423e-05   8.72976e-05 DIIS
   @DF-UKS iter   7:  -473.27457181269403   -6.25674e-06   2.41864e-05 DIIS
   @DF-UKS iter   8:  -473.27457208282527   -2.70131e-07   5.66309e-06 DIIS
   @DF-UKS iter   9:  -473.27457209564727   -1.28220e-08   5.03346e-07 DIIS
   @DF-UKS iter  10:  -473.27457209576232   -1.15051e-10   9.07353e-08 DIIS
   @DF-UKS iter  11:  -473.27457209576772   -5.40012e-12   2.53629e-08 DIIS
   @DF-UKS iter  12:  -473.27457209576795   -2.27374e-13   2.96788e-09 DIIS
   @DF-UKS iter  13:  -473.27457209576812   -1.70530e-13   7.71425e-10 DIIS
   @DF-UKS iter  14:  -473.27457209576789    2.27374e-13   2.23544e-10 DIIS
   @DF-UKS iter  15:  -473.27457209576801   -1.13687e-13   6.30255e-11 DIIS
  Energy and wave function converged.


  ==> Post-Iterations <==

   @Spin Contamination Metric:   8.515949961E-03
   @S^2 Expected:                2.000000000E+00
   @S^2 Observed:                2.008515950E+00
   @S   Expected:                1.000000000E+00
   @S   Observed:                1.000000000E+00

    Orbital Energies [Eh]
    ---------------------

    Alpha Occupied:                                                       

       1A1   -88.958522     2A1   -19.297568     3A1    -8.121942  
       4A1    -6.076609     1B1    -6.075664     1B2    -6.075664  
       5A1    -1.218321     6A1    -0.805425     2B2    -0.564860  
       2B1    -0.564860     7A1    -0.556166     3B1    -0.357619  
       3B2    -0.357619  

    Alpha Virtual:                                                        

       8A1     0.116893     9A1     0.542560     4B1     0.547019  
       4B2     0.547019     1A2     0.570240    10A1     0.570240  
      11A1     0.589261     5B1     0.637791     5B2     0.637791  
      12A1     0.857508     6B2     1.076586     6B1     1.076586  
      13A1     1.161745    14A1     1.736747    15A1     2.632995  
       2A2     2.632998     7B2     2.761672     7B1     2.761672  
      16A1     3.280336     3A2     4.459769    17A1     4.459772  
       8B1     4.555564     8B2     4.555564    18A1     4.679524  

    Beta Occupied:                                                        

       1A1   -88.952401     2A1   -19.277983     3A1    -8.115931  
       4A1    -6.072945     1B2    -6.062974     1B1    -6.062974  
       5A1    -1.174139     6A1    -0.733001     7A1    -0.521304  
       2B1    -0.483643     2B2    -0.483643  

    Beta Virtual:                                                         

       3B1    -0.025290     3B2    -0.025290     8A1     0.139202  
       9A1     0.561865     4B2     0.570433     4B1     0.570433  
      10A1     0.600483    11A1     0.631585     1A2     0.631586  
       5B1     0.686559     5B2     0.686559    12A1     0.878971  
       6B1     1.118603     6B2     1.118603    13A1     1.184907  
      14A1     1.762889    15A1     2.696919     2A2     2.696920  
       7B1     2.799059     7B2     2.799059    16A1     3.312169  
       3A2     4.469696    17A1     4.469702     8B1     4.561780  
       8B2     4.561780    18A1     4.684592  

    Final Occupation by Irrep:
             A1    A2    B1    B2 
    DOCC [     7,    0,    2,    2 ]
    SOCC [     0,    0,    1,    1 ]

  @DF-UKS Final Energy:  -473.27457209576801

   => Energetics <=

    Nuclear Repulsion Energy =             45.3152540154013579
    One-Electron Energy =                -742.8769824905120913
    Two-Electron Energy =                 249.6817530691464526
    DFT Exchange-Correlation Energy =     -25.4955309410645157
    Empirical Dispersion Energy =           0.0000000000000000
    VV10 Nonlocal Energy =                  0.1009342512607873
    Total Energy =                       -473.2745720957680078

  UHF NO Occupations:
  HONO-2 :    2 B2 1.9984114
  HONO-1 :    3 B1 1.0000000
  HONO-0 :    3 B2 1.0000000
  LUNO+0 :    4 B2 0.0015886
  LUNO+1 :    4 B1 0.0015886
  LUNO+2 :    8 A1 0.0008048
  LUNO+3 :    9 A1 0.0002089


Computation Completed


Properties will be evaluated at   0.000000,   0.000000,   0.000000 [a0]

Properties computed using the SCF density matrix

  Nuclear Dipole Moment: [e a0]
     X:     0.0000      Y:     0.0000      Z:    -0.0084

  Electronic Dipole Moment: [e a0]
     X:     0.0000      Y:     0.0000      Z:    -0.6204

  Dipole Moment: [e a0]
     X:     0.0000      Y:     0.0000      Z:    -0.6288     Total:     0.6288

  Dipole Moment: [D]
     X:     0.0000      Y:     0.0000      Z:    -1.5981     Total:     1.5981


*** tstop() called on bp1-compute00107.data.bp.acrc.priv at Tue Apr 27 18:08:44 2021
Module time:
	user time   =      89.98 seconds =       1.50 minutes
	system time =       4.47 seconds =       0.07 minutes
	total time  =          4 seconds =       0.07 minutes
Total time:
	user time   =    1096.34 seconds =      18.27 minutes
	system time =      56.90 seconds =       0.95 minutes
	total time  =         49 seconds =       0.82 minutes

         ----------------------------------------------------------
                                   FINDIF
                     R. A. King and Jonathon Misiewicz
         ---------------------------------------------------------

  Computing second-derivative from energies using projected, 
  symmetry-adapted, cartesian coordinates.

  3 energies passed in, including the reference geometry.
    Using 3-point formula.
    Energy without displacement: -473.2745728793
    Check energies below for precision!
    0: -1 :      -473.2745723287
    0: 1  :      -473.2745720958

-------------------------------------------------------------


  ==> Harmonic Vibrational Analysis <==

  non-mass-weighted Hessian:       Symmetric? True   Hermitian? True   Lin Dep Dim?  5 (0)
  projection of translations (True) and rotations (True) removed 5 degrees of freedom (5)
  total projector:                 Symmetric? True   Hermitian? True   Lin Dep Dim?  5 (5)
  mass-weighted Hessian:           Symmetric? True   Hermitian? True   Lin Dep Dim?  5 (0)
  pre-proj  low-frequency mode:    0.0000  [cm^-1]
  pre-proj  low-frequency mode:    0.0000  [cm^-1]
  pre-proj  low-frequency mode:    0.0000  [cm^-1]
  pre-proj  low-frequency mode:    0.0000  [cm^-1]
  pre-proj  low-frequency mode:    0.0000  [cm^-1]
  pre-proj  all modes:['0.0000' '0.0000' '0.0000' '0.0000' '0.0000' '1187.5579']
  projected mass-weighted Hessian: Symmetric? True   Hermitian? True   Lin Dep Dim?  5 (5)
  post-proj low-frequency mode:    0.0000  [cm^-1] (TR)
  post-proj low-frequency mode:    0.0000  [cm^-1] (TR)
  post-proj low-frequency mode:    0.0000  [cm^-1] (TR)
  post-proj low-frequency mode:    0.0000  [cm^-1] (TR)
  post-proj low-frequency mode:    0.0000  [cm^-1] (TR)
  post-proj  all modes:['0.0000' '0.0000' '0.0000' '0.0000' '0.0000' '1187.5579']

  Vibration                       6           
  Freq [cm^-1]                1187.5579       
  Irrep                           A1          
  Reduced mass [u]             19.1932        
  Force const [mDyne/A]        15.9480        
  Turning point v=0 [a0]        0.0727        
  RMS dev v=0 [a0 u^1/2]        0.2251        
  Char temp [K]               1708.6314       
  ----------------------------------------------------------------------------------
      1   S                0.00  0.00 -0.45   
      2   O                0.00  0.00  0.89   

  ==> Thermochemistry Components <==

  Entropy, S
    Electronic S            2.183 [cal/(mol K)]        9.134 [J/(mol K)]       0.00347910 [mEh/K] (multiplicity = 3)
    Translational S        37.528 [cal/(mol K)]      157.018 [J/(mol K)]       0.05980487 [mEh/K] (mol. weight = 47.9670 [u], P = 101325.00 [Pa])
    Rotational S           13.276 [cal/(mol K)]       55.546 [J/(mol K)]       0.02115624 [mEh/K] (symmetry no. = 1)
    Vibrational S           0.044 [cal/(mol K)]        0.182 [J/(mol K)]       0.00006937 [mEh/K]
  Total S                  53.031 [cal/(mol K)]      221.880 [J/(mol K)]       0.08450957 [mEh/K]
  Correction S              0.000 [cal/(mol K)]        0.000 [J/(mol K)]       0.00000000 [mEh/K]

  Constant volume heat capacity, Cv
    Electronic Cv           0.000 [cal/(mol K)]        0.000 [J/(mol K)]       0.00000000 [mEh/K]
    Translational Cv        2.981 [cal/(mol K)]       12.472 [J/(mol K)]       0.00475022 [mEh/K]
    Rotational Cv           1.987 [cal/(mol K)]        8.314 [J/(mol K)]       0.00316681 [mEh/K]
    Vibrational Cv          0.213 [cal/(mol K)]        0.892 [J/(mol K)]       0.00033965 [mEh/K]
  Total Cv                  5.181 [cal/(mol K)]       21.678 [J/(mol K)]       0.00825667 [mEh/K]
  Correction Cv             0.000 [cal/(mol K)]        0.000 [J/(mol K)]       0.00000000 [mEh/K]

  Constant pressure heat capacity, Cp
    Electronic Cp           0.000 [cal/(mol K)]        0.000 [J/(mol K)]       0.00000000 [mEh/K]
    Translational Cp        4.968 [cal/(mol K)]       20.786 [J/(mol K)]       0.00791703 [mEh/K]
    Rotational Cp           1.987 [cal/(mol K)]        8.314 [J/(mol K)]       0.00316681 [mEh/K]
    Vibrational Cp          0.213 [cal/(mol K)]        0.892 [J/(mol K)]       0.00033965 [mEh/K]
  Total Cp                  7.168 [cal/(mol K)]       29.992 [J/(mol K)]       0.01142348 [mEh/K]
  Correction Cp             0.000 [cal/(mol K)]        0.000 [J/(mol K)]       0.00000000 [mEh/K]

  ==> Thermochemistry Energy Analysis <==

  Raw electronic energy, E0
  Total E0, Electronic energy at well bottom at 0 [K]                 -473.27457288 [Eh]

  Zero-point energy, ZPE_vib = Sum_i nu_i / 2
    Electronic ZPE          0.000 [kcal/mol]        0.000 [kJ/mol]       0.00000000 [Eh]
    Translational ZPE       0.000 [kcal/mol]        0.000 [kJ/mol]       0.00000000 [Eh]
    Rotational ZPE          0.000 [kcal/mol]        0.000 [kJ/mol]       0.00000000 [Eh]
    Vibrational ZPE         1.698 [kcal/mol]        7.103 [kJ/mol]       0.00270546 [Eh]         593.779 [cm^-1]
  Correction ZPE            1.698 [kcal/mol]        7.103 [kJ/mol]       0.00270546 [Eh]         593.779 [cm^-1]
  Total ZPE, Electronic energy at 0 [K]                               -473.27186742 [Eh]

  Thermal Energy, E (includes ZPE)
    Electronic E            0.000 [kcal/mol]        0.000 [kJ/mol]       0.00000000 [Eh]
    Translational E         0.889 [kcal/mol]        3.718 [kJ/mol]       0.00141628 [Eh]
    Rotational E            0.592 [kcal/mol]        2.479 [kJ/mol]       0.00094418 [Eh]
    Vibrational E           1.709 [kcal/mol]        7.149 [kJ/mol]       0.00272307 [Eh]
  Correction E              3.190 [kcal/mol]       13.347 [kJ/mol]       0.00508353 [Eh]
  Total E, Electronic energy at  298.15 [K]                           -473.26948935 [Eh]

  Enthalpy, H_trans = E_trans + k_B * T
    Electronic H            0.000 [kcal/mol]        0.000 [kJ/mol]       0.00000000 [Eh]
    Translational H         1.481 [kcal/mol]        6.197 [kJ/mol]       0.00236046 [Eh]
    Rotational H            0.592 [kcal/mol]        2.479 [kJ/mol]       0.00094418 [Eh]
    Vibrational H           1.709 [kcal/mol]        7.149 [kJ/mol]       0.00272307 [Eh]
  Correction H              3.782 [kcal/mol]       15.826 [kJ/mol]       0.00602771 [Eh]
  Total H, Enthalpy at  298.15 [K]                                    -473.26854516 [Eh]

  Gibbs free energy, G = H - T * S
    Electronic G           -0.651 [kcal/mol]       -2.723 [kJ/mol]      -0.00103729 [Eh]
    Translational G        -9.708 [kcal/mol]      -40.617 [kJ/mol]      -0.01547036 [Eh]
    Rotational G           -3.366 [kcal/mol]      -14.082 [kJ/mol]      -0.00536355 [Eh]
    Vibrational G           1.696 [kcal/mol]        7.095 [kJ/mol]       0.00270239 [Eh]
  Correction G            -12.029 [kcal/mol]      -50.328 [kJ/mol]      -0.01916881 [Eh]
  Total G, Free enthalpy at  298.15 [K]                               -473.29374169 [Eh]

    Psi4 stopped on: Tuesday, 27 April 2021 06:08PM
    Psi4 wall time for execution: 0:00:49.15

*** Psi4 exiting successfully. Buy a developer a beer!
