
    -----------------------------------------------------------------------
          Psi4: An Open-Source Ab Initio Electronic Structure Package
                               Psi4 1.3.2 release

                         Git: Rev {HEAD} ecbda83 


    R. M. Parrish, L. A. Burns, D. G. A. Smith, A. C. Simmonett,
    A. E. DePrince III, E. G. Hohenstein, U. Bozkaya, A. Yu. Sokolov,
    R. Di Remigio, R. M. Richard, J. F. Gonthier, A. M. James,
    H. R. McAlexander, A. Kumar, M. Saitow, X. Wang, B. P. Pritchard,
    P. Verma, H. F. Schaefer III, K. Patkowski, R. A. King, E. F. Valeev,
    F. A. Evangelista, J. M. Turney, T. D. Crawford, and C. D. Sherrill,
    J. Chem. Theory Comput. 13(7) pp 3185--3197 (2017).
    (doi: 10.1021/acs.jctc.7b00174)


                         Additional Contributions by
    P. Kraus, H. Kruse, M. H. Lechner, M. C. Schieber, R. A. Shaw,
    A. Alenaizan, R. Galvelis, Z. L. Glick, S. Lehtola, and J. P. Misiewicz

    -----------------------------------------------------------------------


    Psi4 started on: Tuesday, 27 April 2021 04:44PM

    Process ID: 74328
    Host:       bp1-compute00149.data.bp.acrc.priv
    PSIDATADIR: /work/zw18965/.conda/envs/p4env/share/psi4
    Memory:     500.0 MiB
    Threads:    24
    
  ==> Input File <==

--------------------------------------------------------------------------
memory 144 GB

molecule {
0 1
C 0.0000000000 0.0000000000 0.0000000000
Cl 0.0000000000 0.0000000000 1.7182578700
Cl 1.6229007750 0.0000000000 -0.5644494507
}

set dynamic_level 1
set basis aug-cc-pV(Q+d)Z
 
optimize("wB97M-V")
frequencies("wB97M-V")
--------------------------------------------------------------------------

  Memory set to 134.110 GiB by Python driver.
gradient() will perform gradient computation by finite difference of analytic energies.

         ----------------------------------------------------------
                                   FINDIF
                     R. A. King and Jonathon Misiewicz
         ---------------------------------------------------------

  Using finite-differences of energies to determine gradients.
    Generating geometries for use with 3-point formula.
    Displacement size will be 5.00e-03.
    Number of atoms is 3.
    Number of symmetric SALCs is 2.
    Translations projected? 1. Rotations projected? 1.
    Number of geometries (including reference) is 5.

  //>>>>>>>>>>>>>>>>>>>>>>>>>>>>>>>>>>>//
  //    Loading displacement 1 of 5    //
  //<<<<<<<<<<<<<<<<<<<<<<<<<<<<<<<<<<<//

*** tstart() called on bp1-compute00149.data.bp.acrc.priv
*** at Tue Apr 27 16:44:21 2021

   => Loading Basis Set <=

    Name: AUG-CC-PV(Q+D)Z
    Role: ORBITAL
    Keyword: BASIS
    atoms 1   entry C          line   319 file /work/zw18965/.conda/envs/p4env/share/psi4/basis/aug-cc-pv_qpd_z.gbs 
    atoms 2-3 entry CL         line  1246 file /work/zw18965/.conda/envs/p4env/share/psi4/basis/aug-cc-pv_qpd_z.gbs 


         ---------------------------------------------------------
                                   SCF
               by Justin Turney, Rob Parrish, Andy Simmonett
                          and Daniel G. A. Smith
                              RKS Reference
                       24 Threads, 137329 MiB Core
         ---------------------------------------------------------

  ==> Geometry <==

    Molecular point group: c2v
    Full point group: C2v

    Geometry (in Angstrom), charge = 0, multiplicity = 1:

       Center              X                  Y                   Z               Mass       
    ------------   -----------------  -----------------  -----------------  -----------------
         C            0.000000000000     0.000000000000    -0.849813461927    12.000000000000
         CL          -0.000000000000     1.400407051313     0.145812069327    34.968852682000
         CL           0.000000000000    -1.400407051313     0.145812069327    34.968852682000

  Running in c2v symmetry.

  Rotational constants: A =      1.66033  B =      0.12291  C =      0.11444 [cm^-1]
  Rotational constants: A =  49775.57916  B =   3684.65850  C =   3430.69950 [MHz]
  Nuclear repulsion =  117.429285339600526

  Charge       = 0
  Multiplicity = 1
  Electrons    = 40
  Nalpha       = 20
  Nbeta        = 20

  ==> Algorithm <==

  SCF Algorithm Type is DF.
  DIIS enabled.
  MOM disabled.
  Fractional occupation disabled.
  Guess Type is SAD.
  Energy threshold   = 1.00e-08
  Density threshold  = 1.00e-08
  Integral threshold = 0.00e+00

  ==> Primary Basis <==

  Basis Set: AUG-CC-PV(Q+D)Z
    Blend: AUG-CC-PV(Q+D)Z
    Number of shells: 66
    Number of basis function: 258
    Number of Cartesian functions: 335
    Spherical Harmonics?: true
    Max angular momentum: 4

  ==> DFT Potential <==

   => Composite Functional: WB97M-V <= 

    wB97M-V Hyb-GGA Exchange-Correlation Functional

    N. Mardirossian and M. Head-Gordon, J. Chem. Phys. 144, 214110 (2016)

    Deriv               =              1
    GGA                 =           TRUE
    Meta                =           TRUE

    Exchange Hybrid     =           TRUE
    MP2 Hybrid          =          FALSE

   => Exchange-Correlation Functionals <=

    1.0000   wB97M-V exchange-correlation functional

   => Exact (HF) Exchange <=

    0.8500            HF,LR [omega = 0.3000]
    0.1500               HF 

   => VV10 Non-Local Parameters <=

    VV10 B              =     6.0000E+00
    VV10 C              =     1.0000E-02

   => Molecular Quadrature <=

    Radial Scheme          =       TREUTLER
    Pruning Scheme         =           FLAT
    Nuclear Scheme         =       TREUTLER

    BS radius alpha        =              1
    Pruning alpha          =              1
    Radial Points          =             75
    Spherical Points       =            302
    Total Points           =          67950
    Total Blocks           =            609
    Max Points             =            256
    Max Functions          =            253

   => Loading Basis Set <=

    Name: (AUG-CC-PV(Q+D)Z AUX)
    Role: JKFIT
    Keyword: DF_BASIS_SCF
    atoms 1   entry C          line   178 file /work/zw18965/.conda/envs/p4env/share/psi4/basis/aug-cc-pvqz-jkfit.gbs 
    atoms 2-3 entry CL         line   904 file /work/zw18965/.conda/envs/p4env/share/psi4/basis/aug-cc-pvqz-jkfit.gbs 

  ==> Pre-Iterations <==

   -------------------------------------------------------
    Irrep   Nso     Nmo     Nalpha   Nbeta   Ndocc  Nsocc
   -------------------------------------------------------
     A1        87      87       0       0       0       0
     A2        44      44       0       0       0       0
     B1        52      52       0       0       0       0
     B2        75      75       0       0       0       0
   -------------------------------------------------------
    Total     258     258      20      20      20       0
   -------------------------------------------------------

  ==> Integral Setup <==

  ==> DiskDFJK: Density-Fitted J/K Matrices <==

    J tasked:                  Yes
    K tasked:                  Yes
    wK tasked:                 Yes
    Omega:               3.000E-01
    OpenMP threads:             24
    Integrals threads:          24
    Memory [MiB]:           101887
    Algorithm:                Core
    Integral Cache:           NONE
    Schwarz Cutoff:          1E-12
    Fitting Condition:       1E-10

   => Auxiliary Basis Set <=

  Basis Set: (AUG-CC-PV(Q+D)Z AUX)
    Blend: AUG-CC-PVQZ-JKFIT
    Number of shells: 126
    Number of basis function: 510
    Number of Cartesian functions: 692
    Spherical Harmonics?: true
    Max angular momentum: 5

  Cached 100.0% of DFT collocation blocks in 1.083 [GiB].

  Minimum eigenvalue in the overlap matrix is 5.3344256939E-05.
  Using Symmetric Orthogonalization.

  SCF Guess: Superposition of Atomic Densities via on-the-fly atomic UHF.

  ==> Iterations <==

                           Total Energy        Delta E     RMS |[F,P]|

   @DF-RKS iter SAD:  -958.12717039929441   -9.58127e+02   0.00000e+00 
   @DF-RKS iter   1:  -958.38394363100394   -2.56773e-01   1.82222e-03 DIIS
   @DF-RKS iter   2:  -958.40583780212842   -2.18942e-02   6.15630e-04 DIIS
   @DF-RKS iter   3:  -958.40776602861979   -1.92823e-03   1.17513e-04 DIIS
   @DF-RKS iter   4:  -958.40796587829470   -1.99850e-04   6.55031e-05 DIIS
   @DF-RKS iter   5:  -958.40801603734076   -5.01590e-05   2.91516e-05 DIIS
   @DF-RKS iter   6:  -958.40802638282912   -1.03455e-05   7.77502e-06 DIIS
   @DF-RKS iter   7:  -958.40802750627097   -1.12344e-06   1.72267e-06 DIIS
   @DF-RKS iter   8:  -958.40802762289968   -1.16629e-07   5.95237e-07 DIIS
   @DF-RKS iter   9:  -958.40802763335239   -1.04527e-08   2.13893e-07 DIIS
   @DF-RKS iter  10:  -958.40802763467718   -1.32479e-09   6.07681e-08 DIIS
   @DF-RKS iter  11:  -958.40802763483669   -1.59503e-10   1.24119e-08 DIIS
   @DF-RKS iter  12:  -958.40802763484453   -7.84439e-12   3.01276e-09 DIIS
  Energy and wave function converged.


  ==> Post-Iterations <==

    Orbital Energies [Eh]
    ---------------------

    Doubly Occupied:                                                      

       1B2  -101.938278     1A1  -101.938277     2A1   -10.505112  
       2B2    -9.696408     3A1    -9.696399     3B2    -7.400099  
       4A1    -7.400099     1A2    -7.395583     1B1    -7.395581  
       5A1    -7.392451     4B2    -7.392450     6A1    -1.064008  
       5B2    -0.983003     7A1    -0.724112     6B2    -0.572007  
       8A1    -0.528644     2B1    -0.524448     2A2    -0.451841  
       7B2    -0.431728     9A1    -0.363505  

    Virtual:                                                              

       3B1    -0.042874    10A1     0.027533     8B2     0.035590  
      11A1     0.050500     4B1     0.058412    12A1     0.062992  
       9B2     0.078494     3A2     0.085992    13A1     0.088440  
       5B1     0.094219    10B2     0.113903    14A1     0.121404  
      11B2     0.139164    15A1     0.174673    12B2     0.185315  
       6B1     0.195457    16A1     0.210556     4A2     0.228029  
      13B2     0.242783    17A1     0.266314     7B1     0.273096  
      14B2     0.274324    18A1     0.278420     5A2     0.293606  
      19A1     0.301072     8B1     0.303294    15B2     0.313875  
      20A1     0.315715     6A2     0.328630    16B2     0.349388  
       9B1     0.381356    21A1     0.416732    10B1     0.462023  
      17B2     0.462546    22A1     0.463928     7A2     0.484197  
      23A1     0.488548    18B2     0.499978    11B1     0.511793  
       8A2     0.515670    24A1     0.519366    19B2     0.521431  
      20B2     0.549053    25A1     0.552266    12B1     0.565087  
       9A2     0.567221    26A1     0.571457    21B2     0.658310  
      27A1     0.699861    22B2     0.702981    28A1     0.722782  
      13B1     0.723818    23B2     0.753438    10A2     0.760144  
      29A1     0.762799    14B1     0.773580    15B1     0.818594  
      30A1     0.818930    24B2     0.839672    11A2     0.845417  
      31A1     0.952836    16B1     0.970575    25B2     0.984264  
      32A1     0.986890    12A2     0.988480    26B2     0.994689  
      13A2     1.031810    17B1     1.033610    27B2     1.037090  
      33A1     1.039176    34A1     1.052805    28B2     1.058523  
      35A1     1.094318    29B2     1.104122    18B1     1.104475  
      14A2     1.161659    30B2     1.206380    36A1     1.274565  
      19B1     1.337147    37A1     1.355774    38A1     1.410027  
      31B2     1.412968    20B1     1.423628    15A2     1.431833  
      32B2     1.487602    39A1     1.504893    16A2     1.509165  
      21B1     1.527787    40A1     1.560147    22B1     1.586611  
      41A1     1.592238    17A2     1.598090    42A1     1.631447  
      33B2     1.635151    34B2     1.682858    23B1     1.709106  
      43A1     1.737667    18A2     1.748955    24B1     1.752506  
      35B2     1.772333    44A1     1.773900    25B1     1.807803  
      19A2     1.813178    36B2     1.826278    37B2     1.888471  
      45A1     1.892651    38B2     1.915986    46A1     1.925964  
      26B1     1.932506    20A2     1.938340    21A2     1.979775  
      39B2     2.021967    22A2     2.025320    27B1     2.035589  
      40B2     2.046885    47A1     2.067589    48A1     2.096386  
      41B2     2.105049    49A1     2.118437    28B1     2.128827  
      29B1     2.174321    23A2     2.178719    42B2     2.208877  
      30B1     2.210605    50A1     2.232919    43B2     2.250085  
      24A2     2.295549    51A1     2.304945    44B2     2.313195  
      25A2     2.370324    52A1     2.409572    53A1     2.440562  
      31B1     2.454182    45B2     2.468951    54A1     2.575664  
      46B2     2.590917    55A1     2.640023    32B1     2.680142  
      26A2     2.762989    56A1     2.779741    33B1     2.836849  
      47B2     2.859628    48B2     2.964446    27A2     2.969973  
      57A1     2.990941    58A1     3.033762    34B1     3.036640  
      49B2     3.044002    28A2     3.133685    59A1     3.221024  
      50B2     3.240697    51B2     3.271437    60A1     3.340166  
      35B1     3.493543    29A2     3.516272    61A1     3.564772  
      52B2     3.618660    30A2     3.746417    36B1     3.774273  
      62A1     3.793542    53B2     4.001776    54B2     4.213756  
      63A1     4.231109    37B1     4.304596    64A1     4.336948  
      31A2     4.355865    55B2     4.367587    65A1     4.368098  
      38B1     4.368119    39B1     4.379221    66A1     4.381803  
      32A2     4.388245    67A1     4.404010    56B2     4.411990  
      40B1     4.424658    33A2     4.430151    57B2     4.453951  
      68A1     4.454312    34A2     4.489374    41B1     4.510516  
      58B2     4.521961    59B2     4.531841    35A2     4.540642  
      60B2     4.592972    69A1     4.594049    36A2     4.629571  
      42B1     4.677827    70A1     4.710370    61B2     4.730718  
      43B1     4.795449    37A2     4.817557    71A1     4.853895  
      62B2     4.854707    72A1     4.998815    63B2     5.057384  
      44B1     5.669644    45B1     5.804229    73A1     5.810519  
      38A2     5.840009    74A1     5.899608    64B2     5.940275  
      75A1     5.955499    46B1     6.010624    39A2     6.092262  
      47B1     6.164481    40A2     6.182202    76A1     6.185403  
      65B2     6.205348    66B2     6.281466    77A1     6.331204  
      48B1     6.393974    67B2     6.514997    49B1     6.536997  
      78A1     6.561963    41A2     6.691527    79A1     6.735479  
      68B2     6.882308    80A1     6.915435    50B1     6.937648  
      42A2     6.964231    69B2     7.199465    81A1     7.242145  
      70B2     7.354234    82A1     8.039193    71B2     8.282878  
      43A2    10.849786    51B1    10.849946    83A1    10.855109  
      72B2    10.902423    52B1    11.076180    44A2    11.077131  
      84A1    11.143206    73B2    11.258506    85A1    11.398601  
      74B2    11.420821    86A1    22.028183    87A1    25.433702  
      75B2    25.572542  

    Final Occupation by Irrep:
             A1    A2    B1    B2 
    DOCC [     9,    2,    2,    7 ]

  @DF-RKS Final Energy:  -958.40802763484453

   => Energetics <=

    Nuclear Repulsion Energy =            117.4292853396005256
    One-Electron Energy =               -1554.4086152154554838
    Two-Electron Energy =                 525.8507347983112368
    DFT Exchange-Correlation Energy =     -47.4447564531070185
    Empirical Dispersion Energy =           0.0000000000000000
    VV10 Nonlocal Energy =                  0.1653238958061746
    Total Energy =                       -958.4080276348446432

Computation Completed


Properties will be evaluated at   0.000000,   0.000000,   0.000000 [a0]

Properties computed using the SCF density matrix

  Nuclear Dipole Moment: [e a0]
     X:     0.0000      Y:    -0.0000      Z:    -0.2670

  Electronic Dipole Moment: [e a0]
     X:     0.0000      Y:     0.0000      Z:     0.6911

  Dipole Moment: [e a0]
     X:     0.0000      Y:    -0.0000      Z:     0.4242     Total:     0.4242

  Dipole Moment: [D]
     X:     0.0000      Y:    -0.0000      Z:     1.0781     Total:     1.0781


*** tstop() called on bp1-compute00149.data.bp.acrc.priv at Tue Apr 27 16:44:29 2021
Module time:
	user time   =     164.81 seconds =       2.75 minutes
	system time =      10.38 seconds =       0.17 minutes
	total time  =          8 seconds =       0.13 minutes
Total time:
	user time   =     164.81 seconds =       2.75 minutes
	system time =      10.38 seconds =       0.17 minutes
	total time  =          8 seconds =       0.13 minutes

  //>>>>>>>>>>>>>>>>>>>>>>>>>>>>>>>>>>>//
  //    Loading displacement 2 of 5    //
  //<<<<<<<<<<<<<<<<<<<<<<<<<<<<<<<<<<<//

*** tstart() called on bp1-compute00149.data.bp.acrc.priv
*** at Tue Apr 27 16:44:29 2021

   => Loading Basis Set <=

    Name: AUG-CC-PV(Q+D)Z
    Role: ORBITAL
    Keyword: BASIS
    atoms 1   entry C          line   319 file /work/zw18965/.conda/envs/p4env/share/psi4/basis/aug-cc-pv_qpd_z.gbs 
    atoms 2-3 entry CL         line  1246 file /work/zw18965/.conda/envs/p4env/share/psi4/basis/aug-cc-pv_qpd_z.gbs 


         ---------------------------------------------------------
                                   SCF
               by Justin Turney, Rob Parrish, Andy Simmonett
                          and Daniel G. A. Smith
                              RKS Reference
                       24 Threads, 137329 MiB Core
         ---------------------------------------------------------

  ==> Geometry <==

    Molecular point group: c2v
    Full point group: C2v

    Geometry (in Angstrom), charge = 0, multiplicity = 1:

       Center              X                  Y                   Z               Mass       
    ------------   -----------------  -----------------  -----------------  -----------------
         C            0.000000000000     0.000000000000    -0.850519119985    12.000000000000
         CL          -0.000000000000     1.400407051313     0.145933147030    34.968852682000
         CL           0.000000000000    -1.400407051313     0.145933147030    34.968852682000

  Running in c2v symmetry.

  Rotational constants: A =      1.65758  B =      0.12291  C =      0.11442 [cm^-1]
  Rotational constants: A =  49693.01789  B =   3684.65850  C =   3430.30669 [MHz]
  Nuclear repulsion =  117.411769633489982

  Charge       = 0
  Multiplicity = 1
  Electrons    = 40
  Nalpha       = 20
  Nbeta        = 20

  ==> Algorithm <==

  SCF Algorithm Type is DF.
  DIIS enabled.
  MOM disabled.
  Fractional occupation disabled.
  Guess Type is SAD.
  Energy threshold   = 1.00e-08
  Density threshold  = 1.00e-08
  Integral threshold = 0.00e+00

  ==> Primary Basis <==

  Basis Set: AUG-CC-PV(Q+D)Z
    Blend: AUG-CC-PV(Q+D)Z
    Number of shells: 66
    Number of basis function: 258
    Number of Cartesian functions: 335
    Spherical Harmonics?: true
    Max angular momentum: 4

  ==> DFT Potential <==

   => Composite Functional: WB97M-V <= 

    wB97M-V Hyb-GGA Exchange-Correlation Functional

    N. Mardirossian and M. Head-Gordon, J. Chem. Phys. 144, 214110 (2016)

    Deriv               =              1
    GGA                 =           TRUE
    Meta                =           TRUE

    Exchange Hybrid     =           TRUE
    MP2 Hybrid          =          FALSE

   => Exchange-Correlation Functionals <=

    1.0000   wB97M-V exchange-correlation functional

   => Exact (HF) Exchange <=

    0.8500            HF,LR [omega = 0.3000]
    0.1500               HF 

   => VV10 Non-Local Parameters <=

    VV10 B              =     6.0000E+00
    VV10 C              =     1.0000E-02

   => Molecular Quadrature <=

    Radial Scheme          =       TREUTLER
    Pruning Scheme         =           FLAT
    Nuclear Scheme         =       TREUTLER

    BS radius alpha        =              1
    Pruning alpha          =              1
    Radial Points          =             75
    Spherical Points       =            302
    Total Points           =          67950
    Total Blocks           =            607
    Max Points             =            256
    Max Functions          =            253

   => Loading Basis Set <=

    Name: (AUG-CC-PV(Q+D)Z AUX)
    Role: JKFIT
    Keyword: DF_BASIS_SCF
    atoms 1   entry C          line   178 file /work/zw18965/.conda/envs/p4env/share/psi4/basis/aug-cc-pvqz-jkfit.gbs 
    atoms 2-3 entry CL         line   904 file /work/zw18965/.conda/envs/p4env/share/psi4/basis/aug-cc-pvqz-jkfit.gbs 

  ==> Pre-Iterations <==

   -------------------------------------------------------
    Irrep   Nso     Nmo     Nalpha   Nbeta   Ndocc  Nsocc
   -------------------------------------------------------
     A1        87      87       0       0       0       0
     A2        44      44       0       0       0       0
     B1        52      52       0       0       0       0
     B2        75      75       0       0       0       0
   -------------------------------------------------------
    Total     258     258      20      20      20       0
   -------------------------------------------------------

  ==> Integral Setup <==

  ==> DiskDFJK: Density-Fitted J/K Matrices <==

    J tasked:                  Yes
    K tasked:                  Yes
    wK tasked:                 Yes
    Omega:               3.000E-01
    OpenMP threads:             24
    Integrals threads:          24
    Memory [MiB]:           101887
    Algorithm:                Core
    Integral Cache:           NONE
    Schwarz Cutoff:          1E-12
    Fitting Condition:       1E-10

   => Auxiliary Basis Set <=

  Basis Set: (AUG-CC-PV(Q+D)Z AUX)
    Blend: AUG-CC-PVQZ-JKFIT
    Number of shells: 126
    Number of basis function: 510
    Number of Cartesian functions: 692
    Spherical Harmonics?: true
    Max angular momentum: 5

  Cached 100.0% of DFT collocation blocks in 1.083 [GiB].

  Minimum eigenvalue in the overlap matrix is 5.3424248948E-05.
  Using Symmetric Orthogonalization.

  SCF Guess: Superposition of Atomic Densities via on-the-fly atomic UHF.

  ==> Iterations <==

                           Total Energy        Delta E     RMS |[F,P]|

   @DF-RKS iter SAD:  -958.12603736606513   -9.58126e+02   0.00000e+00 
   @DF-RKS iter   1:  -958.38396099036026   -2.57924e-01   1.82199e-03 DIIS
   @DF-RKS iter   2:  -958.40583856611715   -2.18776e-02   6.15508e-04 DIIS
   @DF-RKS iter   3:  -958.40776172476330   -1.92316e-03   1.16337e-04 DIIS
   @DF-RKS iter   4:  -958.40796176517620   -2.00040e-04   6.32602e-05 DIIS
   @DF-RKS iter   5:  -958.40800937193967   -4.76068e-05   2.89467e-05 DIIS
   @DF-RKS iter   6:  -958.40801947199793   -1.01001e-05   7.87346e-06 DIIS
   @DF-RKS iter   7:  -958.40802060328360   -1.13129e-06   1.72212e-06 DIIS
   @DF-RKS iter   8:  -958.40802072025178   -1.16968e-07   5.96419e-07 DIIS
   @DF-RKS iter   9:  -958.40802073074008   -1.04883e-08   2.14086e-07 DIIS
   @DF-RKS iter  10:  -958.40802073206578   -1.32570e-09   6.08001e-08 DIIS
   @DF-RKS iter  11:  -958.40802073222687   -1.61094e-10   1.24112e-08 DIIS
   @DF-RKS iter  12:  -958.40802073223358   -6.70752e-12   3.01319e-09 DIIS
  Energy and wave function converged.


  ==> Post-Iterations <==

    Orbital Energies [Eh]
    ---------------------

    Doubly Occupied:                                                      

       1B2  -101.938255     1A1  -101.938254     2A1   -10.505281  
       2B2    -9.696379     3A1    -9.696370     3B2    -7.400071  
       4A1    -7.400071     1A2    -7.395554     1B1    -7.395551  
       5A1    -7.392423     4B2    -7.392422     6A1    -1.063882  
       5B2    -0.982907     7A1    -0.724120     6B2    -0.571898  
       8A1    -0.528596     2B1    -0.524365     2A2    -0.451803  
       7B2    -0.431669     9A1    -0.363668  

    Virtual:                                                              

       3B1    -0.042958    10A1     0.027538     8B2     0.035588  
      11A1     0.050444     4B1     0.058415    12A1     0.062991  
       9B2     0.078489     3A2     0.086003    13A1     0.088427  
       5B1     0.094209    10B2     0.113874    14A1     0.121358  
      11B2     0.139028    15A1     0.174689    12B2     0.185305  
       6B1     0.195474    16A1     0.210570     4A2     0.228013  
      13B2     0.242790    17A1     0.266297     7B1     0.273057  
      14B2     0.274287    18A1     0.278388     5A2     0.293645  
      19A1     0.301046     8B1     0.303264    15B2     0.313868  
      20A1     0.315687     6A2     0.328628    16B2     0.349357  
       9B1     0.381369    21A1     0.416750    10B1     0.462039  
      17B2     0.462594    22A1     0.463940     7A2     0.484182  
      23A1     0.488565    18B2     0.499967    11B1     0.511776  
       8A2     0.515669    24A1     0.519391    19B2     0.521460  
      20B2     0.549081    25A1     0.552184    12B1     0.565006  
       9A2     0.567241    26A1     0.571404    21B2     0.658320  
      27A1     0.699779    22B2     0.702795    28A1     0.722702  
      13B1     0.723788    23B2     0.753358    10A2     0.760074  
      29A1     0.762732    14B1     0.773622    15B1     0.818468  
      30A1     0.818814    24B2     0.839641    11A2     0.845404  
      31A1     0.952805    16B1     0.970476    25B2     0.984361  
      32A1     0.986857    12A2     0.988389    26B2     0.994589  
      13A2     1.031855    17B1     1.033593    27B2     1.036969  
      33A1     1.039099    34A1     1.052767    28B2     1.058516  
      35A1     1.094236    29B2     1.104081    18B1     1.104406  
      14A2     1.161585    30B2     1.206332    36A1     1.274478  
      19B1     1.337137    37A1     1.355845    38A1     1.409987  
      31B2     1.413002    20B1     1.423535    15A2     1.431831  
      32B2     1.487715    39A1     1.504961    16A2     1.509191  
      21B1     1.527832    40A1     1.560063    22B1     1.586604  
      41A1     1.592105    17A2     1.598114    42A1     1.631408  
      33B2     1.635040    34B2     1.682738    23B1     1.708919  
      43A1     1.737576    18A2     1.748971    24B1     1.752212  
      35B2     1.772362    44A1     1.773824    25B1     1.807675  
      19A2     1.813189    36B2     1.826293    37B2     1.888329  
      45A1     1.892666    38B2     1.915895    46A1     1.925847  
      26B1     1.932541    20A2     1.938441    21A2     1.979771  
      39B2     2.021865    22A2     2.025117    27B1     2.035490  
      40B2     2.046815    47A1     2.067611    48A1     2.096320  
      41B2     2.104875    49A1     2.118428    28B1     2.128702  
      29B1     2.174284    23A2     2.178604    42B2     2.208695  
      30B1     2.210471    50A1     2.232875    43B2     2.249975  
      24A2     2.295190    51A1     2.304891    44B2     2.313018  
      25A2     2.370345    52A1     2.408982    53A1     2.440354  
      31B1     2.453894    45B2     2.469003    54A1     2.575175  
      46B2     2.590545    55A1     2.640136    32B1     2.679741  
      26A2     2.762518    56A1     2.779275    33B1     2.836595  
      47B2     2.859390    48B2     2.963914    27A2     2.969345  
      57A1     2.990283    58A1     3.033916    34B1     3.036325  
      49B2     3.043266    28A2     3.133697    59A1     3.220838  
      50B2     3.240674    51B2     3.271460    60A1     3.339614  
      35B1     3.493430    29A2     3.516154    61A1     3.564493  
      52B2     3.618660    30A2     3.746365    36B1     3.773934  
      62A1     3.793159    53B2     4.001633    54B2     4.213664  
      63A1     4.231151    37B1     4.304660    64A1     4.336998  
      31A2     4.356007    55B2     4.367648    65A1     4.368017  
      38B1     4.368136    39B1     4.379210    66A1     4.381861  
      32A2     4.388262    67A1     4.404011    56B2     4.412026  
      40B1     4.424583    33A2     4.430194    57B2     4.453503  
      68A1     4.454297    34A2     4.489425    41B1     4.510479  
      58B2     4.521940    59B2     4.531915    35A2     4.540452  
      60B2     4.592822    69A1     4.593691    36A2     4.629619  
      42B1     4.677705    70A1     4.710047    61B2     4.730440  
      43B1     4.795077    37A2     4.817163    71A1     4.853847  
      62B2     4.854666    72A1     4.998731    63B2     5.056618  
      44B1     5.669366    45B1     5.804068    73A1     5.810389  
      38A2     5.839780    74A1     5.899229    64B2     5.939839  
      75A1     5.955317    46B1     6.010473    39A2     6.091739  
      47B1     6.164152    40A2     6.181457    76A1     6.185057  
      65B2     6.205036    66B2     6.281242    77A1     6.330760  
      48B1     6.393743    67B2     6.514334    49B1     6.536087  
      78A1     6.561504    41A2     6.690597    79A1     6.734514  
      68B2     6.881422    80A1     6.914557    50B1     6.936849  
      42A2     6.963494    69B2     7.199817    81A1     7.241757  
      70B2     7.352701    82A1     8.036741    71B2     8.280426  
      43A2    10.849781    51B1    10.849847    83A1    10.854995  
      72B2    10.902434    52B1    11.075846    44A2    11.076939  
      84A1    11.142927    73B2    11.258179    85A1    11.398423  
      74B2    11.420799    86A1    22.025985    87A1    25.432717  
      75B2    25.570672  

    Final Occupation by Irrep:
             A1    A2    B1    B2 
    DOCC [     9,    2,    2,    7 ]

  @DF-RKS Final Energy:  -958.40802073223358

   => Energetics <=

    Nuclear Repulsion Energy =            117.4117696334899819
    One-Electron Energy =               -1554.3747095084715966
    Two-Electron Energy =                 525.8340859363062236
    DFT Exchange-Correlation Energy =     -47.4444912520421269
    Empirical Dispersion Energy =           0.0000000000000000
    VV10 Nonlocal Energy =                  0.1653244584839455
    Total Energy =                       -958.4080207322335809

Computation Completed


Properties will be evaluated at   0.000000,   0.000000,   0.000000 [a0]

Properties computed using the SCF density matrix

  Nuclear Dipole Moment: [e a0]
     X:     0.0000      Y:    -0.0000      Z:    -0.2672

  Electronic Dipole Moment: [e a0]
     X:     0.0000      Y:     0.0000      Z:     0.6906

  Dipole Moment: [e a0]
     X:     0.0000      Y:    -0.0000      Z:     0.4234     Total:     0.4234

  Dipole Moment: [D]
     X:     0.0000      Y:    -0.0000      Z:     1.0762     Total:     1.0762


*** tstop() called on bp1-compute00149.data.bp.acrc.priv at Tue Apr 27 16:44:37 2021
Module time:
	user time   =     162.64 seconds =       2.71 minutes
	system time =       5.28 seconds =       0.09 minutes
	total time  =          8 seconds =       0.13 minutes
Total time:
	user time   =     327.64 seconds =       5.46 minutes
	system time =      15.67 seconds =       0.26 minutes
	total time  =         16 seconds =       0.27 minutes

  //>>>>>>>>>>>>>>>>>>>>>>>>>>>>>>>>>>>//
  //    Loading displacement 3 of 5    //
  //<<<<<<<<<<<<<<<<<<<<<<<<<<<<<<<<<<<//

*** tstart() called on bp1-compute00149.data.bp.acrc.priv
*** at Tue Apr 27 16:44:37 2021

   => Loading Basis Set <=

    Name: AUG-CC-PV(Q+D)Z
    Role: ORBITAL
    Keyword: BASIS
    atoms 1   entry C          line   319 file /work/zw18965/.conda/envs/p4env/share/psi4/basis/aug-cc-pv_qpd_z.gbs 
    atoms 2-3 entry CL         line  1246 file /work/zw18965/.conda/envs/p4env/share/psi4/basis/aug-cc-pv_qpd_z.gbs 


         ---------------------------------------------------------
                                   SCF
               by Justin Turney, Rob Parrish, Andy Simmonett
                          and Daniel G. A. Smith
                              RKS Reference
                       24 Threads, 137329 MiB Core
         ---------------------------------------------------------

  ==> Geometry <==

    Molecular point group: c2v
    Full point group: C2v

    Geometry (in Angstrom), charge = 0, multiplicity = 1:

       Center              X                  Y                   Z               Mass       
    ------------   -----------------  -----------------  -----------------  -----------------
         C            0.000000000000     0.000000000000    -0.849107803870    12.000000000000
         CL          -0.000000000000     1.400407051313     0.145690991625    34.968852682000
         CL           0.000000000000    -1.400407051313     0.145690991625    34.968852682000

  Running in c2v symmetry.

  Rotational constants: A =      1.66310  B =      0.12291  C =      0.11445 [cm^-1]
  Rotational constants: A =  49858.34635  B =   3684.65850  C =   3431.09207 [MHz]
  Nuclear repulsion =  117.446801151134196

  Charge       = 0
  Multiplicity = 1
  Electrons    = 40
  Nalpha       = 20
  Nbeta        = 20

  ==> Algorithm <==

  SCF Algorithm Type is DF.
  DIIS enabled.
  MOM disabled.
  Fractional occupation disabled.
  Guess Type is SAD.
  Energy threshold   = 1.00e-08
  Density threshold  = 1.00e-08
  Integral threshold = 0.00e+00

  ==> Primary Basis <==

  Basis Set: AUG-CC-PV(Q+D)Z
    Blend: AUG-CC-PV(Q+D)Z
    Number of shells: 66
    Number of basis function: 258
    Number of Cartesian functions: 335
    Spherical Harmonics?: true
    Max angular momentum: 4

  ==> DFT Potential <==

   => Composite Functional: WB97M-V <= 

    wB97M-V Hyb-GGA Exchange-Correlation Functional

    N. Mardirossian and M. Head-Gordon, J. Chem. Phys. 144, 214110 (2016)

    Deriv               =              1
    GGA                 =           TRUE
    Meta                =           TRUE

    Exchange Hybrid     =           TRUE
    MP2 Hybrid          =          FALSE

   => Exchange-Correlation Functionals <=

    1.0000   wB97M-V exchange-correlation functional

   => Exact (HF) Exchange <=

    0.8500            HF,LR [omega = 0.3000]
    0.1500               HF 

   => VV10 Non-Local Parameters <=

    VV10 B              =     6.0000E+00
    VV10 C              =     1.0000E-02

   => Molecular Quadrature <=

    Radial Scheme          =       TREUTLER
    Pruning Scheme         =           FLAT
    Nuclear Scheme         =       TREUTLER

    BS radius alpha        =              1
    Pruning alpha          =              1
    Radial Points          =             75
    Spherical Points       =            302
    Total Points           =          67950
    Total Blocks           =            609
    Max Points             =            256
    Max Functions          =            253

   => Loading Basis Set <=

    Name: (AUG-CC-PV(Q+D)Z AUX)
    Role: JKFIT
    Keyword: DF_BASIS_SCF
    atoms 1   entry C          line   178 file /work/zw18965/.conda/envs/p4env/share/psi4/basis/aug-cc-pvqz-jkfit.gbs 
    atoms 2-3 entry CL         line   904 file /work/zw18965/.conda/envs/p4env/share/psi4/basis/aug-cc-pvqz-jkfit.gbs 

  ==> Pre-Iterations <==

   -------------------------------------------------------
    Irrep   Nso     Nmo     Nalpha   Nbeta   Ndocc  Nsocc
   -------------------------------------------------------
     A1        87      87       0       0       0       0
     A2        44      44       0       0       0       0
     B1        52      52       0       0       0       0
     B2        75      75       0       0       0       0
   -------------------------------------------------------
    Total     258     258      20      20      20       0
   -------------------------------------------------------

  ==> Integral Setup <==

  ==> DiskDFJK: Density-Fitted J/K Matrices <==

    J tasked:                  Yes
    K tasked:                  Yes
    wK tasked:                 Yes
    Omega:               3.000E-01
    OpenMP threads:             24
    Integrals threads:          24
    Memory [MiB]:           101887
    Algorithm:                Core
    Integral Cache:           NONE
    Schwarz Cutoff:          1E-12
    Fitting Condition:       1E-10

   => Auxiliary Basis Set <=

  Basis Set: (AUG-CC-PV(Q+D)Z AUX)
    Blend: AUG-CC-PVQZ-JKFIT
    Number of shells: 126
    Number of basis function: 510
    Number of Cartesian functions: 692
    Spherical Harmonics?: true
    Max angular momentum: 5

  Cached 100.0% of DFT collocation blocks in 1.083 [GiB].

  Minimum eigenvalue in the overlap matrix is 5.3264419033E-05.
  Using Symmetric Orthogonalization.

  SCF Guess: Superposition of Atomic Densities via on-the-fly atomic UHF.

  ==> Iterations <==

                           Total Energy        Delta E     RMS |[F,P]|

   @DF-RKS iter SAD:  -958.12832196568593   -9.58128e+02   0.00000e+00 
   @DF-RKS iter   1:  -958.38392558994735   -2.55604e-01   1.82247e-03 DIIS
   @DF-RKS iter   2:  -958.40583628014338   -2.19107e-02   6.15788e-04 DIIS
   @DF-RKS iter   3:  -958.40776973043398   -1.93345e-03   1.18752e-04 DIIS
   @DF-RKS iter   4:  -958.40796948010120   -1.99750e-04   6.76973e-05 DIIS
   @DF-RKS iter   5:  -958.40802229762664   -5.28175e-05   2.92529e-05 DIIS
   @DF-RKS iter   6:  -958.40803282745310   -1.05298e-05   7.68625e-06 DIIS
   @DF-RKS iter   7:  -958.40803394345471   -1.11600e-06   1.72301e-06 DIIS
   @DF-RKS iter   8:  -958.40803405972383   -1.16269e-07   5.94087e-07 DIIS
   @DF-RKS iter   9:  -958.40803407013982   -1.04160e-08   2.13685e-07 DIIS
   @DF-RKS iter  10:  -958.40803407146348   -1.32366e-09   6.07314e-08 DIIS
   @DF-RKS iter  11:  -958.40803407162196   -1.58479e-10   1.24124e-08 DIIS
   @DF-RKS iter  12:  -958.40803407163037   -8.41283e-12   3.01226e-09 DIIS
  Energy and wave function converged.


  ==> Post-Iterations <==

    Orbital Energies [Eh]
    ---------------------

    Doubly Occupied:                                                      

       1B2  -101.938301     1A1  -101.938300     2A1   -10.504943  
       2B2    -9.696437     3A1    -9.696427     3B2    -7.400127  
       4A1    -7.400127     1A2    -7.395612     1B1    -7.395610  
       5A1    -7.392479     4B2    -7.392478     6A1    -1.064134  
       5B2    -0.983099     7A1    -0.724105     6B2    -0.572116  
       8A1    -0.528693     2B1    -0.524530     2A2    -0.451880  
       7B2    -0.431788     9A1    -0.363341  

    Virtual:                                                              

       3B1    -0.042791    10A1     0.027527     8B2     0.035592  
      11A1     0.050555     4B1     0.058410    12A1     0.062993  
       9B2     0.078500     3A2     0.085980    13A1     0.088453  
       5B1     0.094228    10B2     0.113931    14A1     0.121450  
      11B2     0.139301    15A1     0.174658    12B2     0.185325  
       6B1     0.195439    16A1     0.210541     4A2     0.228044  
      13B2     0.242776    17A1     0.266331     7B1     0.273136  
      14B2     0.274362    18A1     0.278452     5A2     0.293566  
      19A1     0.301098     8B1     0.303323    15B2     0.313882  
      20A1     0.315742     6A2     0.328632    16B2     0.349420  
       9B1     0.381342    21A1     0.416714    10B1     0.462006  
      17B2     0.462497    22A1     0.463916     7A2     0.484212  
      23A1     0.488531    18B2     0.499988    11B1     0.511809  
       8A2     0.515672    24A1     0.519341    19B2     0.521402  
      20B2     0.549026    25A1     0.552349    12B1     0.565168  
       9A2     0.567200    26A1     0.571511    21B2     0.658300  
      27A1     0.699944    22B2     0.703167    28A1     0.722863  
      13B1     0.723848    23B2     0.753518    10A2     0.760214  
      29A1     0.762865    14B1     0.773538    15B1     0.818720  
      30A1     0.819047    24B2     0.839703    11A2     0.845430  
      31A1     0.952867    16B1     0.970673    25B2     0.984167  
      32A1     0.986922    12A2     0.988570    26B2     0.994790  
      13A2     1.031764    17B1     1.033626    27B2     1.037210  
      33A1     1.039253    34A1     1.052844    28B2     1.058529  
      35A1     1.094401    29B2     1.104164    18B1     1.104544  
      14A2     1.161732    30B2     1.206429    36A1     1.274651  
      19B1     1.337156    37A1     1.355703    38A1     1.410066  
      31B2     1.412935    20B1     1.423722    15A2     1.431835  
      32B2     1.487490    39A1     1.504824    16A2     1.509139  
      21B1     1.527741    40A1     1.560232    22B1     1.586618  
      41A1     1.592371    17A2     1.598065    42A1     1.631487  
      33B2     1.635261    34B2     1.682978    23B1     1.709292  
      43A1     1.737758    18A2     1.748939    24B1     1.752800  
      35B2     1.772304    44A1     1.773976    25B1     1.807930  
      19A2     1.813168    36B2     1.826264    37B2     1.888610  
      45A1     1.892637    38B2     1.916080    46A1     1.926080  
      26B1     1.932470    20A2     1.938238    21A2     1.979779  
      39B2     2.022067    22A2     2.025523    27B1     2.035688  
      40B2     2.046955    47A1     2.067567    48A1     2.096451  
      41B2     2.105223    49A1     2.118447    28B1     2.128952  
      29B1     2.174359    23A2     2.178833    42B2     2.209059  
      30B1     2.210738    50A1     2.232962    43B2     2.250195  
      24A2     2.295908    51A1     2.304998    44B2     2.313373  
      25A2     2.370303    52A1     2.410163    53A1     2.440770  
      31B1     2.454470    45B2     2.468899    54A1     2.576154  
      46B2     2.591289    55A1     2.639911    32B1     2.680545  
      26A2     2.763460    56A1     2.780208    33B1     2.837103  
      47B2     2.859863    48B2     2.964978    27A2     2.970598  
      57A1     2.991598    58A1     3.033608    34B1     3.036955  
      49B2     3.044743    28A2     3.133674    59A1     3.221208  
      50B2     3.240719    51B2     3.271413    60A1     3.340719  
      35B1     3.493655    29A2     3.516391    61A1     3.565051  
      52B2     3.618660    30A2     3.746468    36B1     3.774611  
      62A1     3.793927    53B2     4.001918    54B2     4.213846  
      63A1     4.231067    37B1     4.304533    64A1     4.336899  
      31A2     4.355724    55B2     4.367527    38B1     4.368102  
      65A1     4.368179    39B1     4.379232    66A1     4.381745  
      32A2     4.388228    67A1     4.404010    56B2     4.411953  
      40B1     4.424734    33A2     4.430108    68A1     4.454327  
      57B2     4.454401    34A2     4.489323    41B1     4.510552  
      58B2     4.521983    59B2     4.531767    35A2     4.540833  
      60B2     4.593122    69A1     4.594406    36A2     4.629524  
      42B1     4.677949    70A1     4.710694    61B2     4.730996  
      43B1     4.795822    37A2     4.817951    71A1     4.853942  
      62B2     4.854746    72A1     4.998900    63B2     5.058152  
      44B1     5.669922    45B1     5.804391    73A1     5.810649  
      38A2     5.840238    74A1     5.899983    64B2     5.940712  
      75A1     5.955684    46B1     6.010775    39A2     6.092784  
      47B1     6.164809    40A2     6.182950    76A1     6.185750  
      65B2     6.205661    66B2     6.281692    77A1     6.331647  
      48B1     6.394205    67B2     6.515657    49B1     6.537907  
      78A1     6.562423    41A2     6.692455    79A1     6.736440  
      68B2     6.883192    80A1     6.916316    50B1     6.938446  
      42A2     6.964971    69B2     7.199114    81A1     7.242531  
      70B2     7.355769    82A1     8.041648    71B2     8.285328  
      43A2    10.849791    51B1    10.850045    83A1    10.855222  
      72B2    10.902412    52B1    11.076514    44A2    11.077323  
      84A1    11.143486    73B2    11.258832    85A1    11.398777  
      74B2    11.420843    86A1    22.030381    87A1    25.434685  
      75B2    25.574409  

    Final Occupation by Irrep:
             A1    A2    B1    B2 
    DOCC [     9,    2,    2,    7 ]

  @DF-RKS Final Energy:  -958.40803407163037

   => Energetics <=

    Nuclear Repulsion Energy =            117.4468011511341956
    One-Electron Energy =               -1554.4425206850683026
    Two-Electron Energy =                 525.8673838460624665
    DFT Exchange-Correlation Energy =     -47.4450217171244617
    Empirical Dispersion Energy =           0.0000000000000000
    VV10 Nonlocal Energy =                  0.1653233333657848
    Total Energy =                       -958.4080340716303681

Computation Completed


Properties will be evaluated at   0.000000,   0.000000,   0.000000 [a0]

Properties computed using the SCF density matrix

  Nuclear Dipole Moment: [e a0]
     X:     0.0000      Y:    -0.0000      Z:    -0.2667

  Electronic Dipole Moment: [e a0]
     X:     0.0000      Y:     0.0000      Z:     0.6917

  Dipole Moment: [e a0]
     X:     0.0000      Y:    -0.0000      Z:     0.4249     Total:     0.4249

  Dipole Moment: [D]
     X:     0.0000      Y:    -0.0000      Z:     1.0800     Total:     1.0800


*** tstop() called on bp1-compute00149.data.bp.acrc.priv at Tue Apr 27 16:44:44 2021
Module time:
	user time   =     149.65 seconds =       2.49 minutes
	system time =       4.23 seconds =       0.07 minutes
	total time  =          7 seconds =       0.12 minutes
Total time:
	user time   =     477.44 seconds =       7.96 minutes
	system time =      19.90 seconds =       0.33 minutes
	total time  =         23 seconds =       0.38 minutes

  //>>>>>>>>>>>>>>>>>>>>>>>>>>>>>>>>>>>//
  //    Loading displacement 4 of 5    //
  //<<<<<<<<<<<<<<<<<<<<<<<<<<<<<<<<<<<//

*** tstart() called on bp1-compute00149.data.bp.acrc.priv
*** at Tue Apr 27 16:44:44 2021

   => Loading Basis Set <=

    Name: AUG-CC-PV(Q+D)Z
    Role: ORBITAL
    Keyword: BASIS
    atoms 1   entry C          line   319 file /work/zw18965/.conda/envs/p4env/share/psi4/basis/aug-cc-pv_qpd_z.gbs 
    atoms 2-3 entry CL         line  1246 file /work/zw18965/.conda/envs/p4env/share/psi4/basis/aug-cc-pv_qpd_z.gbs 


         ---------------------------------------------------------
                                   SCF
               by Justin Turney, Rob Parrish, Andy Simmonett
                          and Daniel G. A. Smith
                              RKS Reference
                       24 Threads, 137329 MiB Core
         ---------------------------------------------------------

  ==> Geometry <==

    Molecular point group: c2v
    Full point group: C2v

    Geometry (in Angstrom), charge = 0, multiplicity = 1:

       Center              X                  Y                   Z               Mass       
    ------------   -----------------  -----------------  -----------------  -----------------
         C           -0.000000000000     0.000000000000    -0.849813461927    12.000000000000
         CL          -0.000000000000     1.400090666632     0.145812069327    34.968852682000
         CL           0.000000000000    -1.400090666632     0.145812069327    34.968852682000

  Running in c2v symmetry.

  Rotational constants: A =      1.66033  B =      0.12296  C =      0.11448 [cm^-1]
  Rotational constants: A =  49775.57916  B =   3686.32396  C =   3432.14325 [MHz]
  Nuclear repulsion =  117.451053583743573

  Charge       = 0
  Multiplicity = 1
  Electrons    = 40
  Nalpha       = 20
  Nbeta        = 20

  ==> Algorithm <==

  SCF Algorithm Type is DF.
  DIIS enabled.
  MOM disabled.
  Fractional occupation disabled.
  Guess Type is SAD.
  Energy threshold   = 1.00e-08
  Density threshold  = 1.00e-08
  Integral threshold = 0.00e+00

  ==> Primary Basis <==

  Basis Set: AUG-CC-PV(Q+D)Z
    Blend: AUG-CC-PV(Q+D)Z
    Number of shells: 66
    Number of basis function: 258
    Number of Cartesian functions: 335
    Spherical Harmonics?: true
    Max angular momentum: 4

  ==> DFT Potential <==

   => Composite Functional: WB97M-V <= 

    wB97M-V Hyb-GGA Exchange-Correlation Functional

    N. Mardirossian and M. Head-Gordon, J. Chem. Phys. 144, 214110 (2016)

    Deriv               =              1
    GGA                 =           TRUE
    Meta                =           TRUE

    Exchange Hybrid     =           TRUE
    MP2 Hybrid          =          FALSE

   => Exchange-Correlation Functionals <=

    1.0000   wB97M-V exchange-correlation functional

   => Exact (HF) Exchange <=

    0.8500            HF,LR [omega = 0.3000]
    0.1500               HF 

   => VV10 Non-Local Parameters <=

    VV10 B              =     6.0000E+00
    VV10 C              =     1.0000E-02

   => Molecular Quadrature <=

    Radial Scheme          =       TREUTLER
    Pruning Scheme         =           FLAT
    Nuclear Scheme         =       TREUTLER

    BS radius alpha        =              1
    Pruning alpha          =              1
    Radial Points          =             75
    Spherical Points       =            302
    Total Points           =          67950
    Total Blocks           =            609
    Max Points             =            256
    Max Functions          =            253

   => Loading Basis Set <=

    Name: (AUG-CC-PV(Q+D)Z AUX)
    Role: JKFIT
    Keyword: DF_BASIS_SCF
    atoms 1   entry C          line   178 file /work/zw18965/.conda/envs/p4env/share/psi4/basis/aug-cc-pvqz-jkfit.gbs 
    atoms 2-3 entry CL         line   904 file /work/zw18965/.conda/envs/p4env/share/psi4/basis/aug-cc-pvqz-jkfit.gbs 

  ==> Pre-Iterations <==

   -------------------------------------------------------
    Irrep   Nso     Nmo     Nalpha   Nbeta   Ndocc  Nsocc
   -------------------------------------------------------
     A1        87      87       0       0       0       0
     A2        44      44       0       0       0       0
     B1        52      52       0       0       0       0
     B2        75      75       0       0       0       0
   -------------------------------------------------------
    Total     258     258      20      20      20       0
   -------------------------------------------------------

  ==> Integral Setup <==

  ==> DiskDFJK: Density-Fitted J/K Matrices <==

    J tasked:                  Yes
    K tasked:                  Yes
    wK tasked:                 Yes
    Omega:               3.000E-01
    OpenMP threads:             24
    Integrals threads:          24
    Memory [MiB]:           101887
    Algorithm:                Core
    Integral Cache:           NONE
    Schwarz Cutoff:          1E-12
    Fitting Condition:       1E-10

   => Auxiliary Basis Set <=

  Basis Set: (AUG-CC-PV(Q+D)Z AUX)
    Blend: AUG-CC-PVQZ-JKFIT
    Number of shells: 126
    Number of basis function: 510
    Number of Cartesian functions: 692
    Spherical Harmonics?: true
    Max angular momentum: 5

  Cached 100.0% of DFT collocation blocks in 1.083 [GiB].

  Minimum eigenvalue in the overlap matrix is 5.3306186319E-05.
  Using Symmetric Orthogonalization.

  SCF Guess: Superposition of Atomic Densities via on-the-fly atomic UHF.

  ==> Iterations <==

                           Total Energy        Delta E     RMS |[F,P]|

   @DF-RKS iter SAD:  -958.12789217432817   -9.58128e+02   0.00000e+00 
   @DF-RKS iter   1:  -958.38394168119032   -2.56050e-01   1.82229e-03 DIIS
   @DF-RKS iter   2:  -958.40584021216466   -2.18985e-02   6.15665e-04 DIIS
   @DF-RKS iter   3:  -958.40776997862145   -1.92977e-03   1.17992e-04 DIIS
   @DF-RKS iter   4:  -958.40796969162648   -1.99713e-04   6.64038e-05 DIIS
   @DF-RKS iter   5:  -958.40802091095600   -5.12193e-05   2.91958e-05 DIIS
   @DF-RKS iter   6:  -958.40803133342058   -1.04225e-05   7.73549e-06 DIIS
   @DF-RKS iter   7:  -958.40803245332040   -1.11990e-06   1.72269e-06 DIIS
   @DF-RKS iter   8:  -958.40803256978143   -1.16461e-07   5.94693e-07 DIIS
   @DF-RKS iter   9:  -958.40803258021265   -1.04312e-08   2.13785e-07 DIIS
   @DF-RKS iter  10:  -958.40803258153460   -1.32195e-09   6.07048e-08 DIIS
   @DF-RKS iter  11:  -958.40803258169353   -1.58934e-10   1.23989e-08 DIIS
   @DF-RKS iter  12:  -958.40803258170195   -8.41283e-12   3.00967e-09 DIIS
  Energy and wave function converged.


  ==> Post-Iterations <==

    Orbital Energies [Eh]
    ---------------------

    Doubly Occupied:                                                      

       1B2  -101.938276     1A1  -101.938276     2A1   -10.505034  
       2B2    -9.696412     3A1    -9.696403     3B2    -7.400103  
       4A1    -7.400102     1A2    -7.395587     1B1    -7.395585  
       5A1    -7.392454     4B2    -7.392453     6A1    -1.064106  
       5B2    -0.983025     7A1    -0.724112     6B2    -0.572041  
       8A1    -0.528698     2B1    -0.524504     2A2    -0.451845  
       7B2    -0.431704     9A1    -0.363477  

    Virtual:                                                              

       3B1    -0.042836    10A1     0.027533     8B2     0.035593  
      11A1     0.050530     4B1     0.058409    12A1     0.063006  
       9B2     0.078496     3A2     0.085990    13A1     0.088436  
       5B1     0.094218    10B2     0.113910    14A1     0.121450  
      11B2     0.139218    15A1     0.174676    12B2     0.185322  
       6B1     0.195461    16A1     0.210559     4A2     0.228036  
      13B2     0.242791    17A1     0.266321     7B1     0.273090  
      14B2     0.274334    18A1     0.278426     5A2     0.293598  
      19A1     0.301077     8B1     0.303303    15B2     0.313884  
      20A1     0.315719     6A2     0.328650    16B2     0.349407  
       9B1     0.381343    21A1     0.416723    10B1     0.462000  
      17B2     0.462535    22A1     0.463938     7A2     0.484196  
      23A1     0.488523    18B2     0.499977    11B1     0.511803  
       8A2     0.515662    24A1     0.519359    19B2     0.521429  
      20B2     0.549060    25A1     0.552283    12B1     0.565108  
       9A2     0.567250    26A1     0.571478    21B2     0.658405  
      27A1     0.699920    22B2     0.703043    28A1     0.722824  
      13B1     0.723813    23B2     0.753459    10A2     0.760160  
      29A1     0.762866    14B1     0.773685    15B1     0.818608  
      30A1     0.818940    24B2     0.839745    11A2     0.845491  
      31A1     0.952935    16B1     0.970579    25B2     0.984275  
      32A1     0.986897    12A2     0.988479    26B2     0.994696  
      13A2     1.031856    17B1     1.033610    27B2     1.037137  
      33A1     1.039145    34A1     1.052782    28B2     1.058496  
      35A1     1.094363    29B2     1.104136    18B1     1.104500  
      14A2     1.161670    30B2     1.206436    36A1     1.274567  
      19B1     1.337138    37A1     1.355750    38A1     1.410047  
      31B2     1.412953    20B1     1.423619    15A2     1.431848  
      32B2     1.487662    39A1     1.504921    16A2     1.509204  
      21B1     1.527748    40A1     1.560147    22B1     1.586580  
      41A1     1.592215    17A2     1.598129    42A1     1.631456  
      33B2     1.635121    34B2     1.682960    23B1     1.709130  
      43A1     1.737658    18A2     1.749012    24B1     1.752548  
      35B2     1.772424    44A1     1.773939    25B1     1.807800  
      19A2     1.813231    36B2     1.826409    37B2     1.888510  
      45A1     1.892715    38B2     1.916088    46A1     1.926048  
      26B1     1.932628    20A2     1.938560    21A2     1.979857  
      39B2     2.022102    22A2     2.025418    27B1     2.035720  
      40B2     2.046979    47A1     2.067643    48A1     2.096463  
      41B2     2.105119    49A1     2.118430    28B1     2.128854  
      29B1     2.174343    23A2     2.178772    42B2     2.209056  
      30B1     2.210691    50A1     2.232985    43B2     2.250179  
      24A2     2.295649    51A1     2.305034    44B2     2.313320  
      25A2     2.370582    52A1     2.409689    53A1     2.440741  
      31B1     2.454324    45B2     2.469346    54A1     2.575857  
      46B2     2.591173    55A1     2.639986    32B1     2.680249  
      26A2     2.763180    56A1     2.779908    33B1     2.837146  
      47B2     2.859680    48B2     2.964570    27A2     2.970029  
      57A1     2.991152    58A1     3.033699    34B1     3.036734  
      49B2     3.044340    28A2     3.133719    59A1     3.221134  
      50B2     3.240817    51B2     3.271425    60A1     3.340500  
      35B1     3.493602    29A2     3.516337    61A1     3.564990  
      52B2     3.618819    30A2     3.746538    36B1     3.774402  
      62A1     3.793774    53B2     4.001815    54B2     4.213742  
      63A1     4.231192    37B1     4.304554    64A1     4.337000  
      31A2     4.355826    55B2     4.367608    65A1     4.368043  
      38B1     4.368096    39B1     4.379188    66A1     4.381865  
      32A2     4.388274    67A1     4.403984    56B2     4.412012  
      40B1     4.424625    33A2     4.430187    57B2     4.454103  
      68A1     4.454396    34A2     4.489530    41B1     4.510599  
      58B2     4.521884    59B2     4.532006    35A2     4.540768  
      60B2     4.593090    69A1     4.594290    36A2     4.629473  
      42B1     4.678098    70A1     4.710588    61B2     4.730699  
      43B1     4.795592    37A2     4.817725    71A1     4.853929  
      62B2     4.854697    72A1     4.999102    63B2     5.057640  
      44B1     5.669768    45B1     5.804333    73A1     5.810664  
      38A2     5.840071    74A1     5.899730    64B2     5.940497  
      75A1     5.955667    46B1     6.010724    39A2     6.092519  
      47B1     6.164632    40A2     6.182416    76A1     6.185360  
      65B2     6.205836    66B2     6.281708    77A1     6.331467  
      48B1     6.394281    67B2     6.515896    49B1     6.537530  
      78A1     6.562324    41A2     6.691960    79A1     6.735691  
      68B2     6.882714    80A1     6.916199    50B1     6.937957  
      42A2     6.964678    69B2     7.199766    81A1     7.242147  
      70B2     7.354563    82A1     8.040302    71B2     8.284059  
      43A2    10.849834    51B1    10.849988    83A1    10.855182  
      72B2    10.902492    52B1    11.076340    44A2    11.077274  
      84A1    11.143668    73B2    11.258451    85A1    11.398751  
      74B2    11.420855    86A1    22.029555    87A1    25.434437  
      75B2    25.573509  

    Final Occupation by Irrep:
             A1    A2    B1    B2 
    DOCC [     9,    2,    2,    7 ]

  @DF-RKS Final Energy:  -958.40803258170195

   => Energetics <=

    Nuclear Repulsion Energy =            117.4510535837435725
    One-Electron Energy =               -1554.4517294316594871
    Two-Electron Energy =                 525.8722518963357970
    DFT Exchange-Correlation Energy =     -47.4449312496393745
    Empirical Dispersion Energy =           0.0000000000000000
    VV10 Nonlocal Energy =                  0.1653226195176847
    Total Energy =                       -958.4080325817018320

Computation Completed


Properties will be evaluated at   0.000000,   0.000000,   0.000000 [a0]

Properties computed using the SCF density matrix

  Nuclear Dipole Moment: [e a0]
     X:    -0.0000      Y:    -0.0000      Z:    -0.2670

  Electronic Dipole Moment: [e a0]
     X:     0.0000      Y:     0.0000      Z:     0.6915

  Dipole Moment: [e a0]
     X:    -0.0000      Y:    -0.0000      Z:     0.4245     Total:     0.4245

  Dipole Moment: [D]
     X:    -0.0000      Y:    -0.0000      Z:     1.0791     Total:     1.0791


*** tstop() called on bp1-compute00149.data.bp.acrc.priv at Tue Apr 27 16:44:51 2021
Module time:
	user time   =     149.60 seconds =       2.49 minutes
	system time =       3.66 seconds =       0.06 minutes
	total time  =          7 seconds =       0.12 minutes
Total time:
	user time   =     627.19 seconds =      10.45 minutes
	system time =      23.57 seconds =       0.39 minutes
	total time  =         30 seconds =       0.50 minutes

  //>>>>>>>>>>>>>>>>>>>>>>>>>>>>>>>>>>>//
  //    Loading displacement 5 of 5    //
  //<<<<<<<<<<<<<<<<<<<<<<<<<<<<<<<<<<<//

*** tstart() called on bp1-compute00149.data.bp.acrc.priv
*** at Tue Apr 27 16:44:51 2021

   => Loading Basis Set <=

    Name: AUG-CC-PV(Q+D)Z
    Role: ORBITAL
    Keyword: BASIS
    atoms 1   entry C          line   319 file /work/zw18965/.conda/envs/p4env/share/psi4/basis/aug-cc-pv_qpd_z.gbs 
    atoms 2-3 entry CL         line  1246 file /work/zw18965/.conda/envs/p4env/share/psi4/basis/aug-cc-pv_qpd_z.gbs 


         ---------------------------------------------------------
                                   SCF
               by Justin Turney, Rob Parrish, Andy Simmonett
                          and Daniel G. A. Smith
                              RKS Reference
                       24 Threads, 137329 MiB Core
         ---------------------------------------------------------

  ==> Geometry <==

    Molecular point group: c2v
    Full point group: C2v

    Geometry (in Angstrom), charge = 0, multiplicity = 1:

       Center              X                  Y                   Z               Mass       
    ------------   -----------------  -----------------  -----------------  -----------------
         C           -0.000000000000     0.000000000000    -0.849813461927    12.000000000000
         CL          -0.000000000000     1.400723435995     0.145812069327    34.968852682000
         CL           0.000000000000    -1.400723435995     0.145812069327    34.968852682000

  Running in c2v symmetry.

  Rotational constants: A =      1.66033  B =      0.12285  C =      0.11439 [cm^-1]
  Rotational constants: A =  49775.57916  B =   3682.99416  C =   3429.25664 [MHz]
  Nuclear repulsion =  117.407524784104496

  Charge       = 0
  Multiplicity = 1
  Electrons    = 40
  Nalpha       = 20
  Nbeta        = 20

  ==> Algorithm <==

  SCF Algorithm Type is DF.
  DIIS enabled.
  MOM disabled.
  Fractional occupation disabled.
  Guess Type is SAD.
  Energy threshold   = 1.00e-08
  Density threshold  = 1.00e-08
  Integral threshold = 0.00e+00

  ==> Primary Basis <==

  Basis Set: AUG-CC-PV(Q+D)Z
    Blend: AUG-CC-PV(Q+D)Z
    Number of shells: 66
    Number of basis function: 258
    Number of Cartesian functions: 335
    Spherical Harmonics?: true
    Max angular momentum: 4

  ==> DFT Potential <==

   => Composite Functional: WB97M-V <= 

    wB97M-V Hyb-GGA Exchange-Correlation Functional

    N. Mardirossian and M. Head-Gordon, J. Chem. Phys. 144, 214110 (2016)

    Deriv               =              1
    GGA                 =           TRUE
    Meta                =           TRUE

    Exchange Hybrid     =           TRUE
    MP2 Hybrid          =          FALSE

   => Exchange-Correlation Functionals <=

    1.0000   wB97M-V exchange-correlation functional

   => Exact (HF) Exchange <=

    0.8500            HF,LR [omega = 0.3000]
    0.1500               HF 

   => VV10 Non-Local Parameters <=

    VV10 B              =     6.0000E+00
    VV10 C              =     1.0000E-02

   => Molecular Quadrature <=

    Radial Scheme          =       TREUTLER
    Pruning Scheme         =           FLAT
    Nuclear Scheme         =       TREUTLER

    BS radius alpha        =              1
    Pruning alpha          =              1
    Radial Points          =             75
    Spherical Points       =            302
    Total Points           =          67950
    Total Blocks           =            609
    Max Points             =            256
    Max Functions          =            253

   => Loading Basis Set <=

    Name: (AUG-CC-PV(Q+D)Z AUX)
    Role: JKFIT
    Keyword: DF_BASIS_SCF
    atoms 1   entry C          line   178 file /work/zw18965/.conda/envs/p4env/share/psi4/basis/aug-cc-pvqz-jkfit.gbs 
    atoms 2-3 entry CL         line   904 file /work/zw18965/.conda/envs/p4env/share/psi4/basis/aug-cc-pvqz-jkfit.gbs 

  ==> Pre-Iterations <==

   -------------------------------------------------------
    Irrep   Nso     Nmo     Nalpha   Nbeta   Ndocc  Nsocc
   -------------------------------------------------------
     A1        87      87       0       0       0       0
     A2        44      44       0       0       0       0
     B1        52      52       0       0       0       0
     B2        75      75       0       0       0       0
   -------------------------------------------------------
    Total     258     258      20      20      20       0
   -------------------------------------------------------

  ==> Integral Setup <==

  ==> DiskDFJK: Density-Fitted J/K Matrices <==

    J tasked:                  Yes
    K tasked:                  Yes
    wK tasked:                 Yes
    Omega:               3.000E-01
    OpenMP threads:             24
    Integrals threads:          24
    Memory [MiB]:           101887
    Algorithm:                Core
    Integral Cache:           NONE
    Schwarz Cutoff:          1E-12
    Fitting Condition:       1E-10

   => Auxiliary Basis Set <=

  Basis Set: (AUG-CC-PV(Q+D)Z AUX)
    Blend: AUG-CC-PVQZ-JKFIT
    Number of shells: 126
    Number of basis function: 510
    Number of Cartesian functions: 692
    Spherical Harmonics?: true
    Max angular momentum: 5

  Cached 100.0% of DFT collocation blocks in 1.083 [GiB].

  Minimum eigenvalue in the overlap matrix is 5.3382353257E-05.
  Using Symmetric Orthogonalization.

  SCF Guess: Superposition of Atomic Densities via on-the-fly atomic UHF.

  ==> Iterations <==

                           Total Energy        Delta E     RMS |[F,P]|

   @DF-RKS iter SAD:  -958.12645783381572   -9.58126e+02   0.00000e+00 
   @DF-RKS iter   1:  -958.38394555006187   -2.57488e-01   1.82216e-03 DIIS
   @DF-RKS iter   2:  -958.40583524039846   -2.18897e-02   6.15601e-04 DIIS
   @DF-RKS iter   3:  -958.40776191858345   -1.92668e-03   1.17038e-04 DIIS
   @DF-RKS iter   4:  -958.40796191435140   -1.99996e-04   6.45812e-05 DIIS
   @DF-RKS iter   5:  -958.40801101453474   -4.91002e-05   2.90882e-05 DIIS
   @DF-RKS iter   6:  -958.40802127069514   -1.02562e-05   7.81656e-06 DIIS
   @DF-RKS iter   7:  -958.40802239770085   -1.12701e-06   1.72251e-06 DIIS
   @DF-RKS iter   8:  -958.40802251448167   -1.16781e-07   5.95762e-07 DIIS
   @DF-RKS iter   9:  -958.40802252495405   -1.04724e-08   2.13990e-07 DIIS
   @DF-RKS iter  10:  -958.40802252628077   -1.32673e-09   6.08277e-08 DIIS
   @DF-RKS iter  11:  -958.40802252644198   -1.61208e-10   1.24245e-08 DIIS
   @DF-RKS iter  12:  -958.40802252644994   -7.95808e-12   3.01579e-09 DIIS
  Energy and wave function converged.


  ==> Post-Iterations <==

    Orbital Energies [Eh]
    ---------------------

    Doubly Occupied:                                                      

       1B2  -101.938279     1A1  -101.938278     2A1   -10.505189  
       2B2    -9.696404     3A1    -9.696394     3B2    -7.400096  
       4A1    -7.400095     1A2    -7.395579     1B1    -7.395576  
       5A1    -7.392448     4B2    -7.392447     6A1    -1.063910  
       5B2    -0.982981     7A1    -0.724112     6B2    -0.571973  
       8A1    -0.528590     2B1    -0.524391     2A2    -0.451838  
       7B2    -0.431753     9A1    -0.363533  

    Virtual:                                                              

       3B1    -0.042913    10A1     0.027532     8B2     0.035587  
      11A1     0.050469     4B1     0.058415    12A1     0.062978  
       9B2     0.078492     3A2     0.085993    13A1     0.088444  
       5B1     0.094219    10B2     0.113896    14A1     0.121359  
      11B2     0.139111    15A1     0.174670    12B2     0.185308  
       6B1     0.195452    16A1     0.210552     4A2     0.228022  
      13B2     0.242775    17A1     0.266308     7B1     0.273103  
      14B2     0.274314    18A1     0.278414     5A2     0.293614  
      19A1     0.301067     8B1     0.303284    15B2     0.313866  
      20A1     0.315710     6A2     0.328610    16B2     0.349370  
       9B1     0.381368    21A1     0.416741    10B1     0.462046  
      17B2     0.462557    22A1     0.463918     7A2     0.484199  
      23A1     0.488573    18B2     0.499978    11B1     0.511782  
       8A2     0.515678    24A1     0.519374    19B2     0.521433  
      20B2     0.549046    25A1     0.552250    12B1     0.565066  
       9A2     0.567191    26A1     0.571436    21B2     0.658216  
      27A1     0.699803    22B2     0.702919    28A1     0.722740  
      13B1     0.723824    23B2     0.753417    10A2     0.760129  
      29A1     0.762731    14B1     0.773475    15B1     0.818580  
      30A1     0.818920    24B2     0.839599    11A2     0.845343  
      31A1     0.952738    16B1     0.970570    25B2     0.984253  
      32A1     0.986883    12A2     0.988481    26B2     0.994683  
      13A2     1.031763    17B1     1.033609    27B2     1.037043  
      33A1     1.039208    34A1     1.052829    28B2     1.058549  
      35A1     1.094273    29B2     1.104109    18B1     1.104450  
      14A2     1.161647    30B2     1.206325    36A1     1.274563  
      19B1     1.337155    37A1     1.355798    38A1     1.410006  
      31B2     1.412984    20B1     1.423637    15A2     1.431818  
      32B2     1.487543    39A1     1.504864    16A2     1.509126  
      21B1     1.527825    40A1     1.560147    22B1     1.586642  
      41A1     1.592262    17A2     1.598050    42A1     1.631437  
      33B2     1.635180    34B2     1.682755    23B1     1.709081  
      43A1     1.737677    18A2     1.748898    24B1     1.752464  
      35B2     1.772242    44A1     1.773860    25B1     1.807805  
      19A2     1.813125    36B2     1.826148    37B2     1.888432  
      45A1     1.892588    38B2     1.915884    46A1     1.925879  
      26B1     1.932383    20A2     1.938120    21A2     1.979693  
      39B2     2.021831    22A2     2.025222    27B1     2.035458  
      40B2     2.046789    47A1     2.067535    48A1     2.096309  
      41B2     2.104979    49A1     2.118444    28B1     2.128801  
      29B1     2.174299    23A2     2.178666    42B2     2.208697  
      30B1     2.210518    50A1     2.232853    43B2     2.249992  
      24A2     2.295449    51A1     2.304856    44B2     2.313071  
      25A2     2.370066    52A1     2.409455    53A1     2.440383  
      31B1     2.454040    45B2     2.468558    54A1     2.575472  
      46B2     2.590660    55A1     2.640060    32B1     2.680036  
      26A2     2.762797    56A1     2.779575    33B1     2.836551  
      47B2     2.859576    48B2     2.964322    27A2     2.969917  
      57A1     2.990729    58A1     3.033825    34B1     3.036546  
      49B2     3.043666    28A2     3.133651    59A1     3.220913  
      50B2     3.240577    51B2     3.271448    60A1     3.339832  
      35B1     3.493483    29A2     3.516207    61A1     3.564555  
      52B2     3.618501    30A2     3.746295    36B1     3.774143  
      62A1     3.793311    53B2     4.001737    54B2     4.213769  
      63A1     4.231026    37B1     4.304639    64A1     4.336897  
      31A2     4.355905    55B2     4.367567    38B1     4.368143  
      65A1     4.368153    39B1     4.379253    66A1     4.381742  
      32A2     4.388215    67A1     4.404036    56B2     4.411967  
      40B1     4.424691    33A2     4.430115    57B2     4.453800  
      68A1     4.454229    34A2     4.489218    41B1     4.510432  
      58B2     4.522037    59B2     4.531677    35A2     4.540517  
      60B2     4.592854    69A1     4.593807    36A2     4.629668  
      42B1     4.677556    70A1     4.710152    61B2     4.730737  
      43B1     4.795306    37A2     4.817388    71A1     4.853859  
      62B2     4.854717    72A1     4.998528    63B2     5.057129  
      44B1     5.669520    45B1     5.804126    73A1     5.810374  
      38A2     5.839946    74A1     5.899485    64B2     5.940053  
      75A1     5.955332    46B1     6.010524    39A2     6.092006  
      47B1     6.164329    40A2     6.181989    76A1     6.185447  
      65B2     6.204860    66B2     6.281225    77A1     6.330940  
      48B1     6.393668    67B2     6.514098    49B1     6.536463  
      78A1     6.561602    41A2     6.691093    79A1     6.735266  
      68B2     6.881902    80A1     6.914672    50B1     6.937339  
      42A2     6.963785    69B2     7.199165    81A1     7.242143  
      70B2     7.353904    82A1     8.038085    71B2     8.281696  
      43A2    10.849737    51B1    10.849904    83A1    10.855036  
      72B2    10.902354    52B1    11.076020    44A2    11.076988  
      84A1    11.142745    73B2    11.258560    85A1    11.398450  
      74B2    11.420787    86A1    22.026812    87A1    25.432965  
      75B2    25.571574  

    Final Occupation by Irrep:
             A1    A2    B1    B2 
    DOCC [     9,    2,    2,    7 ]

  @DF-RKS Final Energy:  -958.40802252644994

   => Energetics <=

    Nuclear Repulsion Energy =            117.4075247841044956
    One-Electron Energy =               -1554.3655160937144046
    Two-Electron Energy =                 525.8292253693729208
    DFT Exchange-Correlation Energy =     -47.4445817580321716
    Empirical Dispersion Energy =           0.0000000000000000
    VV10 Nonlocal Energy =                  0.1653251718192510
    Total Energy =                       -958.4080225264499404

Computation Completed


Properties will be evaluated at   0.000000,   0.000000,   0.000000 [a0]

Properties computed using the SCF density matrix

  Nuclear Dipole Moment: [e a0]
     X:     0.0000      Y:     0.0000      Z:    -0.2670

  Electronic Dipole Moment: [e a0]
     X:     0.0000      Y:     0.0000      Z:     0.6907

  Dipole Moment: [e a0]
     X:     0.0000      Y:     0.0000      Z:     0.4238     Total:     0.4238

  Dipole Moment: [D]
     X:     0.0000      Y:     0.0000      Z:     1.0771     Total:     1.0771


*** tstop() called on bp1-compute00149.data.bp.acrc.priv at Tue Apr 27 16:44:57 2021
Module time:
	user time   =     147.47 seconds =       2.46 minutes
	system time =       3.35 seconds =       0.06 minutes
	total time  =          6 seconds =       0.10 minutes
Total time:
	user time   =     774.82 seconds =      12.91 minutes
	system time =      26.93 seconds =       0.45 minutes
	total time  =         36 seconds =       0.60 minutes

         ----------------------------------------------------------
                                   FINDIF
                     R. A. King and Jonathon Misiewicz
         ---------------------------------------------------------

  Computing gradient from energies.
    Using 3-point formula.
    Energy without displacement: -958.4080276348
    Check energies below for precision!
    Forces are for mass-weighted, symmetry-adapted cartesians (in au).

     Coord      Energy(-1)        Energy(+1)            Force
        0   -958.4080207322   -958.4080340716     -0.0013339397
        1   -958.4080325817   -958.4080225264      0.0010055252


-------------------------------------------------------------
  ## New Matrix (Symmetry 0) ##
  Irrep: 1 Size: 3 x 3

                 1                   2                   3

    1     0.00000000000000     0.00000000000000    -0.00426914204280
    2     0.00000000000000     0.00420454159523     0.00213457102140
    3     0.00000000000000    -0.00420454159523     0.00213457102140




			-----------------------------------------
			 OPTKING 2.0: for geometry optimizations 
			  - R.A. King,  Bethel University        
			-----------------------------------------
	At level 1: Red. Int., RFO, no backsteps, dynamic trust

	Internal coordinates to be generated automatically.
	Detected frag 1 with atoms:  1 2 3
	---Fragment 1 Bond Connectivity---
	 1 : 2 3
	 2 : 1
	 3 : 1

	---Fragment 1 Geometry and Gradient---
	 C           0.0000000000        0.0000000000       -1.6059147008
	 CL         -0.0000000000        2.6463857911        0.2755448768
	 CL          0.0000000000       -2.6463857911        0.2755448768
	             0.0000000000        0.0000000000       -0.0042691420
	             0.0000000000        0.0042045416        0.0021345710
	             0.0000000000       -0.0042045416        0.0021345710

	Previous optimization step data not found.  Starting new optimization.

	---Fragment 1 Intrafragment Coordinates---
	 - Coordinate -           - BOHR/RAD -       - ANG/DEG -
	 R(1,2)           =         3.247037	       1.718258
	 R(1,3)           =         3.247037	       1.718258
	 B(2,1,3)         =         1.905512	     109.177818

	Current energy   :      -958.4080276348

	Generating empirical Hessian (Schlegel '84) for each fragment.
	Taking RFO optimization step.
	Going to follow RFO solution 1.
	Using RFO vector 1.
	Norm of target step-size    0.02151
	Projected energy change by RFO approximation:        -0.0000558970

	Back-transformation to cartesian coordinates...
	Successfully converged to displaced geometry.

	--- Internal Coordinate Step in ANG or DEG, aJ/ANG or AJ/DEG ---
	 ---------------------------------------------------------------------------
	   Coordinate                Previous        Force       Change         New 
	   ----------                --------       ------       ------       ------
	    1 R(1,2)          =      1.718258    -0.038422    -0.007303     1.710955
	    2 R(1,3)          =      1.718258    -0.038422    -0.007303     1.710955
	    3 B(2,1,3)        =    109.177818    -0.000172    -0.518052   108.659766
	 ---------------------------------------------------------------------------
	Successfully symmetrized geometry.

  ==> Convergence Check <==

  Measures of convergence in internal coordinates in au.
  Criteria marked as inactive (o), active & met (*), and active & unmet ( ).
  --------------------------------------------------------------------------------------------- ~
   Step     Total Energy     Delta E     MAX Force     RMS Force      MAX Disp      RMS Disp    ~
  --------------------------------------------------------------------------------------------- ~
    Convergence Criteria    1.00e-06 *    3.00e-04 *             o    1.20e-03 *             o  ~
  --------------------------------------------------------------------------------------------- ~
      1    -958.40802763   -9.58e+02      4.66e-03      4.03e-03 o    1.38e-02      1.24e-02 o  ~
  ---------------------------------------------------------------------------------------------

	Writing optimization data to binary file.
	Structure for next step:
	Cartesian Geometry (in Angstrom)
	    C    -0.0000000000   0.0000000000  -0.8511884967
	   CL    -0.0000000000   1.3899591129   0.1464995878
	   CL     0.0000000000  -1.3899591129   0.1464995878
			--------------------------
			 OPTKING Finished Execution 
			--------------------------

    Structure for next step:
    Molecular point group: c2v
    Full point group: C2v

    Geometry (in Angstrom), charge = 0, multiplicity = 1:

    C            0.000000000000     0.000000000000    -0.851573952024
    CL          -0.000000000000     1.389959118343     0.146114136446
    CL           0.000000000000    -1.389959118343     0.146114136446

gradient() will perform gradient computation by finite difference of analytic energies.

         ----------------------------------------------------------
                                   FINDIF
                     R. A. King and Jonathon Misiewicz
         ---------------------------------------------------------

  Using finite-differences of energies to determine gradients.
    Generating geometries for use with 3-point formula.
    Displacement size will be 5.00e-03.
    Number of atoms is 3.
    Number of symmetric SALCs is 2.
    Translations projected? 1. Rotations projected? 1.
    Number of geometries (including reference) is 5.

  //>>>>>>>>>>>>>>>>>>>>>>>>>>>>>>>>>>>//
  //    Loading displacement 1 of 5    //
  //<<<<<<<<<<<<<<<<<<<<<<<<<<<<<<<<<<<//

*** tstart() called on bp1-compute00149.data.bp.acrc.priv
*** at Tue Apr 27 16:44:57 2021

   => Loading Basis Set <=

    Name: AUG-CC-PV(Q+D)Z
    Role: ORBITAL
    Keyword: BASIS
    atoms 1   entry C          line   319 file /work/zw18965/.conda/envs/p4env/share/psi4/basis/aug-cc-pv_qpd_z.gbs 
    atoms 2-3 entry CL         line  1246 file /work/zw18965/.conda/envs/p4env/share/psi4/basis/aug-cc-pv_qpd_z.gbs 


         ---------------------------------------------------------
                                   SCF
               by Justin Turney, Rob Parrish, Andy Simmonett
[...]

   => Composite Functional: WB97M-V <= 

    wB97M-V Hyb-GGA Exchange-Correlation Functional

    N. Mardirossian and M. Head-Gordon, J. Chem. Phys. 144, 214110 (2016)

    Deriv               =              1
    GGA                 =           TRUE
    Meta                =           TRUE

    Exchange Hybrid     =           TRUE
    MP2 Hybrid          =          FALSE

   => Exchange-Correlation Functionals <=

    1.0000   wB97M-V exchange-correlation functional

   => Exact (HF) Exchange <=

    0.8500            HF,LR [omega = 0.3000]
    0.1500               HF 

   => VV10 Non-Local Parameters <=

    VV10 B              =     6.0000E+00
    VV10 C              =     1.0000E-02

   => Molecular Quadrature <=

    Radial Scheme          =       TREUTLER
    Pruning Scheme         =           FLAT
    Nuclear Scheme         =       TREUTLER

    BS radius alpha        =              1
    Pruning alpha          =              1
    Radial Points          =             75
    Spherical Points       =            302
    Total Points           =          67950
    Total Blocks           =            604
    Max Points             =            255
    Max Functions          =            253

   => Loading Basis Set <=

    Name: (AUG-CC-PV(Q+D)Z AUX)
    Role: JKFIT
    Keyword: DF_BASIS_SCF
    atoms 1   entry C          line   178 file /work/zw18965/.conda/envs/p4env/share/psi4/basis/aug-cc-pvqz-jkfit.gbs 
    atoms 2-3 entry CL         line   904 file /work/zw18965/.conda/envs/p4env/share/psi4/basis/aug-cc-pvqz-jkfit.gbs 

  ==> Pre-Iterations <==

   -------------------------------------------------------
    Irrep   Nso     Nmo     Nalpha   Nbeta   Ndocc  Nsocc
   -------------------------------------------------------
     A'       162     162       0       0       0       0
     A"        96      96       0       0       0       0
   -------------------------------------------------------
    Total     258     258      20      20      20       0
   -------------------------------------------------------

  ==> Integral Setup <==

  ==> DiskDFJK: Density-Fitted J/K Matrices <==

    J tasked:                  Yes
    K tasked:                  Yes
    wK tasked:                 Yes
    Omega:               3.000E-01
    OpenMP threads:             24
    Integrals threads:          24
    Memory [MiB]:           101886
    Algorithm:                Core
    Integral Cache:           NONE
    Schwarz Cutoff:          1E-12
    Fitting Condition:       1E-10

   => Auxiliary Basis Set <=

  Basis Set: (AUG-CC-PV(Q+D)Z AUX)
    Blend: AUG-CC-PVQZ-JKFIT
    Number of shells: 126
    Number of basis function: 510
    Number of Cartesian functions: 692
    Spherical Harmonics?: true
    Max angular momentum: 5

  Cached 100.0% of DFT collocation blocks in 1.085 [GiB].

  Minimum eigenvalue in the overlap matrix is 5.1801811443E-05.
  Using Symmetric Orthogonalization.

  SCF Guess: Superposition of Atomic Densities via on-the-fly atomic UHF.

  ==> Iterations <==

                           Total Energy        Delta E     RMS |[F,P]|

   @DF-RKS iter SAD:  -958.15433245626707   -9.58154e+02   0.00000e+00 
   @DF-RKS iter   1:  -958.38364111612862   -2.29309e-01   1.29562e-03 DIIS
   @DF-RKS iter   2:  -958.40575209099200   -2.21110e-02   4.41595e-04 DIIS
   @DF-RKS iter   3:  -958.40778632906938   -2.03424e-03   1.04497e-04 DIIS
   @DF-RKS iter   4:  -958.40800794402651   -2.21615e-04   6.72740e-05 DIIS
   @DF-RKS iter   5:  -958.40810619247247   -9.82484e-05   1.81479e-05 DIIS
   @DF-RKS iter   6:  -958.40811617257714   -9.98010e-06   4.88835e-06 DIIS
   @DF-RKS iter   7:  -958.40811720132058   -1.02874e-06   1.21714e-06 DIIS
   @DF-RKS iter   8:  -958.40811731098302   -1.09662e-07   4.14887e-07 DIIS
   @DF-RKS iter   9:  -958.40811732074383   -9.76081e-09   1.53442e-07 DIIS
   @DF-RKS iter  10:  -958.40811732204793   -1.30410e-09   4.55910e-08 DIIS
   @DF-RKS iter  11:  -958.40811732220084   -1.52909e-10   1.86435e-08 DIIS
   @DF-RKS iter  12:  -958.40811732221255   -1.17097e-11   5.76277e-09 DIIS
   @DF-RKS iter  13:  -958.40811732221528   -2.72848e-12   1.13277e-09 DIIS
   @DF-RKS iter  14:  -958.40811732221619   -9.09495e-13   2.42164e-10 DIIS
   @DF-RKS iter  15:  -958.40811732221493    1.25056e-12   1.07461e-10 DIIS
   @DF-RKS iter  16:  -958.40811732221550   -5.68434e-13   3.09821e-11 DIIS
  Energy and wave function converged.


  ==> Post-Iterations <==

    Orbital Energies [Eh]
    ---------------------

    Doubly Occupied:                                                      

       1Ap  -101.938531     2Ap  -101.938256     3Ap   -10.501876  
       4Ap    -9.696854     5Ap    -9.696562     6Ap    -7.400523  
       7Ap    -7.400237     1App   -7.396047     2App   -7.395750  
       8Ap    -7.392871     9Ap    -7.392582    10Ap    -1.067505  
      11Ap    -0.984261    12Ap    -0.724057    13Ap    -0.573666  
      14Ap    -0.530422     3App   -0.526525     4App   -0.452194  
      15Ap    -0.431500    16Ap    -0.361621  

    Virtual:                                                              

       5App   -0.041290    17Ap     0.027499    18Ap     0.035674  
      19Ap     0.051643     6App    0.058321    20Ap     0.063382  
      21Ap     0.078577     7App    0.085872    22Ap     0.088418  
       8App    0.094263    23Ap     0.114246    24Ap     0.122945  
      25Ap     0.141530    26Ap     0.174639    27Ap     0.185585  
       9App    0.195444    28Ap     0.210539    10App    0.228322  
      29Ap     0.242936    30Ap     0.266611    11App    0.273207  
      31Ap     0.274863    32Ap     0.278798    12App    0.293116  
      33Ap     0.301384    13App    0.303749    34Ap     0.314152  
      35Ap     0.316063    14App    0.329173    36Ap     0.350112  
      15App    0.380923    37Ap     0.416351    16App    0.461297  
      38Ap     0.461912    39Ap     0.464080    17App    0.484257  
      40Ap     0.487784    41Ap     0.500027    18App    0.512183  
      19App    0.515478    42Ap     0.518974    43Ap     0.521193  
      44Ap     0.549065    45Ap     0.553314    20App    0.566235  
      21App    0.567859    46Ap     0.572396    47Ap     0.660708  
      48Ap     0.701844    49Ap     0.705941    22App    0.723880  
      50Ap     0.724581    51Ap     0.754560    23App    0.761031  
      52Ap     0.765080    24App    0.776049    25App    0.819848  
      53Ap     0.820000    54Ap     0.841808    26App    0.847460  
      55Ap     0.955602    27App    0.971350    56Ap     0.983823  
      57Ap     0.987272    28App    0.989067    58Ap     0.995564  
      29App    1.032673    30App    1.033763    59Ap     1.038875  
      60Ap     1.039148    61Ap     1.052438    62Ap     1.057913  
      63Ap     1.096107    64Ap     1.104779    31App    1.105607  
      32App    1.162471    65Ap     1.208188    66Ap     1.275144  
      33App    1.337017    67Ap     1.354674    68Ap     1.410882  
      69Ap     1.412362    34App    1.424078    35App    1.432255  
      70Ap     1.488364    71Ap     1.505227    36App    1.510037  
      37App    1.526417    72Ap     1.560787    38App    1.585875  
      73Ap     1.592548    39App    1.599005    74Ap     1.632090  
      75Ap     1.635104    76Ap     1.686408    40App    1.710979  
      77Ap     1.738050    41App    1.750355    42App    1.755781  
      78Ap     1.774544    79Ap     1.775475    43App    1.808649  
      44App    1.814488    80Ap     1.829568    81Ap     1.890464  
      82Ap     1.894260    83Ap     1.919379    84Ap     1.928973  
      45App    1.935516    46App    1.943372    47App    1.981949  
      85Ap     2.026194    48App    2.029350    49App    2.039673  
      86Ap     2.049841    87Ap     2.068785    88Ap     2.098827  
      89Ap     2.108120    90Ap     2.118360    50App    2.130391  
      51App    2.175172    52App    2.180964    53App    2.213794  
      91Ap     2.214501    92Ap     2.234946    93Ap     2.253506  
      54App    2.300704    94Ap     2.307595    95Ap     2.317830  
      55App    2.376982    96Ap     2.416686    97Ap     2.446651  
      56App    2.459945    98Ap     2.479129    99Ap     2.584381  
     100Ap     2.600426   101Ap     2.638170    57App    2.685839  
      58App    2.771350   102Ap     2.787394    59App    2.846443  
     103Ap     2.862399   104Ap     2.971485    60App    2.975722  
     105Ap     3.000634   106Ap     3.031581    61App    3.041324  
     107Ap     3.058478    62App    3.134626   108Ap     3.224905  
     109Ap     3.244024   110Ap     3.270879   111Ap     3.353283  
      63App    3.495962    64App    3.518862   112Ap     3.572663  
     113Ap     3.622843    65App    3.749879    66App    3.780024  
     114Ap     3.802203   115Ap     4.003684   116Ap     4.213937  
     117Ap     4.232841    67App    4.303108   118Ap     4.337959  
      68App    4.353796   119Ap     4.367300    69App    4.367371  
     120Ap     4.367725    70App    4.378484   121Ap     4.383241  
      71App    4.388965   122Ap     4.403395   123Ap     4.412319  
      72App    4.424405    73App    4.430824   124Ap     4.456747  
     125Ap     4.461079    74App    4.493187    75App    4.512988  
     126Ap     4.520011   127Ap     4.535632    76App    4.545332  
     128Ap     4.597329   129Ap     4.602937    77App    4.626598  
      78App    4.685917   130Ap     4.718533   131Ap     4.732336  
      79App    4.801830    80App    4.824912   132Ap     4.854134  
     133Ap     4.854718   134Ap     5.007440   135Ap     5.069546  
      81App    5.674905    82App    5.808094   136Ap     5.815288  
      83App    5.843303   137Ap     5.905300   138Ap     5.949435  
     139Ap     5.961720    84App    6.014238    85App    6.102812  
      86App    6.170718   140Ap     6.186888    87App    6.193115  
     141Ap     6.220490   142Ap     6.289544   143Ap     6.341332  
      88App    6.403729   144Ap     6.543617    89App    6.557679  
     145Ap     6.574812    90App    6.709462   146Ap     6.747393  
     147Ap     6.898899   148Ap     6.942101    91App    6.951420  
      92App    6.981487   149Ap     7.205295   150Ap     7.244319  
     151Ap     7.373965   152Ap     8.086320   153Ap     8.331026  
      93App   10.851114    94App   10.851808   154Ap    10.857899  
     155Ap    10.904137    95App   11.082118    96App   11.082830  
     156Ap    11.157337   157Ap    11.259377   158Ap    11.403676  
     159Ap    11.421869   160Ap    22.080131   161Ap    25.459496  
     162Ap    25.610703  

    Final Occupation by Irrep:
             Ap   App 
    DOCC [    16,    4 ]

  @DF-RKS Final Energy:  -958.40811732221550

   => Energetics <=

    Nuclear Repulsion Energy =            118.1279930286875697
    One-Electron Energy =               -1555.7868002233003608
    Two-Electron Energy =                 526.5366805379264861
    DFT Exchange-Correlation Energy =     -47.4512770171344158
    Empirical Dispersion Energy =           0.0000000000000000
    VV10 Nonlocal Energy =                  0.1652863516052914
    Total Energy =                       -958.4081173222153893

Computation Completed


Properties will be evaluated at   0.000000,   0.000000,   0.000000 [a0]

Properties computed using the SCF density matrix

  Nuclear Dipole Moment: [e a0]
     X:     0.0000      Y:    -0.0002      Z:    -0.2654

  Electronic Dipole Moment: [e a0]
     X:     0.0000      Y:    -0.0029      Z:     0.7048

  Dipole Moment: [e a0]
     X:     0.0000      Y:    -0.0031      Z:     0.4394     Total:     0.4394

  Dipole Moment: [D]
     X:     0.0000      Y:    -0.0079      Z:     1.1168     Total:     1.1168


*** tstop() called on bp1-compute00149.data.bp.acrc.priv at Tue Apr 27 16:47:20 2021
Module time:
	user time   =     178.68 seconds =       2.98 minutes
	system time =       3.34 seconds =       0.06 minutes
	total time  =          8 seconds =       0.13 minutes
Total time:
	user time   =    3882.98 seconds =      64.72 minutes
	system time =      99.11 seconds =       1.65 minutes
	total time  =        179 seconds =       2.98 minutes

         ----------------------------------------------------------
                                   FINDIF
                     R. A. King and Jonathon Misiewicz
         ---------------------------------------------------------

  Computing second-derivative from energies using projected, 
  symmetry-adapted, cartesian coordinates.

  8 energies passed in, including the reference geometry.
    Using 3-point formula.
    Energy without displacement: -958.4081176182
    Check energies below for precision!
    0: -1        :      -958.4081173956
    0: 1         :      -958.4081173616
    1: -1        :      -958.4081175288
    1: 1         :      -958.4081175546
    0: 1, 1: 1   :      -958.4081174269
    0: -1, 1: -1 :      -958.4081174356
    2: -1        :      -958.4081173222

-------------------------------------------------------------


  ==> Harmonic Vibrational Analysis <==

  non-mass-weighted Hessian:       Symmetric? True   Hermitian? True   Lin Dep Dim?  6 (0)
  projection of translations (True) and rotations (True) removed 6 degrees of freedom (6)
  total projector:                 Symmetric? True   Hermitian? True   Lin Dep Dim?  6 (6)
  mass-weighted Hessian:           Symmetric? True   Hermitian? True   Lin Dep Dim?  6 (0)
  pre-proj  low-frequency mode:    0.0000i [cm^-1]
  pre-proj  low-frequency mode:    0.0000i [cm^-1]
  pre-proj  low-frequency mode:    0.0000  [cm^-1]
  pre-proj  low-frequency mode:    0.0000  [cm^-1]
  pre-proj  low-frequency mode:    0.0000  [cm^-1]
  pre-proj  low-frequency mode:    0.0000  [cm^-1]
  pre-proj  all modes:['0.0000i' '0.0000i' '0.0000' '0.0000' '0.0000' '0.0000' '338.0307'
 '744.3453' '791.0536']
  projected mass-weighted Hessian: Symmetric? True   Hermitian? True   Lin Dep Dim?  6 (6)
  post-proj low-frequency mode:    0.0000i [cm^-1] (TR)
  post-proj low-frequency mode:    0.0000i [cm^-1] (TR)
  post-proj low-frequency mode:    0.0000  [cm^-1] (TR)
  post-proj low-frequency mode:    0.0000  [cm^-1] (TR)
  post-proj low-frequency mode:    0.0000  [cm^-1] (TR)
  post-proj low-frequency mode:    0.0000  [cm^-1] (TR)
  post-proj  all modes:['0.0000i' '0.0000i' '0.0000' '0.0000' '0.0000' '0.0000' '338.0307'
 '744.3453' '791.0536']

  Vibration                       7                   8                   9           
  Freq [cm^-1]                 338.0307            744.3453            791.0536       
  Irrep                           A1                  A1                  B2          
  Reduced mass [u]             29.7202             14.2315             13.8703        
  Force const [mDyne/A]         2.0008              4.6457              5.1139        
  Turning point v=0 [a0]        0.1095              0.1066              0.1048        
  RMS dev v=0 [a0 u^1/2]        0.4220              0.2844              0.2759        
  Char temp [K]                486.3509           1070.9471           1138.1500       
  ----------------------------------------------------------------------------------
      1   C               -0.00 -0.00  0.48    0.00 -0.00  0.95    0.00  0.96  0.00   
      2   CL              -0.00  0.62 -0.08   -0.00 -0.15 -0.16   -0.00 -0.16 -0.12   
      3   CL               0.00 -0.62 -0.08    0.00  0.15 -0.16    0.00 -0.16  0.12   

  ==> Thermochemistry Components <==

  Entropy, S
    Electronic S            0.000 [cal/(mol K)]        0.000 [J/(mol K)]       0.00000000 [mEh/K] (multiplicity = 1)
    Translational S        39.124 [cal/(mol K)]      163.696 [J/(mol K)]       0.06234835 [mEh/K] (mol. weight = 81.9377 [u], P = 101325.00 [Pa])
    Rotational S           22.338 [cal/(mol K)]       93.460 [J/(mol K)]       0.03559716 [mEh/K] (symmetry no. = 2)
    Vibrational S           1.694 [cal/(mol K)]        7.087 [J/(mol K)]       0.00269927 [mEh/K]
  Total S                  63.156 [cal/(mol K)]      264.243 [J/(mol K)]       0.10064478 [mEh/K]
  Correction S              0.000 [cal/(mol K)]        0.000 [J/(mol K)]       0.00000000 [mEh/K]

  Constant volume heat capacity, Cv
    Electronic Cv           0.000 [cal/(mol K)]        0.000 [J/(mol K)]       0.00000000 [mEh/K]
    Translational Cv        2.981 [cal/(mol K)]       12.472 [J/(mol K)]       0.00475022 [mEh/K]
    Rotational Cv           2.981 [cal/(mol K)]       12.472 [J/(mol K)]       0.00475022 [mEh/K]
    Vibrational Cv          3.012 [cal/(mol K)]       12.602 [J/(mol K)]       0.00479978 [mEh/K]
  Total Cv                  8.974 [cal/(mol K)]       37.545 [J/(mol K)]       0.01430022 [mEh/K]
  Correction Cv             0.000 [cal/(mol K)]        0.000 [J/(mol K)]       0.00000000 [mEh/K]

  Constant pressure heat capacity, Cp
    Electronic Cp           0.000 [cal/(mol K)]        0.000 [J/(mol K)]       0.00000000 [mEh/K]
    Translational Cp        4.968 [cal/(mol K)]       20.786 [J/(mol K)]       0.00791703 [mEh/K]
    Rotational Cp           2.981 [cal/(mol K)]       12.472 [J/(mol K)]       0.00475022 [mEh/K]
    Vibrational Cp          3.012 [cal/(mol K)]       12.602 [J/(mol K)]       0.00479978 [mEh/K]
  Total Cp                 10.961 [cal/(mol K)]       45.860 [J/(mol K)]       0.01746703 [mEh/K]
  Correction Cp             0.000 [cal/(mol K)]        0.000 [J/(mol K)]       0.00000000 [mEh/K]

  ==> Thermochemistry Energy Analysis <==

  Raw electronic energy, E0
  Total E0, Electronic energy at well bottom at 0 [K]                 -958.40811762 [Eh]

  Zero-point energy, ZPE_vib = Sum_i nu_i / 2
    Electronic ZPE          0.000 [kcal/mol]        0.000 [kJ/mol]       0.00000000 [Eh]
    Translational ZPE       0.000 [kcal/mol]        0.000 [kJ/mol]       0.00000000 [Eh]
    Rotational ZPE          0.000 [kcal/mol]        0.000 [kJ/mol]       0.00000000 [Eh]
    Vibrational ZPE         2.678 [kcal/mol]       11.206 [kJ/mol]       0.00426799 [Eh]         936.715 [cm^-1]
  Correction ZPE            2.678 [kcal/mol]       11.206 [kJ/mol]       0.00426799 [Eh]         936.715 [cm^-1]
  Total ZPE, Electronic energy at 0 [K]                               -958.40384963 [Eh]

  Thermal Energy, E (includes ZPE)
    Electronic E            0.000 [kcal/mol]        0.000 [kJ/mol]       0.00000000 [Eh]
    Translational E         0.889 [kcal/mol]        3.718 [kJ/mol]       0.00141628 [Eh]
    Rotational E            0.889 [kcal/mol]        3.718 [kJ/mol]       0.00141628 [Eh]
    Vibrational E           3.024 [kcal/mol]       12.654 [kJ/mol]       0.00481980 [Eh]
  Correction E              4.802 [kcal/mol]       20.091 [kJ/mol]       0.00765235 [Eh]
  Total E, Electronic energy at  298.15 [K]                           -958.40046527 [Eh]

  Enthalpy, H_trans = E_trans + k_B * T
    Electronic H            0.000 [kcal/mol]        0.000 [kJ/mol]       0.00000000 [Eh]
    Translational H         1.481 [kcal/mol]        6.197 [kJ/mol]       0.00236046 [Eh]
    Rotational H            0.889 [kcal/mol]        3.718 [kJ/mol]       0.00141628 [Eh]
    Vibrational H           3.024 [kcal/mol]       12.654 [kJ/mol]       0.00481980 [Eh]
  Correction H              5.394 [kcal/mol]       22.570 [kJ/mol]       0.00859654 [Eh]
  Total H, Enthalpy at  298.15 [K]                                    -958.39952108 [Eh]

  Gibbs free energy, G = H - T * S
    Electronic G            0.000 [kcal/mol]        0.000 [kJ/mol]       0.00000000 [Eh]
    Translational G       -10.184 [kcal/mol]      -42.608 [kJ/mol]      -0.01622870 [Eh]
    Rotational G           -5.771 [kcal/mol]      -24.147 [kJ/mol]      -0.00919702 [Eh]
    Vibrational G           2.519 [kcal/mol]       10.541 [kJ/mol]       0.00401501 [Eh]
  Correction G            -13.435 [kcal/mol]      -56.214 [kJ/mol]      -0.02141071 [Eh]
  Total G, Free enthalpy at  298.15 [K]                               -958.42952832 [Eh]

    Psi4 stopped on: Tuesday, 27 April 2021 04:47PM
    Psi4 wall time for execution: 0:02:59.01

*** Psi4 exiting successfully. Buy a developer a beer!
