
    -----------------------------------------------------------------------
          Psi4: An Open-Source Ab Initio Electronic Structure Package
                               Psi4 1.3.2 release

                         Git: Rev {HEAD} ecbda83 


    R. M. Parrish, L. A. Burns, D. G. A. Smith, A. C. Simmonett,
    A. E. DePrince III, E. G. Hohenstein, U. Bozkaya, A. Yu. Sokolov,
    R. Di Remigio, R. M. Richard, J. F. Gonthier, A. M. James,
    H. R. McAlexander, A. Kumar, M. Saitow, X. Wang, B. P. Pritchard,
    P. Verma, H. F. Schaefer III, K. Patkowski, R. A. King, E. F. Valeev,
    F. A. Evangelista, J. M. Turney, T. D. Crawford, and C. D. Sherrill,
    J. Chem. Theory Comput. 13(7) pp 3185--3197 (2017).
    (doi: 10.1021/acs.jctc.7b00174)


                         Additional Contributions by
    P. Kraus, H. Kruse, M. H. Lechner, M. C. Schieber, R. A. Shaw,
    A. Alenaizan, R. Galvelis, Z. L. Glick, S. Lehtola, and J. P. Misiewicz

    -----------------------------------------------------------------------


    Psi4 started on: Wednesday, 28 April 2021 01:19PM

    Process ID: 201204
    Host:       bp1-compute00116.data.bp.acrc.priv
    PSIDATADIR: /work/zw18965/.conda/envs/p4env/share/psi4
    Memory:     500.0 MiB
    Threads:    24
    
  ==> Input File <==

--------------------------------------------------------------------------
memory 144 GB

molecule {
0 1
H 0.0000000000 0.0000000000 0.0000000000
C 0.0000000000 0.0000000000 1.0879000000
H 1.0256819563 0.0000000000 1.4505333333
H -0.5128409782 0.8882666304 1.4505333333
H -0.5128409782 -0.8882666304 1.4505333333
symmetry c2
}

set dynamic_level 1
set basis aug-cc-pV(Q+d)Z
set full_hess_every 1
 
optimize("wB97M-V")
frequencies("wB97M-V")
--------------------------------------------------------------------------

  Memory set to 134.110 GiB by Python driver.
gradient() will perform gradient computation by finite difference of analytic energies.

         ----------------------------------------------------------
                                   FINDIF
                     R. A. King and Jonathon Misiewicz
         ---------------------------------------------------------

  Using finite-differences of energies to determine gradients.
    Generating geometries for use with 3-point formula.
    Displacement size will be 5.00e-03.
    Number of atoms is 5.
    Number of symmetric SALCs is 5.
    Translations projected? 1. Rotations projected? 1.
    Number of geometries (including reference) is 11.

  //>>>>>>>>>>>>>>>>>>>>>>>>>>>>>>>>>>>//
  //    Loading displacement 1 of 11   //
  //<<<<<<<<<<<<<<<<<<<<<<<<<<<<<<<<<<<//

*** tstart() called on bp1-compute00116.data.bp.acrc.priv
*** at Wed Apr 28 13:19:20 2021

   => Loading Basis Set <=

    Name: AUG-CC-PV(Q+D)Z
    Role: ORBITAL
    Keyword: BASIS
    atoms 1, 3-5 entry H          line    56 file /work/zw18965/.conda/envs/p4env/share/psi4/basis/aug-cc-pv_qpd_z.gbs 
    atoms 2      entry C          line   319 file /work/zw18965/.conda/envs/p4env/share/psi4/basis/aug-cc-pv_qpd_z.gbs 


         ---------------------------------------------------------
                                   SCF
               by Justin Turney, Rob Parrish, Andy Simmonett
                          and Daniel G. A. Smith
                              RKS Reference
                       24 Threads, 137329 MiB Core
         ---------------------------------------------------------

  ==> Geometry <==

    Molecular point group: c2
    Full point group: Td

    Geometry (in Angstrom), charge = 0, multiplicity = 1:

       Center              X                  Y                   Z               Mass       
    ------------   -----------------  -----------------  -----------------  -----------------
         H            0.000000000007     0.888266630384    -0.628099357864     1.007825032230
         C           -0.000000000000     0.000000000000     0.000000000006    12.000000000000
         H            0.888266630391     0.000000000002     0.628099357827     1.007825032230
         H           -0.888266630391    -0.000000000002     0.628099357827     1.007825032230
         H           -0.000000000007    -0.888266630384    -0.628099357864     1.007825032230

  Running in c2 symmetry.

  Rotational constants: A =      5.29986  B =      5.29986  C =      5.29986 [cm^-1]
  Rotational constants: A = 158885.90516  B = 158885.90516  C = 158885.90516 [MHz]
  Nuclear repulsion =   13.461323909034332

  Charge       = 0
  Multiplicity = 1
  Electrons    = 10
  Nalpha       = 5
  Nbeta        = 5

  ==> Algorithm <==

  SCF Algorithm Type is DF.
  DIIS enabled.
  MOM disabled.
  Fractional occupation disabled.
  Guess Type is SAD.
  Energy threshold   = 1.00e-08
  Density threshold  = 1.00e-08
  Integral threshold = 0.00e+00

  ==> Primary Basis <==

  Basis Set: AUG-CC-PV(Q+D)Z
    Blend: AUG-CC-PV(Q+D)Z
    Number of shells: 76
    Number of basis function: 264
    Number of Cartesian functions: 325
    Spherical Harmonics?: true
    Max angular momentum: 4

  ==> DFT Potential <==

   => Composite Functional: WB97M-V <= 

    wB97M-V Hyb-GGA Exchange-Correlation Functional

    N. Mardirossian and M. Head-Gordon, J. Chem. Phys. 144, 214110 (2016)

    Deriv               =              1
    GGA                 =           TRUE
    Meta                =           TRUE

    Exchange Hybrid     =           TRUE
    MP2 Hybrid          =          FALSE

   => Exchange-Correlation Functionals <=

    1.0000   wB97M-V exchange-correlation functional

   => Exact (HF) Exchange <=

    0.8500            HF,LR [omega = 0.3000]
    0.1500               HF 

   => VV10 Non-Local Parameters <=

    VV10 B              =     6.0000E+00
    VV10 C              =     1.0000E-02

   => Molecular Quadrature <=

    Radial Scheme          =       TREUTLER
    Pruning Scheme         =           FLAT
    Nuclear Scheme         =       TREUTLER

    BS radius alpha        =              1
    Pruning alpha          =              1
    Radial Points          =             75
    Spherical Points       =            302
    Total Points           =         113250
    Total Blocks           =            937
    Max Points             =            256
    Max Functions          =            264

   => Loading Basis Set <=

    Name: (AUG-CC-PV(Q+D)Z AUX)
    Role: JKFIT
    Keyword: DF_BASIS_SCF
    atoms 1, 3-5 entry H          line    70 file /work/zw18965/.conda/envs/p4env/share/psi4/basis/aug-cc-pvqz-jkfit.gbs 
    atoms 2      entry C          line   178 file /work/zw18965/.conda/envs/p4env/share/psi4/basis/aug-cc-pvqz-jkfit.gbs 

  ==> Pre-Iterations <==

   -------------------------------------------------------
    Irrep   Nso     Nmo     Nalpha   Nbeta   Ndocc  Nsocc
   -------------------------------------------------------
     A        134     134       0       0       0       0
     B        130     130       0       0       0       0
   -------------------------------------------------------
    Total     264     264       5       5       5       0
   -------------------------------------------------------

  ==> Integral Setup <==

  ==> DiskDFJK: Density-Fitted J/K Matrices <==

    J tasked:                  Yes
    K tasked:                  Yes
    wK tasked:                 Yes
    Omega:               3.000E-01
    OpenMP threads:             24
    Integrals threads:          24
    Memory [MiB]:           100937
    Algorithm:                Core
    Integral Cache:           NONE
    Schwarz Cutoff:          1E-12
    Fitting Condition:       1E-10

   => Auxiliary Basis Set <=

  Basis Set: (AUG-CC-PV(Q+D)Z AUX)
    Blend: AUG-CC-PVQZ-JKFIT
    Number of shells: 106
    Number of basis function: 446
    Number of Cartesian functions: 602
    Spherical Harmonics?: true
    Max angular momentum: 5

  Cached 100.0% of DFT collocation blocks in 2.011 [GiB].

  Minimum eigenvalue in the overlap matrix is 1.9155132815E-05.
  Using Symmetric Orthogonalization.

  SCF Guess: Superposition of Atomic Densities via on-the-fly atomic UHF.

  ==> Iterations <==

                           Total Energy        Delta E     RMS |[F,P]|

   @DF-RKS iter SAD:   -39.94759701370209   -3.99476e+01   0.00000e+00 
   @DF-RKS iter   1:   -40.34986446288095   -4.02267e-01   2.95371e-03 DIIS
   @DF-RKS iter   2:   -40.42287892926061   -7.30145e-02   2.06060e-03 DIIS
   @DF-RKS iter   3:   -40.49492601544459   -7.20471e-02   8.22181e-05 DIIS
   @DF-RKS iter   4:   -40.49519038554026   -2.64370e-04   1.50530e-05 DIIS
   @DF-RKS iter   5:   -40.49520003045022   -9.64491e-06   2.16107e-06 DIIS
   @DF-RKS iter   6:   -40.49520025774767   -2.27297e-07   2.63428e-07 DIIS
   @DF-RKS iter   7:   -40.49520026043729   -2.68962e-09   2.56226e-08 DIIS
   @DF-RKS iter   8:   -40.49520026046930   -3.20171e-11   1.42264e-09 DIIS
  Energy and wave function converged.


  ==> Post-Iterations <==

    Orbital Energies [Eh]
    ---------------------

    Doubly Occupied:                                                      

       1A    -10.319489     2A     -0.812567     1B     -0.492999  
       2B     -0.492999     3A     -0.492999  

    Virtual:                                                              

       4A      0.014066     3B      0.037110     4B      0.037110  
       5A      0.037110     6A      0.090752     5B      0.090752  
       6B      0.090752     7A      0.105497     7B      0.157512  
       8B      0.157512     8A      0.157512     9A      0.174772  
      10A      0.174773    11A      0.239456     9B      0.245984  
      10B      0.245984    12A      0.245985    11B      0.251775  
      12B      0.251775    13A      0.251776    13B      0.262655  
      14B      0.262655    14A      0.262656    15A      0.298750  
      15B      0.339684    16B      0.339684    16A      0.339684  
      17A      0.364481    18A      0.364482    17B      0.501064  
      18B      0.501064    19A      0.501064    20A      0.501113  
      21A      0.501114    22A      0.541407    23A      0.635974  
      19B      0.635975    20B      0.635975    24A      0.645291  
      21B      0.645291    22B      0.645291    23B      0.678869  
      24B      0.678869    25A      0.678870    26A      0.687406  
      25B      0.705785    26B      0.705785    27A      0.705788  
      28A      0.745458    27B      0.745459    28B      0.745459  
      29A      0.820330    30A      0.831347    29B      0.831349  
      30B      0.831349    31A      0.856366    32A      0.856369  
      33A      0.905575    34A      0.905576    31B      1.002481  
      32B      1.002481    35A      1.002482    36A      1.005950  
      37A      1.058416    33B      1.058416    34B      1.058416  
      35B      1.139514    36B      1.139514    38A      1.139515  
      37B      1.267161    38B      1.267161    39A      1.267163  
      39B      1.365091    40B      1.365091    40A      1.365092  
      41A      1.403224    42A      1.452384    41B      1.452386  
      42B      1.452386    43A      1.546788    44A      1.546791  
      45A      1.698881    43B      1.698884    44B      1.698884  
      45B      1.741764    46B      1.741764    46A      1.741769  
      47A      1.759024    48A      1.781328    49A      1.781328  
      47B      1.800421    48B      1.800421    50A      1.800422  
      51A      1.834815    52A      1.861715    53A      1.861719  
      54A      1.883169    49B      1.883170    50B      1.883170  
      51B      1.952854    52B      1.952854    55A      1.952857  
      56A      1.971212    53B      1.971212    54B      1.971212  
      57A      2.019285    58A      2.038174    59A      2.096561  
      55B      2.096563    56B      2.096563    60A      2.140867  
      57B      2.140868    58B      2.140868    59B      2.245591  
      60B      2.245591    61A      2.245595    62A      2.492438  
      61B      2.492439    62B      2.492439    63A      2.522856  
      64A      2.522856    65A      2.610259    63B      2.610261  
      64B      2.610261    66A      2.620710    65B      2.620718  
      66B      2.620718    67A      2.626754    68A      2.816453  
      69A      2.816456    67B      2.825432    68B      2.825432  
      70A      2.825437    69B      2.964737    70B      2.964737  
      71A      2.964738    72A      2.999282    73A      3.170785  
      74A      3.170786    71B      3.479286    72B      3.479286  
      75A      3.479287    73B      3.489138    74B      3.489138  
      76A      3.489148    77A      3.642175    78A      3.683946  
      75B      3.683948    76B      3.683948    79A      3.791598  
      77B      3.791599    78B      3.791599    80A      3.850258  
      79B      3.850263    80B      3.850263    81A      3.920805  
      82A      4.023312    83A      4.023315    81B      4.057089  
      82B      4.057089    84A      4.057090    85A      4.097456  
      86A      4.097463    83B      4.457753    84B      4.457753  
      87A      4.457759    85B      4.670761    86B      4.670761  
      88A      4.670767    89A      4.844725    90A      5.755671  
      91A      5.755681    92A      5.816141    87B      5.816142  
      88B      5.816142    93A      5.903422    89B      5.903432  
      90B      5.903432    94A      6.185162    95A      6.448624  
      91B      6.459275    92B      6.459275    96A      6.459276  
      93B      6.539016    94B      6.539016    97A      6.539025  
      98A      6.592674    95B      6.592681    96B      6.592681  
      97B      6.663694    98B      6.663694    99A      6.663695  
      99B      6.858975   100B      6.858975   100A      6.858987  
     101A      6.983703   102A      7.179172   101B      7.179176  
     102B      7.179176   103A      7.209000   104A      7.398589  
     105A      7.398589   103B      7.513726   104B      7.513726  
     106A      7.513736   107A      7.549206   105B      7.549209  
     106B      7.549209   108A      7.647190   109A      7.647191  
     110A      8.124946   107B      8.124960   108B      8.124960  
     111A      8.160763   112A      8.249139   113A      8.249144  
     114A      8.302239   109B      8.302256   110B      8.302256  
     111B      8.783247   112B      8.783247   115A      8.783261  
     116A      8.796864   113B      8.796908   114B      8.796908  
     115B      8.870334   116B      8.870334   117A      8.870382  
     117B      9.008575   118B      9.008575   118A      9.008605  
     119A      9.233651   120A      9.233673   121A      9.314985  
     122A      9.527501   123A      9.527514   119B      9.555731  
     120B      9.555731   124A      9.555762   125A      9.786628  
     121B      9.786644   122B      9.786644   126A      9.864606  
     127A      9.864630   123B     10.112872   124B     10.112872  
     128A     10.112899   129A     10.340786   125B     10.493240  
     126B     10.493240   130A     10.493247   127B     11.035391  
     128B     11.035391   131A     11.035399   129B     12.557237  
     130B     12.557237   132A     12.557242   133A     13.177692  
     134A     28.833755  

    Final Occupation by Irrep:
              A     B 
    DOCC [     3,    2 ]

  @DF-RKS Final Energy:   -40.49520026046930

   => Energetics <=

    Nuclear Repulsion Energy =             13.4613239090343324
    One-Electron Energy =                 -79.8634923247361712
    Two-Electron Energy =                  30.4766575221549552
    DFT Exchange-Correlation Energy =      -4.6110322370477599
    Empirical Dispersion Energy =           0.0000000000000000
    VV10 Nonlocal Energy =                  0.0413428701253383
    Total Energy =                        -40.4952002604693035

Computation Completed


Properties will be evaluated at   0.000000,   0.000000,   0.000000 [a0]

Properties computed using the SCF density matrix

  Nuclear Dipole Moment: [e a0]
     X:     0.0000      Y:     0.0000      Z:    -0.0000

  Electronic Dipole Moment: [e a0]
     X:     0.0000      Y:     0.0000      Z:    -0.0000

  Dipole Moment: [e a0]
     X:     0.0000      Y:     0.0000      Z:    -0.0000     Total:     0.0000

  Dipole Moment: [D]
     X:     0.0000      Y:     0.0000      Z:    -0.0000     Total:     0.0000


*** tstop() called on bp1-compute00116.data.bp.acrc.priv at Wed Apr 28 13:19:29 2021
Module time:
	user time   =     173.89 seconds =       2.90 minutes
	system time =       9.95 seconds =       0.17 minutes
	total time  =          9 seconds =       0.15 minutes
Total time:
	user time   =     173.89 seconds =       2.90 minutes
	system time =       9.95 seconds =       0.17 minutes
	total time  =          9 seconds =       0.15 minutes

  //>>>>>>>>>>>>>>>>>>>>>>>>>>>>>>>>>>>//
  //    Loading displacement 2 of 11   //
  //<<<<<<<<<<<<<<<<<<<<<<<<<<<<<<<<<<<//

*** tstart() called on bp1-compute00116.data.bp.acrc.priv
*** at Wed Apr 28 13:19:29 2021

   => Loading Basis Set <=

    Name: AUG-CC-PV(Q+D)Z
    Role: ORBITAL
    Keyword: BASIS
    atoms 1, 3-5 entry H          line    56 file /work/zw18965/.conda/envs/p4env/share/psi4/basis/aug-cc-pv_qpd_z.gbs 
    atoms 2      entry C          line   319 file /work/zw18965/.conda/envs/p4env/share/psi4/basis/aug-cc-pv_qpd_z.gbs 


         ---------------------------------------------------------
                                   SCF
               by Justin Turney, Rob Parrish, Andy Simmonett
                          and Daniel G. A. Smith
                              RKS Reference
                       24 Threads, 137329 MiB Core
         ---------------------------------------------------------

  ==> Geometry <==

    Molecular point group: c2
    Full point group: C2

    Geometry (in Angstrom), charge = 0, multiplicity = 1:

       Center              X                  Y                   Z               Mass       
    ------------   -----------------  -----------------  -----------------  -----------------
         H           -0.001317797164     0.888266630384    -0.628099357864     1.007825032230
         C           -0.000000000000    -0.000000000000     0.000000000006    12.000000000000
         H            0.888266630391    -0.001317797169     0.628099357827     1.007825032230
         H           -0.888266630391     0.001317797169     0.628099357827     1.007825032230
         H            0.001317797164    -0.888266630384    -0.628099357864     1.007825032230

  Running in c2 symmetry.

  Rotational constants: A =      5.30773  B =      5.29985  C =      5.29201 [cm^-1]
  Rotational constants: A = 159121.79684  B = 158885.55546  C = 158650.36318 [MHz]
  Nuclear repulsion =   13.461315016536261

  Charge       = 0
  Multiplicity = 1
  Electrons    = 10
  Nalpha       = 5
  Nbeta        = 5

  ==> Algorithm <==

  SCF Algorithm Type is DF.
  DIIS enabled.
  MOM disabled.
  Fractional occupation disabled.
  Guess Type is SAD.
  Energy threshold   = 1.00e-08
  Density threshold  = 1.00e-08
  Integral threshold = 0.00e+00

  ==> Primary Basis <==

  Basis Set: AUG-CC-PV(Q+D)Z
    Blend: AUG-CC-PV(Q+D)Z
    Number of shells: 76
    Number of basis function: 264
    Number of Cartesian functions: 325
    Spherical Harmonics?: true
    Max angular momentum: 4

  ==> DFT Potential <==

   => Composite Functional: WB97M-V <= 

    wB97M-V Hyb-GGA Exchange-Correlation Functional

    N. Mardirossian and M. Head-Gordon, J. Chem. Phys. 144, 214110 (2016)

    Deriv               =              1
    GGA                 =           TRUE
    Meta                =           TRUE

    Exchange Hybrid     =           TRUE
    MP2 Hybrid          =          FALSE

   => Exchange-Correlation Functionals <=

    1.0000   wB97M-V exchange-correlation functional

   => Exact (HF) Exchange <=

    0.8500            HF,LR [omega = 0.3000]
    0.1500               HF 

   => VV10 Non-Local Parameters <=

    VV10 B              =     6.0000E+00
    VV10 C              =     1.0000E-02

   => Molecular Quadrature <=

    Radial Scheme          =       TREUTLER
    Pruning Scheme         =           FLAT
    Nuclear Scheme         =       TREUTLER

    BS radius alpha        =              1
    Pruning alpha          =              1
    Radial Points          =             75
    Spherical Points       =            302
    Total Points           =         113250
    Total Blocks           =            923
    Max Points             =            256
    Max Functions          =            264

   => Loading Basis Set <=

    Name: (AUG-CC-PV(Q+D)Z AUX)
    Role: JKFIT
    Keyword: DF_BASIS_SCF
    atoms 1, 3-5 entry H          line    70 file /work/zw18965/.conda/envs/p4env/share/psi4/basis/aug-cc-pvqz-jkfit.gbs 
    atoms 2      entry C          line   178 file /work/zw18965/.conda/envs/p4env/share/psi4/basis/aug-cc-pvqz-jkfit.gbs 

  ==> Pre-Iterations <==

   -------------------------------------------------------
    Irrep   Nso     Nmo     Nalpha   Nbeta   Ndocc  Nsocc
   -------------------------------------------------------
     A        134     134       0       0       0       0
     B        130     130       0       0       0       0
   -------------------------------------------------------
    Total     264     264       5       5       5       0
   -------------------------------------------------------

  ==> Integral Setup <==

  ==> DiskDFJK: Density-Fitted J/K Matrices <==

    J tasked:                  Yes
    K tasked:                  Yes
    wK tasked:                 Yes
    Omega:               3.000E-01
    OpenMP threads:             24
    Integrals threads:          24
    Memory [MiB]:           100940
    Algorithm:                Core
    Integral Cache:           NONE
    Schwarz Cutoff:          1E-12
    Fitting Condition:       1E-10

   => Auxiliary Basis Set <=

  Basis Set: (AUG-CC-PV(Q+D)Z AUX)
    Blend: AUG-CC-PVQZ-JKFIT
    Number of shells: 106
    Number of basis function: 446
    Number of Cartesian functions: 602
    Spherical Harmonics?: true
    Max angular momentum: 5

  Cached 100.0% of DFT collocation blocks in 2.008 [GiB].

  Minimum eigenvalue in the overlap matrix is 1.9155391456E-05.
  Using Symmetric Orthogonalization.

  SCF Guess: Superposition of Atomic Densities via on-the-fly atomic UHF.

  ==> Iterations <==

                           Total Energy        Delta E     RMS |[F,P]|

   @DF-RKS iter SAD:   -39.94760535856661   -3.99476e+01   0.00000e+00 
   @DF-RKS iter   1:   -40.34987036593136   -4.02265e-01   2.95367e-03 DIIS
   @DF-RKS iter   2:   -40.42288378087214   -7.30134e-02   2.06057e-03 DIIS
   @DF-RKS iter   3:   -40.49492925268718   -7.20455e-02   8.22198e-05 DIIS
   @DF-RKS iter   4:   -40.49519361887293   -2.64366e-04   1.50536e-05 DIIS
   @DF-RKS iter   5:   -40.49520326439821   -9.64553e-06   2.16121e-06 DIIS
   @DF-RKS iter   6:   -40.49520349172813   -2.27330e-07   2.63461e-07 DIIS
   @DF-RKS iter   7:   -40.49520349441806   -2.68993e-09   2.56296e-08 DIIS
   @DF-RKS iter   8:   -40.49520349445006   -3.20028e-11   1.42387e-09 DIIS
  Energy and wave function converged.


  ==> Post-Iterations <==

    Orbital Energies [Eh]
    ---------------------

    Doubly Occupied:                                                      

       1A    -10.319489     2A     -0.812567     1B     -0.493394  
       3A     -0.492999     2B     -0.492605  

    Virtual:                                                              

       4A      0.014065     3B      0.037084     5A      0.037110  
       4B      0.037136     5B      0.090684     6A      0.090750  
       6B      0.090815     7A      0.105497     7B      0.157499  
       8A      0.157512     8B      0.157525     9A      0.174723  
      10A      0.174819    11A      0.239458     9B      0.245838  
      12A      0.245979    10B      0.246121    11B      0.251757  
      13A      0.251774    12B      0.251791    13B      0.262556  
      14A      0.262656    14B      0.262755    15A      0.298748  
      15B      0.339577    16A      0.339684    16B      0.339790  
      17A      0.364283    18A      0.364682    17B      0.500884  
      19A      0.501019    20A      0.501060    21A      0.501201  
      18B      0.501236    22A      0.541404    19B      0.635919  
      23A      0.635970    20B      0.636026    21B      0.645239  
      24A      0.645293    22B      0.645342    23B      0.678689  
      25A      0.678868    24B      0.679044    26A      0.687406  
      25B      0.705624    27A      0.705780    26B      0.705940  
      27B      0.745058    28A      0.745452    28B      0.745850  
      29A      0.820308    29B      0.831264    30A      0.831342  
      30B      0.831417    31A      0.856304    32A      0.856430  
      33A      0.905271    34A      0.905872    31B      1.001860  
      35A      1.002475    32B      1.003097    36A      1.005947  
      33B      1.058171    37A      1.058411    34B      1.058649  
      35B      1.139153    38A      1.139510    36B      1.139873  
      37B      1.267032    39A      1.267177    38B      1.267314  
      39B      1.364765    40A      1.365090    40B      1.365416  
      41A      1.403221    41B      1.452276    42A      1.452383  
      42B      1.452491    43A      1.546679    44A      1.546869  
      43B      1.698099    45A      1.698886    44B      1.699670  
      45B      1.740996    46A      1.741764    46B      1.742526  
      47A      1.758983    48A      1.781034    49A      1.781694  
      47B      1.798865    50A      1.800426    48B      1.801992  
      51A      1.834830    52A      1.861248    53A      1.862204  
      49B      1.883005    54A      1.883171    50B      1.883326  
      51B      1.952606    55A      1.952860    52B      1.953115  
      53B      1.970591    56A      1.971213    54B      1.971834  
      57A      2.019291    58A      2.038171    55B      2.096360  
      59A      2.096558    56B      2.096761    57B      2.140539  
      60A      2.140859    58B      2.141179    59B      2.245447  
      61A      2.245588    60B      2.245732    61B      2.491919  
      62A      2.492432    62B      2.492930    63A      2.522745  
      64A      2.522958    63B      2.610136    65A      2.610244  
      64B      2.610355    65B      2.620375    66A      2.620732  
      66B      2.621102    67A      2.626737    68A      2.816153  
      69A      2.816804    67B      2.825151    70A      2.825464  
      68B      2.825774    69B      2.964196    71A      2.964737  
      70B      2.965292    72A      2.999243    73A      3.170581  
      74A      3.171036    71B      3.477672    75A      3.479177  
      72B      3.480825    73B      3.488786    76A      3.489234  
      74B      3.489513    77A      3.642157    75B      3.683270  
      78A      3.683943    76B      3.684633    77B      3.791430  
      79A      3.791584    78B      3.791685    79B      3.849633  
      80A      3.850249    80B      3.850892    81A      3.920764  
      82A      4.023017    83A      4.023642    81B      4.056679  
      84A      4.057075    82B      4.057472    85A      4.096798  
      86A      4.098217    83B      4.455746    87A      4.457756  
      84B      4.459775    85B      4.669514    88A      4.670718  
      86B      4.671907    89A      4.844728    90A      5.754706  
      91A      5.756640    87B      5.815590    92A      5.816150  
      88B      5.816722    89B      5.903386    93A      5.903448  
      90B      5.903505    94A      6.185160    95A      6.448621  
      91B      6.458256    96A      6.459277    92B      6.460303  
      93B      6.538766    97A      6.539038    94B      6.539323  
      95B      6.591411    98A      6.592648    96B      6.593951  
      97B      6.662288    99A      6.663692    98B      6.665081  
      99B      6.858910   100A      6.859008   100B      6.859051  
     101A      6.983607   101B      7.178389   102A      7.179121  
     102B      7.179870   103A      7.208993   104A      7.398294  
     105A      7.398905   103B      7.513121   106A      7.513266  
     104B      7.514059   105B      7.547154   107A      7.549681  
     106B      7.551479   108A      7.646607   109A      7.647816  
     107B      8.124572   110A      8.124947   108B      8.125319  
     111A      8.160544   112A      8.246023   113A      8.252481  
     109B      8.300556   114A      8.302235   110B      8.303916  
     115A      8.782535   111B      8.782647   112B      8.783471  
     113B      8.796943   114B      8.797246   116A      8.797608  
     115B      8.869717   117A      8.870363   116B      8.871009  
     117B      9.006485   118A      9.008637   118B      9.010774  
     119A      9.232762   120A      9.234574   121A      9.315025  
     122A      9.524859   123A      9.530104   119B      9.554383  
     124A      9.555703   120B      9.557038   121B      9.785704  
     125A      9.786630   122B      9.787480   126A      9.864408  
     127A      9.865006   123B     10.110843   128A     10.112938  
     124B     10.115107   129A     10.340874   125B     10.491384  
     130A     10.493252   126B     10.495147   127B     11.034976  
     131A     11.035383   128B     11.035792   129B     12.556819  
     132A     12.557121   130B     12.557407   133A     13.177552  
     134A     28.833709  

    Final Occupation by Irrep:
              A     B 
    DOCC [     3,    2 ]

  @DF-RKS Final Energy:   -40.49520349445006

   => Energetics <=

    Nuclear Repulsion Energy =             13.4613150165362612
    One-Electron Energy =                 -79.8634726588082913
    Two-Electron Energy =                  30.4766457453200417
    DFT Exchange-Correlation Energy =      -4.6110349275260232
    Empirical Dispersion Energy =           0.0000000000000000
    VV10 Nonlocal Energy =                  0.0413433300279534
    Total Energy =                        -40.4952034944500525

Computation Completed


Properties will be evaluated at   0.000000,   0.000000,   0.000000 [a0]

Properties computed using the SCF density matrix

  Nuclear Dipole Moment: [e a0]
     X:     0.0000      Y:     0.0000      Z:    -0.0000

  Electronic Dipole Moment: [e a0]
     X:     0.0000      Y:     0.0000      Z:    -0.0000

  Dipole Moment: [e a0]
     X:     0.0000      Y:     0.0000      Z:    -0.0000     Total:     0.0000

  Dipole Moment: [D]
     X:     0.0000      Y:     0.0000      Z:    -0.0000     Total:     0.0000


*** tstop() called on bp1-compute00116.data.bp.acrc.priv at Wed Apr 28 13:19:37 2021
Module time:
	user time   =     169.50 seconds =       2.83 minutes
	system time =       5.83 seconds =       0.10 minutes
	total time  =          8 seconds =       0.13 minutes
Total time:
	user time   =     343.53 seconds =       5.73 minutes
	system time =      15.79 seconds =       0.26 minutes
	total time  =         17 seconds =       0.28 minutes

  //>>>>>>>>>>>>>>>>>>>>>>>>>>>>>>>>>>>//
  //    Loading displacement 3 of 11   //
  //<<<<<<<<<<<<<<<<<<<<<<<<<<<<<<<<<<<//

*** tstart() called on bp1-compute00116.data.bp.acrc.priv
*** at Wed Apr 28 13:19:37 2021

   => Loading Basis Set <=

    Name: AUG-CC-PV(Q+D)Z
    Role: ORBITAL
    Keyword: BASIS
    atoms 1, 3-5 entry H          line    56 file /work/zw18965/.conda/envs/p4env/share/psi4/basis/aug-cc-pv_qpd_z.gbs 
    atoms 2      entry C          line   319 file /work/zw18965/.conda/envs/p4env/share/psi4/basis/aug-cc-pv_qpd_z.gbs 


         ---------------------------------------------------------
                                   SCF
               by Justin Turney, Rob Parrish, Andy Simmonett
                          and Daniel G. A. Smith
                              RKS Reference
                       24 Threads, 137329 MiB Core
         ---------------------------------------------------------

  ==> Geometry <==

    Molecular point group: c2
    Full point group: C2

    Geometry (in Angstrom), charge = 0, multiplicity = 1:

       Center              X                  Y                   Z               Mass       
    ------------   -----------------  -----------------  -----------------  -----------------
         H            0.001317797178     0.888266630384    -0.628099357864     1.007825032230
         C           -0.000000000000     0.000000000000     0.000000000006    12.000000000000
         H            0.888266630391     0.001317797173     0.628099357827     1.007825032230
         H           -0.888266630391    -0.001317797173     0.628099357827     1.007825032230
         H           -0.001317797178    -0.888266630384    -0.628099357864     1.007825032230

  Running in c2 symmetry.

  Rotational constants: A =      5.30773  B =      5.29985  C =      5.29201 [cm^-1]
  Rotational constants: A = 159121.79684  B = 158885.55546  C = 158650.36317 [MHz]
  Nuclear repulsion =   13.461315016536149

  Charge       = 0
  Multiplicity = 1
  Electrons    = 10
  Nalpha       = 5
  Nbeta        = 5

  ==> Algorithm <==

  SCF Algorithm Type is DF.
  DIIS enabled.
  MOM disabled.
  Fractional occupation disabled.
  Guess Type is SAD.
  Energy threshold   = 1.00e-08
  Density threshold  = 1.00e-08
  Integral threshold = 0.00e+00

  ==> Primary Basis <==

  Basis Set: AUG-CC-PV(Q+D)Z
    Blend: AUG-CC-PV(Q+D)Z
    Number of shells: 76
    Number of basis function: 264
    Number of Cartesian functions: 325
    Spherical Harmonics?: true
    Max angular momentum: 4

  ==> DFT Potential <==

   => Composite Functional: WB97M-V <= 

    wB97M-V Hyb-GGA Exchange-Correlation Functional

    N. Mardirossian and M. Head-Gordon, J. Chem. Phys. 144, 214110 (2016)

    Deriv               =              1
    GGA                 =           TRUE
    Meta                =           TRUE

    Exchange Hybrid     =           TRUE
    MP2 Hybrid          =          FALSE

   => Exchange-Correlation Functionals <=

    1.0000   wB97M-V exchange-correlation functional

   => Exact (HF) Exchange <=

    0.8500            HF,LR [omega = 0.3000]
    0.1500               HF 

   => VV10 Non-Local Parameters <=

    VV10 B              =     6.0000E+00
    VV10 C              =     1.0000E-02

   => Molecular Quadrature <=

    Radial Scheme          =       TREUTLER
    Pruning Scheme         =           FLAT
    Nuclear Scheme         =       TREUTLER

    BS radius alpha        =              1
    Pruning alpha          =              1
    Radial Points          =             75
    Spherical Points       =            302
    Total Points           =         113250
    Total Blocks           =            923
    Max Points             =            256
    Max Functions          =            264

   => Loading Basis Set <=

    Name: (AUG-CC-PV(Q+D)Z AUX)
    Role: JKFIT
    Keyword: DF_BASIS_SCF
    atoms 1, 3-5 entry H          line    70 file /work/zw18965/.conda/envs/p4env/share/psi4/basis/aug-cc-pvqz-jkfit.gbs 
    atoms 2      entry C          line   178 file /work/zw18965/.conda/envs/p4env/share/psi4/basis/aug-cc-pvqz-jkfit.gbs 

  ==> Pre-Iterations <==

   -------------------------------------------------------
    Irrep   Nso     Nmo     Nalpha   Nbeta   Ndocc  Nsocc
   -------------------------------------------------------
     A        134     134       0       0       0       0
     B        130     130       0       0       0       0
   -------------------------------------------------------
    Total     264     264       5       5       5       0
   -------------------------------------------------------

  ==> Integral Setup <==

  ==> DiskDFJK: Density-Fitted J/K Matrices <==

    J tasked:                  Yes
    K tasked:                  Yes
    wK tasked:                 Yes
    Omega:               3.000E-01
    OpenMP threads:             24
    Integrals threads:          24
    Memory [MiB]:           100940
    Algorithm:                Core
    Integral Cache:           NONE
    Schwarz Cutoff:          1E-12
    Fitting Condition:       1E-10

   => Auxiliary Basis Set <=

  Basis Set: (AUG-CC-PV(Q+D)Z AUX)
    Blend: AUG-CC-PVQZ-JKFIT
    Number of shells: 106
    Number of basis function: 446
    Number of Cartesian functions: 602
    Spherical Harmonics?: true
    Max angular momentum: 5

  Cached 100.0% of DFT collocation blocks in 2.008 [GiB].

  Minimum eigenvalue in the overlap matrix is 1.9155391456E-05.
  Using Symmetric Orthogonalization.

  SCF Guess: Superposition of Atomic Densities via on-the-fly atomic UHF.

  ==> Iterations <==

                           Total Energy        Delta E     RMS |[F,P]|

   @DF-RKS iter SAD:   -39.94760536278064   -3.99476e+01   0.00000e+00 
   @DF-RKS iter   1:   -40.34987037095398   -4.02265e-01   2.95367e-03 DIIS
   @DF-RKS iter   2:   -40.42288378603223   -7.30134e-02   2.06057e-03 DIIS
   @DF-RKS iter   3:   -40.49492925751006   -7.20455e-02   8.22198e-05 DIIS
   @DF-RKS iter   4:   -40.49519362369326   -2.64366e-04   1.50536e-05 DIIS
   @DF-RKS iter   5:   -40.49520326921871   -9.64553e-06   2.16121e-06 DIIS
   @DF-RKS iter   6:   -40.49520349654856   -2.27330e-07   2.63461e-07 DIIS
   @DF-RKS iter   7:   -40.49520349923851   -2.68995e-09   2.56296e-08 DIIS
   @DF-RKS iter   8:   -40.49520349927055   -3.20455e-11   1.42387e-09 DIIS
  Energy and wave function converged.


  ==> Post-Iterations <==

    Orbital Energies [Eh]
    ---------------------

    Doubly Occupied:                                                      

       1A    -10.319489     2A     -0.812567     1B     -0.493394  
       3A     -0.492999     2B     -0.492605  

    Virtual:                                                              

       4A      0.014065     3B      0.037084     5A      0.037110  
       4B      0.037136     5B      0.090684     6A      0.090750  
       6B      0.090815     7A      0.105497     7B      0.157499  
       8A      0.157512     8B      0.157525     9A      0.174723  
      10A      0.174819    11A      0.239458     9B      0.245838  
      12A      0.245979    10B      0.246121    11B      0.251757  
      13A      0.251774    12B      0.251791    13B      0.262556  
      14A      0.262656    14B      0.262755    15A      0.298748  
      15B      0.339577    16A      0.339684    16B      0.339790  
      17A      0.364283    18A      0.364682    17B      0.500884  
      19A      0.501019    20A      0.501060    21A      0.501201  
      18B      0.501236    22A      0.541404    19B      0.635919  
      23A      0.635970    20B      0.636026    21B      0.645239  
      24A      0.645293    22B      0.645342    23B      0.678689  
      25A      0.678868    24B      0.679044    26A      0.687406  
      25B      0.705624    27A      0.705780    26B      0.705940  
      27B      0.745058    28A      0.745452    28B      0.745850  
      29A      0.820308    29B      0.831264    30A      0.831342  
      30B      0.831417    31A      0.856304    32A      0.856430  
      33A      0.905271    34A      0.905872    31B      1.001860  
      35A      1.002475    32B      1.003097    36A      1.005947  
      33B      1.058171    37A      1.058411    34B      1.058649  
      35B      1.139153    38A      1.139510    36B      1.139873  
      37B      1.267032    39A      1.267177    38B      1.267314  
      39B      1.364765    40A      1.365090    40B      1.365416  
      41A      1.403221    41B      1.452276    42A      1.452383  
      42B      1.452491    43A      1.546679    44A      1.546869  
      43B      1.698099    45A      1.698886    44B      1.699670  
      45B      1.740996    46A      1.741764    46B      1.742526  
      47A      1.758983    48A      1.781034    49A      1.781694  
      47B      1.798865    50A      1.800426    48B      1.801992  
      51A      1.834830    52A      1.861248    53A      1.862204  
      49B      1.883005    54A      1.883171    50B      1.883326  
      51B      1.952606    55A      1.952860    52B      1.953115  
      53B      1.970591    56A      1.971213    54B      1.971834  
      57A      2.019291    58A      2.038171    55B      2.096360  
      59A      2.096558    56B      2.096761    57B      2.140539  
      60A      2.140859    58B      2.141179    59B      2.245447  
      61A      2.245588    60B      2.245732    61B      2.491919  
      62A      2.492432    62B      2.492930    63A      2.522745  
      64A      2.522958    63B      2.610136    65A      2.610244  
      64B      2.610355    65B      2.620375    66A      2.620732  
      66B      2.621102    67A      2.626737    68A      2.816153  
      69A      2.816804    67B      2.825151    70A      2.825464  
      68B      2.825774    69B      2.964196    71A      2.964737  
      70B      2.965292    72A      2.999243    73A      3.170581  
      74A      3.171036    71B      3.477672    75A      3.479177  
      72B      3.480825    73B      3.488786    76A      3.489234  
      74B      3.489513    77A      3.642157    75B      3.683270  
      78A      3.683943    76B      3.684633    77B      3.791430  
      79A      3.791584    78B      3.791685    79B      3.849633  
      80A      3.850249    80B      3.850892    81A      3.920764  
      82A      4.023017    83A      4.023642    81B      4.056679  
      84A      4.057075    82B      4.057472    85A      4.096798  
      86A      4.098217    83B      4.455746    87A      4.457756  
      84B      4.459775    85B      4.669514    88A      4.670718  
      86B      4.671907    89A      4.844728    90A      5.754706  
      91A      5.756640    87B      5.815590    92A      5.816150  
      88B      5.816722    89B      5.903386    93A      5.903448  
      90B      5.903505    94A      6.185160    95A      6.448621  
      91B      6.458256    96A      6.459277    92B      6.460303  
      93B      6.538766    97A      6.539038    94B      6.539323  
      95B      6.591411    98A      6.592648    96B      6.593951  
      97B      6.662288    99A      6.663692    98B      6.665081  
      99B      6.858910   100A      6.859008   100B      6.859051  
     101A      6.983607   101B      7.178389   102A      7.179121  
     102B      7.179870   103A      7.208993   104A      7.398294  
     105A      7.398905   103B      7.513121   106A      7.513266  
     104B      7.514059   105B      7.547154   107A      7.549681  
     106B      7.551479   108A      7.646607   109A      7.647816  
     107B      8.124572   110A      8.124947   108B      8.125319  
     111A      8.160544   112A      8.246023   113A      8.252481  
     109B      8.300556   114A      8.302235   110B      8.303916  
     115A      8.782535   111B      8.782647   112B      8.783471  
     113B      8.796943   114B      8.797246   116A      8.797608  
     115B      8.869717   117A      8.870363   116B      8.871009  
     117B      9.006485   118A      9.008637   118B      9.010774  
     119A      9.232762   120A      9.234574   121A      9.315025  
     122A      9.524859   123A      9.530104   119B      9.554383  
     124A      9.555703   120B      9.557038   121B      9.785704  
     125A      9.786630   122B      9.787480   126A      9.864408  
     127A      9.865006   123B     10.110843   128A     10.112938  
     124B     10.115107   129A     10.340874   125B     10.491384  
     130A     10.493252   126B     10.495147   127B     11.034976  
     131A     11.035383   128B     11.035792   129B     12.556819  
     132A     12.557121   130B     12.557407   133A     13.177552  
     134A     28.833709  

    Final Occupation by Irrep:
              A     B 
    DOCC [     3,    2 ]

  @DF-RKS Final Energy:   -40.49520349927055

   => Energetics <=

    Nuclear Repulsion Energy =             13.4613150165361493
    One-Electron Energy =                 -79.8634726607389211
    Two-Electron Energy =                  30.4766457426216526
    DFT Exchange-Correlation Energy =      -4.6110349277196265
    Empirical Dispersion Energy =           0.0000000000000000
    VV10 Nonlocal Energy =                  0.0413433300301876
    Total Energy =                        -40.4952034992705592

Computation Completed


Properties will be evaluated at   0.000000,   0.000000,   0.000000 [a0]

Properties computed using the SCF density matrix

  Nuclear Dipole Moment: [e a0]
     X:    -0.0000      Y:     0.0000      Z:    -0.0000

  Electronic Dipole Moment: [e a0]
     X:     0.0000      Y:     0.0000      Z:    -0.0000

  Dipole Moment: [e a0]
     X:    -0.0000      Y:     0.0000      Z:    -0.0000     Total:     0.0000

  Dipole Moment: [D]
     X:    -0.0000      Y:     0.0000      Z:    -0.0000     Total:     0.0000


*** tstop() called on bp1-compute00116.data.bp.acrc.priv at Wed Apr 28 13:19:45 2021
Module time:
	user time   =     164.30 seconds =       2.74 minutes
	system time =       4.38 seconds =       0.07 minutes
	total time  =          8 seconds =       0.13 minutes
Total time:
	user time   =     508.08 seconds =       8.47 minutes
	system time =      20.19 seconds =       0.34 minutes
	total time  =         25 seconds =       0.42 minutes

  //>>>>>>>>>>>>>>>>>>>>>>>>>>>>>>>>>>>//
  //    Loading displacement 4 of 11   //
  //<<<<<<<<<<<<<<<<<<<<<<<<<<<<<<<<<<<//

*** tstart() called on bp1-compute00116.data.bp.acrc.priv
*** at Wed Apr 28 13:19:45 2021

   => Loading Basis Set <=

    Name: AUG-CC-PV(Q+D)Z
    Role: ORBITAL
    Keyword: BASIS
    atoms 1, 3-5 entry H          line    56 file /work/zw18965/.conda/envs/p4env/share/psi4/basis/aug-cc-pv_qpd_z.gbs 
    atoms 2      entry C          line   319 file /work/zw18965/.conda/envs/p4env/share/psi4/basis/aug-cc-pv_qpd_z.gbs 


         ---------------------------------------------------------
                                   SCF
               by Justin Turney, Rob Parrish, Andy Simmonett
                          and Daniel G. A. Smith
                              RKS Reference
                       24 Threads, 137329 MiB Core
         ---------------------------------------------------------

  ==> Geometry <==

    Molecular point group: c2
    Full point group: D1

    Geometry (in Angstrom), charge = 0, multiplicity = 1:

       Center              X                  Y                   Z               Mass       
    ------------   -----------------  -----------------  -----------------  -----------------
         H            0.000000000007     0.886402983753    -0.628099357864     1.007825032230
         C            0.000000000000     0.000000000000     0.000000000006    12.000000000000
         H            0.888266630391     0.000000000002     0.628099357827     1.007825032230
         H           -0.888266630391    -0.000000000002     0.628099357827     1.007825032230
         H           -0.000000000007    -0.886402983753    -0.628099357864     1.007825032230

  Running in c2 symmetry.

  Rotational constants: A =      5.31099  B =      5.31099  C =      5.29986 [cm^-1]
  Rotational constants: A = 159219.60880  B = 159219.60880  C = 158885.90516 [MHz]
  Nuclear repulsion =   13.470747899164557

  Charge       = 0
  Multiplicity = 1
  Electrons    = 10
  Nalpha       = 5
  Nbeta        = 5

  ==> Algorithm <==

  SCF Algorithm Type is DF.
  DIIS enabled.
  MOM disabled.
  Fractional occupation disabled.
  Guess Type is SAD.
  Energy threshold   = 1.00e-08
  Density threshold  = 1.00e-08
  Integral threshold = 0.00e+00

  ==> Primary Basis <==

  Basis Set: AUG-CC-PV(Q+D)Z
    Blend: AUG-CC-PV(Q+D)Z
    Number of shells: 76
    Number of basis function: 264
    Number of Cartesian functions: 325
    Spherical Harmonics?: true
    Max angular momentum: 4

  ==> DFT Potential <==

   => Composite Functional: WB97M-V <= 

    wB97M-V Hyb-GGA Exchange-Correlation Functional

    N. Mardirossian and M. Head-Gordon, J. Chem. Phys. 144, 214110 (2016)

    Deriv               =              1
    GGA                 =           TRUE
    Meta                =           TRUE

    Exchange Hybrid     =           TRUE
    MP2 Hybrid          =          FALSE

   => Exchange-Correlation Functionals <=

    1.0000   wB97M-V exchange-correlation functional

   => Exact (HF) Exchange <=

    0.8500            HF,LR [omega = 0.3000]
    0.1500               HF 

   => VV10 Non-Local Parameters <=

    VV10 B              =     6.0000E+00
    VV10 C              =     1.0000E-02

   => Molecular Quadrature <=

    Radial Scheme          =       TREUTLER
    Pruning Scheme         =           FLAT
    Nuclear Scheme         =       TREUTLER

    BS radius alpha        =              1
    Pruning alpha          =              1
    Radial Points          =             75
    Spherical Points       =            302
    Total Points           =         113250
    Total Blocks           =            915
    Max Points             =            256
    Max Functions          =            264

   => Loading Basis Set <=

    Name: (AUG-CC-PV(Q+D)Z AUX)
    Role: JKFIT
    Keyword: DF_BASIS_SCF
    atoms 1, 3-5 entry H          line    70 file /work/zw18965/.conda/envs/p4env/share/psi4/basis/aug-cc-pvqz-jkfit.gbs 
    atoms 2      entry C          line   178 file /work/zw18965/.conda/envs/p4env/share/psi4/basis/aug-cc-pvqz-jkfit.gbs 

  ==> Pre-Iterations <==

   -------------------------------------------------------
    Irrep   Nso     Nmo     Nalpha   Nbeta   Ndocc  Nsocc
   -------------------------------------------------------
     A        134     134       0       0       0       0
     B        130     130       0       0       0       0
   -------------------------------------------------------
    Total     264     264       5       5       5       0
   -------------------------------------------------------

  ==> Integral Setup <==

  ==> DiskDFJK: Density-Fitted J/K Matrices <==

    J tasked:                  Yes
    K tasked:                  Yes
    wK tasked:                 Yes
    Omega:               3.000E-01
    OpenMP threads:             24
    Integrals threads:          24
    Memory [MiB]:           100934
    Algorithm:                Core
    Integral Cache:           NONE
    Schwarz Cutoff:          1E-12
    Fitting Condition:       1E-10

   => Auxiliary Basis Set <=

  Basis Set: (AUG-CC-PV(Q+D)Z AUX)
    Blend: AUG-CC-PVQZ-JKFIT
    Number of shells: 106
    Number of basis function: 446
    Number of Cartesian functions: 602
    Spherical Harmonics?: true
    Max angular momentum: 5

  Cached 100.0% of DFT collocation blocks in 2.014 [GiB].

  Minimum eigenvalue in the overlap matrix is 1.9136702049E-05.
  Using Symmetric Orthogonalization.

  SCF Guess: Superposition of Atomic Densities via on-the-fly atomic UHF.

  ==> Iterations <==

                           Total Energy        Delta E     RMS |[F,P]|

   @DF-RKS iter SAD:   -39.94845186306729   -3.99485e+01   0.00000e+00 
   @DF-RKS iter   1:   -40.34965124649497   -4.01199e-01   2.95686e-03 DIIS
   @DF-RKS iter   2:   -40.42286890002043   -7.32177e-02   2.06134e-03 DIIS
   @DF-RKS iter   3:   -40.49493092457795   -7.20620e-02   8.22324e-05 DIIS
   @DF-RKS iter   4:   -40.49519498754341   -2.64063e-04   1.50436e-05 DIIS
   @DF-RKS iter   5:   -40.49520461885579   -9.63131e-06   2.16012e-06 DIIS
   @DF-RKS iter   6:   -40.49520484599037   -2.27135e-07   2.63736e-07 DIIS
   @DF-RKS iter   7:   -40.49520484868144   -2.69107e-09   2.60716e-08 DIIS
   @DF-RKS iter   8:   -40.49520484871404   -3.25997e-11   2.19503e-09 DIIS
  Energy and wave function converged.


  ==> Post-Iterations <==

    Orbital Energies [Eh]
    ---------------------

    Doubly Occupied:                                                      

       1A    -10.319148     2A     -0.812806     3A     -0.493328  
       1B     -0.493133     2B     -0.492962  

    Virtual:                                                              

       4A      0.014078     5A      0.037100     3B      0.037116  
       4B      0.037124     5B      0.090753     6B      0.090756  
       6A      0.090799     7A      0.105517     7B      0.157510  
       8A      0.157541     8B      0.157591     9A      0.174781  
      10A      0.174820    11A      0.239528     9B      0.245962  
      10B      0.245980    12A      0.246068    11B      0.251787  
      13A      0.251808    12B      0.251851    14A      0.262625  
      13B      0.262685    14B      0.262697    15A      0.298830  
      15B      0.339672    16A      0.339911    16B      0.340000  
      17A      0.364409    18A      0.364572    19A      0.500941  
      20A      0.501021    17B      0.501107    18B      0.501168  
      21A      0.501265    22A      0.541724    19B      0.636003  
      23A      0.636071    20B      0.636209    21B      0.645365  
      24A      0.645433    22B      0.645572    25A      0.678850  
      23B      0.678953    24B      0.679002    26A      0.687538  
      25B      0.705784    26B      0.705840    27A      0.705929  
      27B      0.745346    28B      0.745366    28A      0.745639  
      29A      0.820321    29B      0.831316    30A      0.831479  
      30B      0.831525    31A      0.856469    32A      0.856521  
      33A      0.905704    34A      0.905951    35A      1.002240  
      31B      1.002654    32B      1.002706    36A      1.006198  
      33B      1.058291    37A      1.058622    34B      1.058622  
      35B      1.139487    36B      1.139664    38A      1.139831  
      39A      1.267250    37B      1.267295    38B      1.267415  
      39B      1.365306    40B      1.365675    40A      1.365721  
      41A      1.403515    41B      1.452521    42A      1.452681  
      42B      1.452698    43A      1.546765    44A      1.546839  
      45A      1.698822    43B      1.699219    44B      1.699546  
      45B      1.741573    46B      1.741701    46A      1.742177  
      47A      1.759069    48A      1.781492    49A      1.781780  
      50A      1.799950    47B      1.800434    48B      1.801689  
      51A      1.835273    52A      1.861960    53A      1.862329  
      54A      1.882873    49B      1.882975    50B      1.882997  
      51B      1.951881    52B      1.952172    55A      1.952218  
      53B      1.971363    56A      1.971380    54B      1.972292  
      57A      2.019214    58A      2.038741    55B      2.096487  
      59A      2.096998    56B      2.097237    57B      2.140617  
      58B      2.140737    60A      2.140903    59B      2.246417  
      60B      2.246606    61A      2.246617    61B      2.492263  
      62B      2.492884    62A      2.492899    63A      2.524127  
      64A      2.524225    63B      2.610330    65A      2.610728  
      64B      2.610962    65B      2.621353    66B      2.621753  
      66A      2.621820    67A      2.627572    68A      2.816005  
      69A      2.816288    67B      2.825705    68B      2.825876  
      70A      2.826047    69B      2.965468    71A      2.966426  
      70B      2.966656    72A      2.999947    73A      3.171556  
      74A      3.171736    75A      3.480234    71B      3.480382  
      72B      3.481982    76A      3.489695    73B      3.490031  
      74B      3.490221    77A      3.643187    78A      3.684395  
      75B      3.684633    76B      3.685140    79A      3.793119  
      77B      3.793133    78B      3.793304    80A      3.850103  
      79B      3.850176    80B      3.850946    81A      3.921791  
      82A      4.024011    83A      4.024289    84A      4.057650  
      81B      4.057779    82B      4.058073    85A      4.096843  
      86A      4.097412    83B      4.458696    84B      4.459860  
      87A      4.460695    85B      4.670707    86B      4.671533  
      88A      4.671966    89A      4.846346    90A      5.757137  
      91A      5.757953    87B      5.813199    88B      5.813305  
      92A      5.813701    89B      5.902456    93A      5.902805  
      90B      5.903263    94A      6.185657    95A      6.449068  
      91B      6.460129    96A      6.461096    92B      6.463402  
      97A      6.540376    93B      6.540515    94B      6.540694  
      95B      6.593059    98A      6.593457    96B      6.595670  
      97B      6.664134    99A      6.666958    98B      6.667823  
      99B      6.859746   100A      6.860107   100B      6.860611  
     101A      6.984210   101B      7.178110   102A      7.178841  
     102B      7.180786   103A      7.210604   104A      7.398367  
     105A      7.398612   103B      7.515414   106A      7.517075  
     104B      7.517660   105B      7.550485   107A      7.551019  
     106B      7.555085   108A      7.650555   109A      7.651073  
     107B      8.126306   110A      8.126988   108B      8.127115  
     111A      8.166546   112A      8.248222   113A      8.250814  
     109B      8.303502   110B      8.303753   114A      8.304900  
     115A      8.785117   111B      8.785167   112B      8.785272  
     113B      8.797832   116A      8.798531   114B      8.799715  
     115B      8.872062   117A      8.872761   116B      8.874324  
     118A      9.010004   117B      9.011444   118B      9.011763  
     119A      9.233408   120A      9.234231   121A      9.317202  
     122A      9.531126   123A      9.533244   119B      9.557413  
     124A      9.557612   120B      9.559723   121B      9.787615  
     125A      9.787764   122B      9.789181   126A      9.869059  
     127A      9.869222   123B     10.116795   124B     10.117568  
     128A     10.118741   129A     10.346314   125B     10.495631  
     126B     10.495941   130A     10.497267   127B     11.038809  
     131A     11.040702   128B     11.042035   129B     12.557544  
     132A     12.564652   130B     12.572265   133A     13.180424  
     134A     28.850113  

    Final Occupation by Irrep:
              A     B 
    DOCC [     3,    2 ]

  @DF-RKS Final Energy:   -40.49520484871404

   => Energetics <=

    Nuclear Repulsion Energy =             13.4707478991645573
    One-Electron Energy =                 -79.8811655659789466
    Two-Electron Energy =                  30.4857863551223325
    DFT Exchange-Correlation Energy =      -4.6119174113373980
    Empirical Dispersion Energy =           0.0000000000000000
    VV10 Nonlocal Energy =                  0.0413438743154281
    Total Energy =                        -40.4952048487140388

Computation Completed


Properties will be evaluated at   0.000000,   0.000000,   0.000000 [a0]

Properties computed using the SCF density matrix

  Nuclear Dipole Moment: [e a0]
     X:     0.0000      Y:     0.0000      Z:    -0.0000

  Electronic Dipole Moment: [e a0]
     X:     0.0000      Y:     0.0000      Z:    -0.0007

  Dipole Moment: [e a0]
     X:     0.0000      Y:     0.0000      Z:    -0.0007     Total:     0.0007

  Dipole Moment: [D]
     X:     0.0000      Y:     0.0000      Z:    -0.0017     Total:     0.0017


*** tstop() called on bp1-compute00116.data.bp.acrc.priv at Wed Apr 28 13:19:52 2021
Module time:
	user time   =     167.02 seconds =       2.78 minutes
	system time =       4.95 seconds =       0.08 minutes
	total time  =          7 seconds =       0.12 minutes
Total time:
	user time   =     675.25 seconds =      11.25 minutes
	system time =      25.15 seconds =       0.42 minutes
	total time  =         32 seconds =       0.53 minutes

  //>>>>>>>>>>>>>>>>>>>>>>>>>>>>>>>>>>>//
  //    Loading displacement 5 of 11   //
  //<<<<<<<<<<<<<<<<<<<<<<<<<<<<<<<<<<<//

*** tstart() called on bp1-compute00116.data.bp.acrc.priv
*** at Wed Apr 28 13:19:52 2021

   => Loading Basis Set <=

    Name: AUG-CC-PV(Q+D)Z
    Role: ORBITAL
    Keyword: BASIS
    atoms 1, 3-5 entry H          line    56 file /work/zw18965/.conda/envs/p4env/share/psi4/basis/aug-cc-pv_qpd_z.gbs 
    atoms 2      entry C          line   319 file /work/zw18965/.conda/envs/p4env/share/psi4/basis/aug-cc-pv_qpd_z.gbs 


         ---------------------------------------------------------
                                   SCF
               by Justin Turney, Rob Parrish, Andy Simmonett
                          and Daniel G. A. Smith
                              RKS Reference
                       24 Threads, 137329 MiB Core
         ---------------------------------------------------------

  ==> Geometry <==

    Molecular point group: c2
    Full point group: D1

    Geometry (in Angstrom), charge = 0, multiplicity = 1:

       Center              X                  Y                   Z               Mass       
    ------------   -----------------  -----------------  -----------------  -----------------
         H            0.000000000007     0.890130277016    -0.628099357864     1.007825032230
         C           -0.000000000000     0.000000000000     0.000000000006    12.000000000000
         H            0.888266630391     0.000000000002     0.628099357827     1.007825032230
         H           -0.888266630391    -0.000000000002     0.628099357827     1.007825032230
         H           -0.000000000007    -0.890130277016    -0.628099357864     1.007825032230

  Running in c2 symmetry.

  Rotational constants: A =      5.29986  B =      5.28876  C =      5.28876 [cm^-1]
  Rotational constants: A = 158885.90516  B = 158552.90092  C = 158552.90092 [MHz]
  Nuclear repulsion =   13.451919342910072

  Charge       = 0
  Multiplicity = 1
  Electrons    = 10
  Nalpha       = 5
  Nbeta        = 5

  ==> Algorithm <==

  SCF Algorithm Type is DF.
  DIIS enabled.
  MOM disabled.
  Fractional occupation disabled.
  Guess Type is SAD.
  Energy threshold   = 1.00e-08
  Density threshold  = 1.00e-08
  Integral threshold = 0.00e+00

  ==> Primary Basis <==

  Basis Set: AUG-CC-PV(Q+D)Z
    Blend: AUG-CC-PV(Q+D)Z
    Number of shells: 76
    Number of basis function: 264
    Number of Cartesian functions: 325
    Spherical Harmonics?: true
    Max angular momentum: 4

  ==> DFT Potential <==

   => Composite Functional: WB97M-V <= 

    wB97M-V Hyb-GGA Exchange-Correlation Functional

    N. Mardirossian and M. Head-Gordon, J. Chem. Phys. 144, 214110 (2016)

    Deriv               =              1
    GGA                 =           TRUE
    Meta                =           TRUE

    Exchange Hybrid     =           TRUE
    MP2 Hybrid          =          FALSE

   => Exchange-Correlation Functionals <=

    1.0000   wB97M-V exchange-correlation functional

   => Exact (HF) Exchange <=

    0.8500            HF,LR [omega = 0.3000]
    0.1500               HF 

   => VV10 Non-Local Parameters <=

    VV10 B              =     6.0000E+00
    VV10 C              =     1.0000E-02

   => Molecular Quadrature <=

    Radial Scheme          =       TREUTLER
    Pruning Scheme         =           FLAT
    Nuclear Scheme         =       TREUTLER

    BS radius alpha        =              1
    Pruning alpha          =              1
    Radial Points          =             75
    Spherical Points       =            302
    Total Points           =         113250
    Total Blocks           =            919
    Max Points             =            255
    Max Functions          =            264

   => Loading Basis Set <=

    Name: (AUG-CC-PV(Q+D)Z AUX)
    Role: JKFIT
    Keyword: DF_BASIS_SCF
    atoms 1, 3-5 entry H          line    70 file /work/zw18965/.conda/envs/p4env/share/psi4/basis/aug-cc-pvqz-jkfit.gbs 
    atoms 2      entry C          line   178 file /work/zw18965/.conda/envs/p4env/share/psi4/basis/aug-cc-pvqz-jkfit.gbs 

  ==> Pre-Iterations <==

   -------------------------------------------------------
    Irrep   Nso     Nmo     Nalpha   Nbeta   Ndocc  Nsocc
   -------------------------------------------------------
     A        134     134       0       0       0       0
     B        130     130       0       0       0       0
   -------------------------------------------------------
    Total     264     264       5       5       5       0
   -------------------------------------------------------

  ==> Integral Setup <==

  ==> DiskDFJK: Density-Fitted J/K Matrices <==

    J tasked:                  Yes
    K tasked:                  Yes
    wK tasked:                 Yes
    Omega:               3.000E-01
    OpenMP threads:             24
    Integrals threads:          24
    Memory [MiB]:           100934
    Algorithm:                Core
    Integral Cache:           NONE
    Schwarz Cutoff:          1E-12
    Fitting Condition:       1E-10

   => Auxiliary Basis Set <=

  Basis Set: (AUG-CC-PV(Q+D)Z AUX)
    Blend: AUG-CC-PVQZ-JKFIT
    Number of shells: 106
    Number of basis function: 446
    Number of Cartesian functions: 602
    Spherical Harmonics?: true
    Max angular momentum: 5

  Cached 100.0% of DFT collocation blocks in 2.014 [GiB].

  Minimum eigenvalue in the overlap matrix is 1.9173422379E-05.
  Using Symmetric Orthogonalization.

  SCF Guess: Superposition of Atomic Densities via on-the-fly atomic UHF.

  ==> Iterations <==

                           Total Energy        Delta E     RMS |[F,P]|

   @DF-RKS iter SAD:   -39.94674342637106   -3.99467e+01   0.00000e+00 
   @DF-RKS iter   1:   -40.35007667182241   -4.03333e-01   2.95053e-03 DIIS
   @DF-RKS iter   2:   -40.42288732925515   -7.28107e-02   2.05983e-03 DIIS
   @DF-RKS iter   3:   -40.49491862965515   -7.20313e-02   8.22075e-05 DIIS
   @DF-RKS iter   4:   -40.49518330315133   -2.64673e-04   1.50641e-05 DIIS
   @DF-RKS iter   5:   -40.49519296346273   -9.66031e-06   2.16258e-06 DIIS
   @DF-RKS iter   6:   -40.49519319101775   -2.27555e-07   2.63659e-07 DIIS
   @DF-RKS iter   7:   -40.49519319371080   -2.69306e-09   2.60487e-08 DIIS
   @DF-RKS iter   8:   -40.49519319374336   -3.25571e-11   2.19339e-09 DIIS
  Energy and wave function converged.


  ==> Post-Iterations <==

    Orbital Energies [Eh]
    ---------------------

    Doubly Occupied:                                                      

       1A    -10.319827     2A     -0.812328     1B     -0.493035  
       2B     -0.492862     3A     -0.492671  

    Virtual:                                                              

       4A      0.014055     3B      0.037098     4B      0.037107  
       5A      0.037120     6A      0.090712     5B      0.090758  
       6B      0.090761     7A      0.105477     7B      0.157434  
       8A      0.157483     8B      0.157515     9A      0.174726  
      10A      0.174766    11A      0.239391    12A      0.245896  
       9B      0.245990    10B      0.246008    11B      0.251702  
      13A      0.251746    12B      0.251764    13B      0.262619  
      14B      0.262630    14A      0.262699    15A      0.298666  
      15B      0.339370    16A      0.339458    16B      0.339698  
      17A      0.364385    18A      0.364548    19A      0.500869  
      17B      0.500960    18B      0.501021    20A      0.501210  
      21A      0.501280    22A      0.541096    19B      0.635734  
      23A      0.635879    20B      0.635942    21B      0.645013  
      24A      0.645154    22B      0.645219    23B      0.678738  
      24B      0.678788    25A      0.678886    26A      0.687273  
      27A      0.705640    25B      0.705719    26B      0.705773  
      28A      0.745281    27B      0.745548    28B      0.745568  
      29A      0.820306    29B      0.831130    30A      0.831185  
      30B      0.831339    31A      0.856213    32A      0.856264  
      33A      0.905202    34A      0.905445    31B      1.002267  
      32B      1.002316    35A      1.002727    36A      1.005692  
      37A      1.058185    33B      1.058192    34B      1.058522  
      38A      1.139199    35B      1.139363    36B      1.139541  
      37B      1.266924    38B      1.267045    39A      1.267079  
      40A      1.364461    39B      1.364505    40B      1.364875  
      41A      1.402931    41B      1.452073    42A      1.452084  
      42B      1.452254    43A      1.546725    44A      1.546808  
      43B      1.698212    44B      1.698544    45A      1.698929  
      46A      1.741353    45B      1.741834    46B      1.741956  
      47A      1.758940    48A      1.780907    49A      1.781159  
      47B      1.799150    48B      1.800398    50A      1.800874  
      51A      1.834377    52A      1.861090    53A      1.861501  
      49B      1.883353    50B      1.883374    54A      1.883476  
      55A      1.953501    51B      1.953528    52B      1.953811  
      53B      1.970155    56A      1.971050    54B      1.971083  
      57A      2.019314    58A      2.037614    55B      2.095890  
      59A      2.096109    56B      2.096622    60A      2.140854  
      57B      2.141014    58B      2.141147    61A      2.244574  
      59B      2.244576    60B      2.244764    62A      2.491902  
      61B      2.491986    62B      2.492602    63A      2.521499  
      64A      2.521572    63B      2.609533    65A      2.609774  
      64B      2.610159    66A      2.619672    65B      2.619726  
      66B      2.620114    67A      2.625921    68A      2.816647  
      69A      2.816896    70A      2.824908    67B      2.824998  
      68B      2.825186    69B      2.962844    71A      2.963015  
      70B      2.964004    72A      2.998617    73A      3.169837  
      74A      3.170028    71B      3.476115    72B      3.478048  
      75A      3.478317    73B      3.488385    74B      3.488520  
      76A      3.488582    77A      3.641127    75B      3.682754  
      76B      3.683288    78A      3.683494    77B      3.789872  
      79A      3.790044    78B      3.790054    79B      3.849575  
      80B      3.850353    80A      3.850397    81A      3.919787  
      82A      4.022352    83A      4.022584    81B      4.056115  
      82B      4.056384    84A      4.056534    85A      4.097514  
      86A      4.098104    87A      4.454782    83B      4.455633  
      84B      4.456795    88A      4.669556    85B      4.669987  
      86B      4.670816    89A      4.843121    90A      5.753409  
      91A      5.754177    92A      5.818621    87B      5.818913  
      88B      5.819038    89B      5.903666    93A      5.904103  
      90B      5.904484    94A      6.184622    95A      6.448199  
      91B      6.455021    96A      6.457502    92B      6.458430  
      93B      6.537343    94B      6.537514    97A      6.537595  
      95B      6.589814    98A      6.591940    96B      6.592289  
      97B      6.659578    99A      6.660408    98B      6.663229  
      99B      6.857311   100A      6.857762   100B      6.858156  
     101A      6.983105   101B      7.177575   102A      7.179307  
     102B      7.180181   103A      7.207511   104A      7.398506  
     105A      7.398761   103B      7.509016   106A      7.510394  
     104B      7.512019   105B      7.544118   107A      7.547348  
     106B      7.547995   108A      7.643291   109A      7.643759  
     107B      8.122710   110A      8.122849   108B      8.123490  
     111A      8.154840   112A      8.247402   113A      8.250087  
     114A      8.299781   109B      8.300785   110B      8.300984  
     111B      8.780494   112B      8.781197   115A      8.781345  
     113B      8.794769   116A      8.795352   114B      8.796028  
     115B      8.866662   117A      8.868176   116B      8.868725  
     117B      9.005566   118B      9.005871   118A      9.007152  
     119A      9.233168   120A      9.233826   121A      9.312836  
     122A      9.521737   123A      9.523895   119B      9.551574  
     124A      9.553649   120B      9.553895   121B      9.783973  
     125A      9.785362   122B      9.785510   126A      9.859982  
     127A      9.860305   128A     10.107244   123B     10.108279  
     124B     10.109116   129A     10.335345   130A     10.489555  
     125B     10.490561   126B     10.490921   127B     11.028842  
     131A     11.030158   128B     11.032067   129B     12.542022  
     132A     12.549533   130B     12.556720   133A     13.174711  
     134A     28.817358  

    Final Occupation by Irrep:
              A     B 
    DOCC [     3,    2 ]

  @DF-RKS Final Energy:   -40.49519319374336

   => Energetics <=

    Nuclear Repulsion Energy =             13.4519193429100721
    One-Electron Energy =                 -79.8458498229275477
    Two-Electron Energy =                  30.4675490720777660
    DFT Exchange-Correlation Energy =      -4.6101531160353151
    Empirical Dispersion Energy =           0.0000000000000000
    VV10 Nonlocal Energy =                  0.0413413302316607
    Total Energy =                        -40.4951931937433613

Computation Completed


Properties will be evaluated at   0.000000,   0.000000,   0.000000 [a0]

Properties computed using the SCF density matrix

  Nuclear Dipole Moment: [e a0]
     X:     0.0000      Y:     0.0000      Z:    -0.0000

  Electronic Dipole Moment: [e a0]
     X:     0.0000      Y:     0.0000      Z:     0.0007

  Dipole Moment: [e a0]
     X:     0.0000      Y:     0.0000      Z:     0.0007     Total:     0.0007

  Dipole Moment: [D]
     X:     0.0000      Y:     0.0000      Z:     0.0017     Total:     0.0017


*** tstop() called on bp1-compute00116.data.bp.acrc.priv at Wed Apr 28 13:19:59 2021
Module time:
	user time   =     167.73 seconds =       2.80 minutes
	system time =       4.27 seconds =       0.07 minutes
	total time  =          7 seconds =       0.12 minutes
Total time:
	user time   =     843.14 seconds =      14.05 minutes
	system time =      29.43 seconds =       0.49 minutes
	total time  =         39 seconds =       0.65 minutes

  //>>>>>>>>>>>>>>>>>>>>>>>>>>>>>>>>>>>//
  //    Loading displacement 6 of 11   //
  //<<<<<<<<<<<<<<<<<<<<<<<<<<<<<<<<<<<//

*** tstart() called on bp1-compute00116.data.bp.acrc.priv
*** at Wed Apr 28 13:19:59 2021

   => Loading Basis Set <=

    Name: AUG-CC-PV(Q+D)Z
    Role: ORBITAL
    Keyword: BASIS
    atoms 1, 3-5 entry H          line    56 file /work/zw18965/.conda/envs/p4env/share/psi4/basis/aug-cc-pv_qpd_z.gbs 
    atoms 2      entry C          line   319 file /work/zw18965/.conda/envs/p4env/share/psi4/basis/aug-cc-pv_qpd_z.gbs 


         ---------------------------------------------------------
                                   SCF
               by Justin Turney, Rob Parrish, Andy Simmonett
                          and Daniel G. A. Smith
                              RKS Reference
                       24 Threads, 137329 MiB Core
         ---------------------------------------------------------

  ==> Geometry <==

    Molecular point group: c2
    Full point group: C2v

    Geometry (in Angstrom), charge = 0, multiplicity = 1:

       Center              X                  Y                   Z               Mass       
    ------------   -----------------  -----------------  -----------------  -----------------
         H            0.000000000007     0.888266630384    -0.629841910154     1.007825032230
         C           -0.000000000000     0.000000000000     0.000250603840    12.000000000000
         H            0.888266630391     0.000000000002     0.628349961661     1.007825032230
         H           -0.888266630391    -0.000000000002     0.628349961661     1.007825032230
         H           -0.000000000007    -0.888266630384    -0.629841910154     1.007825032230

  Running in c2 symmetry.

  Rotational constants: A =      5.29986  B =      5.29146  C =      5.29146 [cm^-1]
  Rotational constants: A = 158885.90516  B = 158633.85854  C = 158633.85854 [MHz]
  Nuclear repulsion =   13.454204798086776

  Charge       = 0
  Multiplicity = 1
  Electrons    = 10
  Nalpha       = 5
  Nbeta        = 5

  ==> Algorithm <==

  SCF Algorithm Type is DF.
  DIIS enabled.
  MOM disabled.
  Fractional occupation disabled.
  Guess Type is SAD.
  Energy threshold   = 1.00e-08
  Density threshold  = 1.00e-08
  Integral threshold = 0.00e+00

  ==> Primary Basis <==

  Basis Set: AUG-CC-PV(Q+D)Z
    Blend: AUG-CC-PV(Q+D)Z
    Number of shells: 76
    Number of basis function: 264
    Number of Cartesian functions: 325
    Spherical Harmonics?: true
    Max angular momentum: 4

  ==> DFT Potential <==

   => Composite Functional: WB97M-V <= 

    wB97M-V Hyb-GGA Exchange-Correlation Functional

    N. Mardirossian and M. Head-Gordon, J. Chem. Phys. 144, 214110 (2016)

    Deriv               =              1
    GGA                 =           TRUE
    Meta                =           TRUE

    Exchange Hybrid     =           TRUE
    MP2 Hybrid          =          FALSE

   => Exchange-Correlation Functionals <=

    1.0000   wB97M-V exchange-correlation functional

   => Exact (HF) Exchange <=

    0.8500            HF,LR [omega = 0.3000]
    0.1500               HF 

   => VV10 Non-Local Parameters <=

    VV10 B              =     6.0000E+00
    VV10 C              =     1.0000E-02

   => Molecular Quadrature <=

    Radial Scheme          =       TREUTLER
    Pruning Scheme         =           FLAT
    Nuclear Scheme         =       TREUTLER

    BS radius alpha        =              1
    Pruning alpha          =              1
    Radial Points          =             75
    Spherical Points       =            302
    Total Points           =         113250
    Total Blocks           =            935
    Max Points             =            256
    Max Functions          =            264

   => Loading Basis Set <=

    Name: (AUG-CC-PV(Q+D)Z AUX)
    Role: JKFIT
    Keyword: DF_BASIS_SCF
    atoms 1, 3-5 entry H          line    70 file /work/zw18965/.conda/envs/p4env/share/psi4/basis/aug-cc-pvqz-jkfit.gbs 
    atoms 2      entry C          line   178 file /work/zw18965/.conda/envs/p4env/share/psi4/basis/aug-cc-pvqz-jkfit.gbs 

  ==> Pre-Iterations <==

   -------------------------------------------------------
    Irrep   Nso     Nmo     Nalpha   Nbeta   Ndocc  Nsocc
   -------------------------------------------------------
     A        134     134       0       0       0       0
     B        130     130       0       0       0       0
   -------------------------------------------------------
    Total     264     264       5       5       5       0
   -------------------------------------------------------

  ==> Integral Setup <==

  ==> DiskDFJK: Density-Fitted J/K Matrices <==

    J tasked:                  Yes
    K tasked:                  Yes
    wK tasked:                 Yes
    Omega:               3.000E-01
    OpenMP threads:             24
    Integrals threads:          24
    Memory [MiB]:           100934
    Algorithm:                Core
    Integral Cache:           NONE
    Schwarz Cutoff:          1E-12
    Fitting Condition:       1E-10

   => Auxiliary Basis Set <=

  Basis Set: (AUG-CC-PV(Q+D)Z AUX)
    Blend: AUG-CC-PVQZ-JKFIT
    Number of shells: 106
    Number of basis function: 446
    Number of Cartesian functions: 602
    Spherical Harmonics?: true
    Max angular momentum: 5

  Cached 100.0% of DFT collocation blocks in 2.014 [GiB].

  Minimum eigenvalue in the overlap matrix is 1.9169007647E-05.
  Using Symmetric Orthogonalization.

  SCF Guess: Superposition of Atomic Densities via on-the-fly atomic UHF.

  ==> Iterations <==

                           Total Energy        Delta E     RMS |[F,P]|

   @DF-RKS iter SAD:   -39.94695538957883   -3.99470e+01   0.00000e+00 
   @DF-RKS iter   1:   -40.35002524381739   -4.03070e-01   2.95131e-03 DIIS
   @DF-RKS iter   2:   -40.42288580253379   -7.28606e-02   2.06003e-03 DIIS
   @DF-RKS iter   3:   -40.49492139499840   -7.20356e-02   8.22089e-05 DIIS
   @DF-RKS iter   4:   -40.49518599716579   -2.64602e-04   1.50608e-05 DIIS
   @DF-RKS iter   5:   -40.49519565317803   -9.65601e-06   2.16198e-06 DIIS
   @DF-RKS iter   6:   -40.49519588062811   -2.27450e-07   2.63400e-07 DIIS
   @DF-RKS iter   7:   -40.49519588331835   -2.69024e-09   2.56211e-08 DIIS
   @DF-RKS iter   8:   -40.49519588335043   -3.20739e-11   1.43759e-09 DIIS
  Energy and wave function converged.


  ==> Post-Iterations <==

    Orbital Energies [Eh]
    ---------------------

    Doubly Occupied:                                                      

       1A    -10.319747     2A     -0.812387     3A     -0.493173  
       1B     -0.493028     2B     -0.492475  

[...]
    ------------   -----------------  -----------------  -----------------  -----------------
         H           -0.000444785937     0.883557128453    -0.620736337090     1.007825032230
         C            0.000000000000    -0.000000000000    -0.000272797685    12.000000000000
         H            0.882123381776    -0.000443848573     0.622360414738     1.007825032230
         H           -0.882123381776     0.000443848573     0.622360414738     1.007825032230
         H            0.000444785937    -0.883557128453    -0.620736337090     1.007825032230

  Running in c2 symmetry.

  Rotational constants: A =      5.39376  B =      5.38342  C =      5.36521 [cm^-1]
  Rotational constants: A = 161700.77134  B = 161390.76902  C = 160844.94457 [MHz]
  Nuclear repulsion =   13.563684732704088

  Charge       = 0
  Multiplicity = 1
  Electrons    = 10
  Nalpha       = 5
  Nbeta        = 5

  ==> Algorithm <==

  SCF Algorithm Type is DF.
  DIIS enabled.
  MOM disabled.
  Fractional occupation disabled.
  Guess Type is READ.
  Energy threshold   = 1.00e-10
  Density threshold  = 1.00e-10
  Integral threshold = 0.00e+00

  ==> Primary Basis <==

  Basis Set: AUG-CC-PV(Q+D)Z
    Blend: AUG-CC-PV(Q+D)Z
    Number of shells: 76
    Number of basis function: 264
    Number of Cartesian functions: 325
    Spherical Harmonics?: true
    Max angular momentum: 4

  ==> DFT Potential <==

   => Composite Functional: WB97M-V <= 

    wB97M-V Hyb-GGA Exchange-Correlation Functional

    N. Mardirossian and M. Head-Gordon, J. Chem. Phys. 144, 214110 (2016)

    Deriv               =              1
    GGA                 =           TRUE
    Meta                =           TRUE

    Exchange Hybrid     =           TRUE
    MP2 Hybrid          =          FALSE

   => Exchange-Correlation Functionals <=

    1.0000   wB97M-V exchange-correlation functional

   => Exact (HF) Exchange <=

    0.8500            HF,LR [omega = 0.3000]
    0.1500               HF 

   => VV10 Non-Local Parameters <=

    VV10 B              =     6.0000E+00
    VV10 C              =     1.0000E-02

   => Molecular Quadrature <=

    Radial Scheme          =       TREUTLER
    Pruning Scheme         =           FLAT
    Nuclear Scheme         =       TREUTLER

    BS radius alpha        =              1
    Pruning alpha          =              1
    Radial Points          =             75
    Spherical Points       =            302
    Total Points           =         113250
    Total Blocks           =            919
    Max Points             =            255
    Max Functions          =            264

   => Loading Basis Set <=

    Name: (AUG-CC-PV(Q+D)Z AUX)
    Role: JKFIT
    Keyword: DF_BASIS_SCF
    atoms 1, 3-5 entry H          line    70 file /work/zw18965/.conda/envs/p4env/share/psi4/basis/aug-cc-pvqz-jkfit.gbs 
    atoms 2      entry C          line   178 file /work/zw18965/.conda/envs/p4env/share/psi4/basis/aug-cc-pvqz-jkfit.gbs 

   => Loading Basis Set <=

    Name: AUG-CC-PV(Q+D)Z
    Role: ORBITAL
    Keyword: BASIS
    atoms 1, 3-5 entry H          line    56 file /work/zw18965/.conda/envs/p4env/share/psi4/basis/aug-cc-pv_qpd_z.gbs 
    atoms 2      entry C          line   319 file /work/zw18965/.conda/envs/p4env/share/psi4/basis/aug-cc-pv_qpd_z.gbs 

  Reading orbitals from file 180, no projection.

  ==> Pre-Iterations <==

   -------------------------------------------------------
    Irrep   Nso     Nmo     Nalpha   Nbeta   Ndocc  Nsocc
   -------------------------------------------------------
     A        134     134       0       0       0       0
     B        130     130       0       0       0       0
   -------------------------------------------------------
    Total     264     264       5       5       5       0
   -------------------------------------------------------

  ==> Integral Setup <==

  ==> DiskDFJK: Density-Fitted J/K Matrices <==

    J tasked:                  Yes
    K tasked:                  Yes
    wK tasked:                 Yes
    Omega:               3.000E-01
    OpenMP threads:             24
    Integrals threads:          24
    Memory [MiB]:           100933
    Algorithm:                Core
    Integral Cache:           NONE
    Schwarz Cutoff:          1E-12
    Fitting Condition:       1E-10

   => Auxiliary Basis Set <=

  Basis Set: (AUG-CC-PV(Q+D)Z AUX)
    Blend: AUG-CC-PVQZ-JKFIT
    Number of shells: 106
    Number of basis function: 446
    Number of Cartesian functions: 602
    Spherical Harmonics?: true
    Max angular momentum: 5

  Cached 100.0% of DFT collocation blocks in 2.015 [GiB].

  Minimum eigenvalue in the overlap matrix is 1.8958811175E-05.
  Using Symmetric Orthogonalization.

  SCF Guess: Orbitals guess was supplied from a previous computation.

  ==> Iterations <==

                           Total Energy        Delta E     RMS |[F,P]|

   @DF-RKS iter   0:   -40.49552192547834   -4.04955e+01   8.42686e-06 
   @DF-RKS iter   1:   -40.49508853974545    4.33386e-04   1.35933e-06 DIIS
   @DF-RKS iter   2:   -40.49508857220211   -3.24567e-08   6.34282e-07 DIIS
   @DF-RKS iter   3:   -40.49508857813856   -5.93645e-09   1.55732e-07 DIIS
   @DF-RKS iter   4:   -40.49508857860026   -4.61704e-10   3.12252e-08 DIIS
   @DF-RKS iter   5:   -40.49508857862545   -2.51887e-11   4.18046e-09 DIIS
   @DF-RKS iter   6:   -40.49508857862637   -9.16600e-13   6.33537e-10 DIIS
   @DF-RKS iter   7:   -40.49508857862635    1.42109e-14   6.97918e-11 DIIS
  Energy and wave function converged.


  ==> Post-Iterations <==

    Orbital Energies [Eh]
    ---------------------

    Doubly Occupied:                                                      

       1A    -10.315809     2A     -0.815162     1B     -0.495205  
       2B     -0.494659     3A     -0.493761  

    Virtual:                                                              

       4A      0.014192     3B      0.037095     4B      0.037128  
       5A      0.037188     6A      0.090763     5B      0.090916  
       6B      0.090995     7A      0.105705     7B      0.157845  
       8B      0.157886     8A      0.157908     9A      0.174972  
      10A      0.175129    11A      0.240197    12A      0.245917  
       9B      0.246261    10B      0.246397    11B      0.252157  
      12B      0.252218    13A      0.252235    13B      0.262626  
      14B      0.262712    14A      0.262960    15A      0.299615  
      16A      0.341375    15B      0.341635    16B      0.341735  
      17A      0.364247    18A      0.364935    19A      0.499585  
      20A      0.499914    21A      0.501971    17B      0.502413  
      18B      0.502536    22A      0.544813    19B      0.637130  
      20B      0.637344    23A      0.637401    21B      0.646920  
      22B      0.647038    24A      0.647127    23B      0.679315  
      24B      0.679451    25A      0.679926    26A      0.688826  
      27A      0.706243    25B      0.706598    26B      0.706879  
      28A      0.744604    27B      0.745609    28B      0.745876  
      29A      0.820361    30A      0.832424    29B      0.832492  
      30B      0.832831    31A      0.857605    32A      0.857760  
      33A      0.907895    34A      0.908844    31B      1.002191  
      32B      1.002646    35A      1.004260    36A      1.008802  
      37A      1.059078    33B      1.059534    34B      1.059987  
      38A      1.140374    35B      1.141269    36B      1.141608  
      37B      1.268662    38B      1.268768    39A      1.269127  
      40A      1.369623    39B      1.370316    40B      1.370928  
      41A      1.406355    42A      1.454837    41B      1.454917  
      42B      1.455375    43A      1.546785    44A      1.547077  
      43B      1.701046    44B      1.701764    45A      1.703677  
      46A      1.740752    45B      1.742670    46B      1.743242  
      47A      1.759581    48A      1.783594    49A      1.784603  
      47B      1.800683    48B      1.802691    50A      1.806404  
      51A      1.839719    52A      1.866278    53A      1.867931  
      49B      1.880486    50B      1.881008    54A      1.881175  
      55A      1.944172    51B      1.944330    52B      1.945231  
      53B      1.975344    54B      1.976226    56A      1.977630  
      57A      2.018850    58A      2.044247    55B      2.099368  
      59A      2.099539    56B      2.100661    60A      2.139295  
      57B      2.140218    58B      2.140460    61A      2.255719  
      59B      2.255945    60B      2.256487    62A      2.493987  
      61B      2.494496    62B      2.495871    63A      2.536995  
      64A      2.537258    65A      2.614597    63B      2.614775  
      64B      2.615156    66A      2.630109    65B      2.631249  
      66B      2.631579    67A      2.635614    68A      2.812115  
      69A      2.813155    70A      2.829128    67B      2.829940  
      68B      2.830240    71A      2.979657    69B      2.980798  
      70B      2.981522    72A      3.006458    73A      3.179549  
      74A      3.180294    71B      3.493043    72B      3.496385  
      73B      3.496657    75A      3.497517    74B      3.499218  
      76A      3.500742    77A      3.653042    75B      3.691133  
      76B      3.692290    78A      3.693603    77B      3.808116  
      78B      3.808686    79A      3.808917    79B      3.850840  
      80B      3.852174    80A      3.853038    81A      3.931663  
      82A      4.031372    83A      4.032587    81B      4.064160  
      82B      4.064887    84A      4.065770    85A      4.092577  
      86A      4.095455    87A      4.475470    83B      4.480633  
      84B      4.482209    88A      4.675312    85B      4.677219  
      86B      4.680066    89A      4.862294    90A      5.774938  
      91A      5.777789    92A      5.785785    87B      5.786102  
      88B      5.787734    89B      5.897071    93A      5.897112  
      90B      5.897183    94A      6.190843    95A      6.453592  
      91B      6.481546    92B      6.482787    96A      6.484307  
      93B      6.554673    94B      6.555029    97A      6.555642  
      95B      6.605549    96B      6.610321    98A      6.612416  
      99A      6.689337    97B      6.692167    98B      6.694872  
      99B      6.870444   100B      6.870677   100A      6.871227  
     101A      6.989097   101B      7.179960   102B      7.182138  
     102A      7.183084   103A      7.226287   104A      7.396453  
     105A      7.397333   103B      7.545359   106A      7.546919  
     104B      7.549409   105B      7.576554   106B      7.582484  
     107A      7.585101   108A      7.685731   109A      7.687891  
     110A      8.143985   107B      8.144902   108B      8.145191  
     111A      8.223157   112A      8.249213   113A      8.258497  
     114A      8.318618   109B      8.322540   110B      8.324118  
     111B      8.801343   112B      8.802704   115A      8.804476  
     116A      8.815514   113B      8.815834   114B      8.817066  
     115B      8.898820   116B      8.899422   117A      8.901330  
     117B      9.032318   118B      9.034205   118A      9.039284  
     119A      9.231589   120A      9.235499   121A      9.338489  
     122A      9.574838   119B      9.581897   120B      9.583162  
     123A      9.583489   124A      9.587088   121B      9.802435  
     122B      9.803548   125A      9.805678   126A      9.914239  
     127A      9.914946   128A     10.159893   123B     10.163345  
     124B     10.166731   129A     10.401299   130A     10.523035  
     125B     10.528005   126B     10.530758   127B     11.089277  
     131A     11.089923   128B     11.092634   129B     12.639977  
     130B     12.640546   132A     12.641005   133A     13.205908  
     134A     29.010324  

    Final Occupation by Irrep:
              A     B 
    DOCC [     3,    2 ]

  @DF-RKS Final Energy:   -40.49508857862635

   => Energetics <=

    Nuclear Repulsion Energy =             13.5636847327040879
    One-Electron Energy =                 -80.0551595191615490
    Two-Electron Energy =                  30.5756460328862190
    DFT Exchange-Correlation Energy =      -4.6206164405612498
    Empirical Dispersion Energy =           0.0000000000000000
    VV10 Nonlocal Energy =                  0.0413566155061404
    Total Energy =                        -40.4950885786263513

Computation Completed


Properties will be evaluated at   0.000000,   0.000000,   0.000000 [a0]

Properties computed using the SCF density matrix

  Nuclear Dipole Moment: [e a0]
     X:     0.0000      Y:     0.0000      Z:     0.0030

  Electronic Dipole Moment: [e a0]
     X:     0.0000      Y:     0.0000      Z:    -0.0025

  Dipole Moment: [e a0]
     X:     0.0000      Y:     0.0000      Z:     0.0005     Total:     0.0005

  Dipole Moment: [D]
     X:     0.0000      Y:     0.0000      Z:     0.0013     Total:     0.0013


*** tstop() called on bp1-compute00116.data.bp.acrc.priv at Wed Apr 28 13:33:11 2021
Module time:
	user time   =     135.97 seconds =       2.27 minutes
	system time =       2.28 seconds =       0.04 minutes
	total time  =          6 seconds =       0.10 minutes
Total time:
	user time   =   18719.73 seconds =     312.00 minutes
	system time =     359.84 seconds =       6.00 minutes
	total time  =        831 seconds =      13.85 minutes

  //>>>>>>>>>>>>>>>>>>>>>>>>>>>>>>>>>>>//
  //   Loading displacement 32 of 47   //
  //<<<<<<<<<<<<<<<<<<<<<<<<<<<<<<<<<<<//

*** tstart() called on bp1-compute00116.data.bp.acrc.priv
*** at Wed Apr 28 13:33:11 2021

   => Loading Basis Set <=

    Name: AUG-CC-PV(Q+D)Z
    Role: ORBITAL
    Keyword: BASIS
    atoms 1, 3-5 entry H          line    56 file /work/zw18965/.conda/envs/p4env/share/psi4/basis/aug-cc-pv_qpd_z.gbs 
    atoms 2      entry C          line   319 file /work/zw18965/.conda/envs/p4env/share/psi4/basis/aug-cc-pv_qpd_z.gbs 


         ---------------------------------------------------------
                                   SCF
               by Justin Turney, Rob Parrish, Andy Simmonett
                          and Daniel G. A. Smith
                              RKS Reference
                       24 Threads, 137329 MiB Core
         ---------------------------------------------------------

  ==> Geometry <==

    Molecular point group: c1
    Full point group: C1

    Geometry (in Angstrom), charge = 0, multiplicity = 1:

       Center              X                  Y                   Z               Mass       
    ------------   -----------------  -----------------  -----------------  -----------------
         H           -0.001919292555     0.883557424855    -0.620736334240     1.007825032230
         C            0.000296144392    -0.000000000008     0.000016857602    12.000000000000
         H            0.883698464520    -0.000445082639     0.621468813202     1.007825032230
         H           -0.884275591824     0.000444489930     0.619803140399     1.007825032230
         H           -0.001029720681    -0.883556832051    -0.620736339940     1.007825032230

  Running in c1 symmetry.

  Rotational constants: A =      5.39382  B =      5.38747  C =      5.35322 [cm^-1]
  Rotational constants: A = 161702.78818  B = 161512.27819  C = 160485.63248 [MHz]
  Nuclear repulsion =   13.560342436127330

  Charge       = 0
  Multiplicity = 1
  Electrons    = 10
  Nalpha       = 5
  Nbeta        = 5

  ==> Algorithm <==

  SCF Algorithm Type is DF.
  DIIS enabled.
  MOM disabled.
  Fractional occupation disabled.
  Guess Type is READ.
  Energy threshold   = 1.00e-10
  Density threshold  = 1.00e-10
  Integral threshold = 0.00e+00

  ==> Primary Basis <==

  Basis Set: AUG-CC-PV(Q+D)Z
    Blend: AUG-CC-PV(Q+D)Z
    Number of shells: 76
    Number of basis function: 264
    Number of Cartesian functions: 325
    Spherical Harmonics?: true
    Max angular momentum: 4

  ==> DFT Potential <==

   => Composite Functional: WB97M-V <= 

    wB97M-V Hyb-GGA Exchange-Correlation Functional

    N. Mardirossian and M. Head-Gordon, J. Chem. Phys. 144, 214110 (2016)

    Deriv               =              1
    GGA                 =           TRUE
    Meta                =           TRUE

    Exchange Hybrid     =           TRUE
    MP2 Hybrid          =          FALSE

   => Exchange-Correlation Functionals <=

    1.0000   wB97M-V exchange-correlation functional

   => Exact (HF) Exchange <=

    0.8500            HF,LR [omega = 0.3000]
    0.1500               HF 

   => VV10 Non-Local Parameters <=

    VV10 B              =     6.0000E+00
    VV10 C              =     1.0000E-02

   => Molecular Quadrature <=

    Radial Scheme          =       TREUTLER
    Pruning Scheme         =           FLAT
    Nuclear Scheme         =       TREUTLER

    BS radius alpha        =              1
    Pruning alpha          =              1
    Radial Points          =             75
    Spherical Points       =            302
    Total Points           =         113250
    Total Blocks           =            930
    Max Points             =            256
    Max Functions          =            264

   => Loading Basis Set <=

    Name: (AUG-CC-PV(Q+D)Z AUX)
    Role: JKFIT
    Keyword: DF_BASIS_SCF
    atoms 1, 3-5 entry H          line    70 file /work/zw18965/.conda/envs/p4env/share/psi4/basis/aug-cc-pvqz-jkfit.gbs 
    atoms 2      entry C          line   178 file /work/zw18965/.conda/envs/p4env/share/psi4/basis/aug-cc-pvqz-jkfit.gbs 

   => Loading Basis Set <=

    Name: AUG-CC-PV(Q+D)Z
    Role: ORBITAL
    Keyword: BASIS
    atoms 1, 3-5 entry H          line    56 file /work/zw18965/.conda/envs/p4env/share/psi4/basis/aug-cc-pv_qpd_z.gbs 
    atoms 2      entry C          line   319 file /work/zw18965/.conda/envs/p4env/share/psi4/basis/aug-cc-pv_qpd_z.gbs 


Traceback (most recent call last):
  File "/work/zw18965/.conda/envs/p4env/bin/psi4", line 287, in <module>
    exec(content)
  File "<string>", line 33, in <module>
  File "/work/zw18965/.conda/envs/p4env/lib//python3.7/site-packages/psi4/driver/driver.py", line 1079, in optimize
    frequencies(hessian_with_method, molecule=moleculeclone, **kwargs)
  File "/work/zw18965/.conda/envs/p4env/lib//python3.7/site-packages/psi4/driver/driver.py", line 1464, in frequency
    H, wfn = hessian(name, return_wfn=True, molecule=molecule, **kwargs)
  File "/work/zw18965/.conda/envs/p4env/lib//python3.7/site-packages/psi4/driver/driver.py", line 1344, in hessian
    energy, lowername, molecule, displacement, n, ndisp, write_orbitals=False, **kwargs)
  File "/work/zw18965/.conda/envs/p4env/lib//python3.7/site-packages/psi4/driver/driver.py", line 183, in _process_displacement
    derivative, wfn = derivfunc(method, return_wfn=True, molecule=clone, **kwargs)
  File "/work/zw18965/.conda/envs/p4env/lib//python3.7/site-packages/psi4/driver/driver.py", line 556, in energy
    wfn = procedures['energy'][lowername](lowername, molecule=molecule, **kwargs)
  File "/work/zw18965/.conda/envs/p4env/lib//python3.7/site-packages/psi4/driver/procrouting/proc.py", line 2002, in run_scf
    scf_wfn = scf_helper(name, post_scf=False, **kwargs)
  File "/work/zw18965/.conda/envs/p4env/lib//python3.7/site-packages/psi4/driver/procrouting/proc.py", line 1294, in scf_helper
    raise ValidationError("Cannot compute projection of different symmetries.")

psi4.driver.p4util.exceptions.ValidationError: Cannot compute projection of different symmetries.


Printing out the relevant lines from the Psithon --> Python processed input file:
    """)
    core.IO.set_default_namespace("")
    core.set_global_option("DYNAMIC_LEVEL", 1)
    core.set_global_option("BASIS", "aug-cc-pV(Q+d)Z")
    core.set_global_option("FULL_HESS_EVERY", 1)
--> optimize("wB97M-V")
    frequencies("wB97M-V")

    Psi4 stopped on: Wednesday, 28 April 2021 01:33PM
    Psi4 wall time for execution: 0:13:52.49

*** Psi4 encountered an error. Buy a developer more coffee!
*** Resources and help at github.com/psi4/psi4.
