
    -----------------------------------------------------------------------
          Psi4: An Open-Source Ab Initio Electronic Structure Package
                               Psi4 1.3.2 release

                         Git: Rev {HEAD} ecbda83 


    R. M. Parrish, L. A. Burns, D. G. A. Smith, A. C. Simmonett,
    A. E. DePrince III, E. G. Hohenstein, U. Bozkaya, A. Yu. Sokolov,
    R. Di Remigio, R. M. Richard, J. F. Gonthier, A. M. James,
    H. R. McAlexander, A. Kumar, M. Saitow, X. Wang, B. P. Pritchard,
    P. Verma, H. F. Schaefer III, K. Patkowski, R. A. King, E. F. Valeev,
    F. A. Evangelista, J. M. Turney, T. D. Crawford, and C. D. Sherrill,
    J. Chem. Theory Comput. 13(7) pp 3185--3197 (2017).
    (doi: 10.1021/acs.jctc.7b00174)


                         Additional Contributions by
    P. Kraus, H. Kruse, M. H. Lechner, M. C. Schieber, R. A. Shaw,
    A. Alenaizan, R. Galvelis, Z. L. Glick, S. Lehtola, and J. P. Misiewicz

    -----------------------------------------------------------------------


    Psi4 started on: Monday, 19 April 2021 03:53PM

    Process ID: 203190
    Host:       bp1-compute00148.data.bp.acrc.priv
    PSIDATADIR: /work/zw18965/.conda/envs/p4env/share/psi4
    Memory:     500.0 MiB
    Threads:    24
    
  ==> Input File <==

--------------------------------------------------------------------------
memory 144 GB

molecule {
0 1
Cl    1.404266965154  -0.804667131488   0.000000000000
C    -0.153202586463  -0.329182484114   0.000000000000
N    -1.251064373399   0.005912380558   0.000000000000}

set basis aug-cc-pV(Q+d)Z
 
optimize("WB97M-V")
frequencies("WB97M-V")--------------------------------------------------------------------------

  Memory set to 134.110 GiB by Python driver.
gradient() will perform gradient computation by finite difference of analytic energies.

         ----------------------------------------------------------
                                   FINDIF
                     R. A. King and Jonathon Misiewicz
         ---------------------------------------------------------

  Using finite-differences of energies to determine gradients.
    Generating geometries for use with 3-point formula.
    Displacement size will be 5.00e-03.
    Number of atoms is 3.
    Number of symmetric SALCs is 3.
    Translations projected? 1. Rotations projected? 1.
    Number of geometries (including reference) is 7.

  //>>>>>>>>>>>>>>>>>>>>>>>>>>>>>>>>>>>//
  //    Loading displacement 1 of 7    //
  //<<<<<<<<<<<<<<<<<<<<<<<<<<<<<<<<<<<//

*** tstart() called on bp1-compute00148.data.bp.acrc.priv
*** at Mon Apr 19 15:53:41 2021

   => Loading Basis Set <=

    Name: AUG-CC-PV(Q+D)Z
    Role: ORBITAL
    Keyword: BASIS
    atoms 1 entry CL         line  1246 file /work/zw18965/.conda/envs/p4env/share/psi4/basis/aug-cc-pv_qpd_z.gbs 
    atoms 2 entry C          line   319 file /work/zw18965/.conda/envs/p4env/share/psi4/basis/aug-cc-pv_qpd_z.gbs 
    atoms 3 entry N          line   379 file /work/zw18965/.conda/envs/p4env/share/psi4/basis/aug-cc-pv_qpd_z.gbs 


         ---------------------------------------------------------
                                   SCF
               by Justin Turney, Rob Parrish, Andy Simmonett
                          and Daniel G. A. Smith
                              RKS Reference
                       24 Threads, 137329 MiB Core
         ---------------------------------------------------------

  ==> Geometry <==

    Molecular point group: cs
    Full point group: C1

    Geometry (in Angstrom), charge = 0, multiplicity = 1:

       Center              X                  Y                   Z               Mass       
    ------------   -----------------  -----------------  -----------------  -----------------
         CL           0.000016412953     0.000000000000     0.958111366656    34.968852682000
         C            0.000016412953     0.000000000000    -0.670322560190    12.000000000000
         N           -0.000055052026     0.000000000000    -1.818185385809    14.003074004430

  Running in cs symmetry.

  Rotational constants: A = 1082117327.73792  B =      0.20120  C =      0.20120 [cm^-1]
  Rotational constants: A = 32441061352694.14453  B =   6031.93179  C =   6031.93179 [MHz]
  Nuclear repulsion =   75.190503290710168

  Charge       = 0
  Multiplicity = 1
  Electrons    = 30
  Nalpha       = 15
  Nbeta        = 15

  ==> Algorithm <==

  SCF Algorithm Type is DF.
  DIIS enabled.
  MOM disabled.
  Fractional occupation disabled.
  Guess Type is SAD.
  Energy threshold   = 1.00e-08
  Density threshold  = 1.00e-08
  Integral threshold = 0.00e+00

  ==> Primary Basis <==

  Basis Set: AUG-CC-PV(Q+D)Z
    Blend: AUG-CC-PV(Q+D)Z
    Number of shells: 63
    Number of basis function: 249
    Number of Cartesian functions: 325
    Spherical Harmonics?: true
    Max angular momentum: 4

  ==> DFT Potential <==

   => Composite Functional: WB97M-V <= 

    wB97M-V Hyb-GGA Exchange-Correlation Functional

    N. Mardirossian and M. Head-Gordon, J. Chem. Phys. 144, 214110 (2016)

    Deriv               =              1
    GGA                 =           TRUE
    Meta                =           TRUE

    Exchange Hybrid     =           TRUE
    MP2 Hybrid          =          FALSE

   => Exchange-Correlation Functionals <=

    1.0000   wB97M-V exchange-correlation functional

   => Exact (HF) Exchange <=

    0.8500            HF,LR [omega = 0.3000]
    0.1500               HF 

   => VV10 Non-Local Parameters <=

    VV10 B              =     6.0000E+00
    VV10 C              =     1.0000E-02

   => Molecular Quadrature <=

    Radial Scheme          =       TREUTLER
    Pruning Scheme         =           FLAT
    Nuclear Scheme         =       TREUTLER

    BS radius alpha        =              1
    Pruning alpha          =              1
    Radial Points          =             75
    Spherical Points       =            302
    Total Points           =          67950
    Total Blocks           =            597
    Max Points             =            256
    Max Functions          =            249

   => Loading Basis Set <=

    Name: (AUG-CC-PV(Q+D)Z AUX)
    Role: JKFIT
    Keyword: DF_BASIS_SCF
    atoms 1 entry CL         line   904 file /work/zw18965/.conda/envs/p4env/share/psi4/basis/aug-cc-pvqz-jkfit.gbs 
    atoms 2 entry C          line   178 file /work/zw18965/.conda/envs/p4env/share/psi4/basis/aug-cc-pvqz-jkfit.gbs 
    atoms 3 entry N          line   248 file /work/zw18965/.conda/envs/p4env/share/psi4/basis/aug-cc-pvqz-jkfit.gbs 

  ==> Pre-Iterations <==

   -------------------------------------------------------
    Irrep   Nso     Nmo     Nalpha   Nbeta   Ndocc  Nsocc
   -------------------------------------------------------
     A'       156     156       0       0       0       0
     A"        93      93       0       0       0       0
   -------------------------------------------------------
    Total     249     249      15      15      15       0
   -------------------------------------------------------

  ==> Integral Setup <==

  ==> DiskDFJK: Density-Fitted J/K Matrices <==

    J tasked:                  Yes
    K tasked:                  Yes
    wK tasked:                 Yes
    Omega:               3.000E-01
    OpenMP threads:             24
    Integrals threads:          24
    Memory [MiB]:           101920
    Algorithm:                Core
    Integral Cache:           NONE
    Schwarz Cutoff:          1E-12
    Fitting Condition:       1E-10

   => Auxiliary Basis Set <=

  Basis Set: (AUG-CC-PV(Q+D)Z AUX)
    Blend: AUG-CC-PVQZ-JKFIT
    Number of shells: 114
    Number of basis function: 468
    Number of Cartesian functions: 643
    Spherical Harmonics?: true
    Max angular momentum: 5

  Cached 100.0% of DFT collocation blocks in 1.051 [GiB].

  Minimum eigenvalue in the overlap matrix is 3.0805868417E-05.
  Using Symmetric Orthogonalization.

  SCF Guess: Superposition of Atomic Densities via on-the-fly atomic UHF.

  ==> Iterations <==

                           Total Energy        Delta E     RMS |[F,P]|

   @DF-RKS iter SAD:  -552.51749070001108   -5.52517e+02   0.00000e+00 
   @DF-RKS iter   1:  -552.83457684359837   -3.17086e-01   3.73778e-03 DIIS
   @DF-RKS iter   2:  -552.63661154757744    1.97965e-01   5.16516e-03 DIIS
   @DF-RKS iter   3:  -553.03179397197823   -3.95182e-01   5.02082e-04 DIIS
   @DF-RKS iter   4:  -553.03534366606380   -3.54969e-03   2.09459e-04 DIIS
   @DF-RKS iter   5:  -553.03603591915612   -6.92253e-04   4.98728e-05 DIIS
   @DF-RKS iter   6:  -553.03609133497366   -5.54158e-05   1.24279e-05 DIIS
   @DF-RKS iter   7:  -553.03609761642906   -6.28146e-06   2.07983e-06 DIIS
   @DF-RKS iter   8:  -553.03609775822838   -1.41799e-07   6.03675e-07 DIIS
   @DF-RKS iter   9:  -553.03609776804171   -9.81333e-09   1.08576e-07 DIIS
   @DF-RKS iter  10:  -553.03609776847202   -4.30305e-10   2.38629e-08 DIIS
   @DF-RKS iter  11:  -553.03609776849135   -1.93268e-11   3.01485e-09 DIIS
  Energy and wave function converged.


  ==> Post-Iterations <==

    Orbital Energies [Eh]
    ---------------------

    Doubly Occupied:                                                      

       1Ap  -101.979979     2Ap   -14.531275     3Ap   -10.444857  
       4Ap    -9.736907     5Ap    -7.442963     1App   -7.433421  
       6Ap    -7.433421     7Ap    -1.094112     8Ap    -1.033615  
       9Ap    -0.687220    10Ap    -0.553566     2App   -0.553566  
      11Ap    -0.502740     3App   -0.436815    12Ap    -0.436815  

    Virtual:                                                              

      13Ap     0.010405    14Ap     0.044448    15Ap     0.053488  
       4App    0.053488    16Ap     0.067787    17Ap     0.082233  
       5App    0.082233    18Ap     0.090414     6App    0.090414  
      19Ap     0.093057    20Ap     0.136299    21Ap     0.155279  
       7App    0.155279    22Ap     0.167304     8App    0.167308  
      23Ap     0.168407    24Ap     0.188874    25Ap     0.261144  
       9App    0.261144    26Ap     0.270518    10App    0.281274  
      27Ap     0.281274    28Ap     0.336851    11App    0.340604  
      29Ap     0.340604    30Ap     0.347793    12App    0.347793  
      31Ap     0.396784    32Ap     0.401630    13App    0.401639  
      33Ap     0.437361    14App    0.437361    34Ap     0.447416  
      35Ap     0.470105    36Ap     0.499770    15App    0.499770  
      37Ap     0.517921    16App    0.517921    38Ap     0.556395  
      39Ap     0.598034    17App    0.598034    18App    0.644738  
      40Ap     0.644738    41Ap     0.657175    19App    0.657177  
      42Ap     0.661079    43Ap     0.719626    44Ap     0.751731  
      20App    0.751731    21App    0.810722    45Ap     0.810722  
      46Ap     0.852318    22App    0.852326    47Ap     0.854496  
      48Ap     0.925523    23App    0.951645    49Ap     0.951645  
      50Ap     0.968608    24App    0.975554    51Ap     0.975554  
      25App    0.979403    52Ap     0.979415    26App    1.101826  
      53Ap     1.101826    54Ap     1.119508    27App    1.130542  
      55Ap     1.130542    28App    1.201809    56Ap     1.201821  
      57Ap     1.208266    58Ap     1.235333    29App    1.256845  
      59Ap     1.256845    60Ap     1.327398    61Ap     1.382818  
      30App    1.382831    62Ap     1.501600    31App    1.501600  
      63Ap     1.554973    64Ap     1.555424    32App    1.555424  
      65Ap     1.571037    33App    1.571053    66Ap     1.606597  
      34App    1.630636    67Ap     1.630636    68Ap     1.665149  
      35App    1.665160    36App    1.732315    69Ap     1.732315  
      37App    1.758564    70Ap     1.758566    71Ap     1.822408  
      38App    1.822408    72Ap     1.875332    73Ap     1.887661  
      39App    1.887661    74Ap     2.024540    40App    2.024550  
      41App    2.049340    75Ap     2.049362    42App    2.055674  
      76Ap     2.055674    77Ap     2.068909    43App    2.109277  
      78Ap     2.109290    44App    2.125596    79Ap     2.125596  
      80Ap     2.164786    45App    2.164786    81Ap     2.289122  
      82Ap     2.414710    46App    2.452573    83Ap     2.452573  
      84Ap     2.536201    47App    2.536202    85Ap     2.557111  
      48App    2.621389    86Ap     2.621427    87Ap     2.710799  
      88Ap     2.837677    49App    2.837679    89Ap     2.905518  
      50App    2.905518    51App    2.914712    90Ap     2.914717  
      91Ap     2.932215    52App    2.964960    92Ap     2.964960  
      93Ap     3.053048    53App    3.053048    94Ap     3.060319  
      54App    3.060319    95Ap     3.079339    96Ap     3.166330  
      55App    3.166344    97Ap     3.257260    98Ap     3.357243  
      56App    3.401880    99Ap     3.401880    57App    3.570013  
     100Ap     3.570028    58App    3.604017   101Ap     3.604017  
     102Ap     3.761516    59App    3.761516    60App    3.787409  
     103Ap     3.787420   104Ap     3.793946   105Ap     4.083909  
      61App    4.083909    62App    4.235483   106Ap     4.235492  
     107Ap     4.272213    63App    4.325856   108Ap     4.325856  
     109Ap     4.336170    64App    4.356895   110Ap     4.356971  
      65App    4.423394   111Ap     4.423394    66App    4.440395  
     112Ap     4.440411   113Ap     4.442228    67App    4.544709  
     114Ap     4.544709   115Ap     4.689045    68App    4.689051  
     116Ap     4.805618    69App    4.805618   117Ap     4.996643  
     118Ap     5.068684    70App    5.142780   119Ap     5.142780  
     120Ap     5.544270   121Ap     5.655060    71App    5.655145  
      72App    5.801769   122Ap     5.801769    73App    5.914161  
     123Ap     5.914161    74App    6.143446   124Ap     6.143474  
     125Ap     6.160341    75App    6.160341   126Ap     6.200208  
      76App    6.200208    77App    6.302742   127Ap     6.302808  
     128Ap     6.403218    78App    6.627894   129Ap     6.627894  
     130Ap     6.637482   131Ap     6.854074    79App    6.854115  
     132Ap     6.941281    80App    6.941281   133Ap     7.249356  
      81App    7.962736   134Ap     7.962762   135Ap     8.045088  
      82App    8.045088   136Ap     8.268304   137Ap     8.314333  
      83App    8.314333    84App    8.483260   138Ap     8.483260  
     139Ap     8.702583    85App    8.702613   140Ap     8.820356  
      86App    8.937226   141Ap     8.937226   142Ap     9.026381  
      87App    9.026381   143Ap     9.265469    88App    9.551734  
     144Ap     9.551742   145Ap     9.707609    89App    9.813574  
     146Ap     9.813602    90App   10.342012   147Ap    10.342012  
      91App   10.872636   148Ap    10.872706   149Ap    11.208800  
      92App   11.208800   150Ap    11.364592    93App   11.667000  
     151Ap    11.667000   152Ap    11.796087   153Ap    12.158438  
     154Ap    24.831827   155Ap    26.837051   156Ap    32.607357  

    Final Occupation by Irrep:
             Ap   App 
    DOCC [    12,    3 ]

  @DF-RKS Final Energy:  -553.03609776849135

   => Energetics <=

    Nuclear Repulsion Energy =             75.1905032907101685
    One-Electron Energy =                -908.6737096064263142
    Two-Electron Energy =                 310.9613519623944740
    DFT Exchange-Correlation Energy =     -30.6386260105530042
    Empirical Dispersion Energy =           0.0000000000000000
    VV10 Nonlocal Energy =                  0.1243825953834300
    Total Energy =                       -553.0360977684913451

Computation Completed


Properties will be evaluated at   0.000000,   0.000000,   0.000000 [a0]

Properties computed using the SCF density matrix

  Nuclear Dipole Moment: [e a0]
     X:    -0.0000      Y:     0.0000      Z:    -0.8718

  Electronic Dipole Moment: [e a0]
     X:     0.0001      Y:     0.0000      Z:     2.0413

  Dipole Moment: [e a0]
     X:     0.0000      Y:     0.0000      Z:     1.1695     Total:     1.1695

  Dipole Moment: [D]
     X:     0.0001      Y:     0.0000      Z:     2.9725     Total:     2.9725


*** tstop() called on bp1-compute00148.data.bp.acrc.priv at Mon Apr 19 15:53:48 2021
Module time:
	user time   =     151.69 seconds =       2.53 minutes
	system time =       7.95 seconds =       0.13 minutes
	total time  =          7 seconds =       0.12 minutes
Total time:
	user time   =     151.69 seconds =       2.53 minutes
	system time =       7.95 seconds =       0.13 minutes
	total time  =          7 seconds =       0.12 minutes

  //>>>>>>>>>>>>>>>>>>>>>>>>>>>>>>>>>>>//
  //    Loading displacement 2 of 7    //
  //<<<<<<<<<<<<<<<<<<<<<<<<<<<<<<<<<<<//

*** tstart() called on bp1-compute00148.data.bp.acrc.priv
*** at Mon Apr 19 15:53:48 2021

   => Loading Basis Set <=

    Name: AUG-CC-PV(Q+D)Z
    Role: ORBITAL
    Keyword: BASIS
    atoms 1 entry CL         line  1246 file /work/zw18965/.conda/envs/p4env/share/psi4/basis/aug-cc-pv_qpd_z.gbs 
    atoms 2 entry C          line   319 file /work/zw18965/.conda/envs/p4env/share/psi4/basis/aug-cc-pv_qpd_z.gbs 
    atoms 3 entry N          line   379 file /work/zw18965/.conda/envs/p4env/share/psi4/basis/aug-cc-pv_qpd_z.gbs 


         ---------------------------------------------------------
                                   SCF
               by Justin Turney, Rob Parrish, Andy Simmonett
                          and Daniel G. A. Smith
                              RKS Reference
                       24 Threads, 137329 MiB Core
         ---------------------------------------------------------

  ==> Geometry <==

    Molecular point group: cs
    Full point group: Cs

    Geometry (in Angstrom), charge = 0, multiplicity = 1:

       Center              X                  Y                   Z               Mass       
    ------------   -----------------  -----------------  -----------------  -----------------
         CL          -0.000076735877     0.000000000000     0.958111352550    34.968852682000
         C            0.000672941227     0.000000000000    -0.670322574296    12.000000000000
         N           -0.000385053250     0.000000000000    -1.818185338494    14.003074004430

  Running in cs symmetry.

  Rotational constants: A = 2195925.85909  B =      0.20120  C =      0.20120 [cm^-1]
  Rotational constants: A = 65832201088.29550  B =   6031.93202  C =   6031.93146 [MHz]
  Nuclear repulsion =   75.190492996654072

  Charge       = 0
  Multiplicity = 1
  Electrons    = 30
  Nalpha       = 15
  Nbeta        = 15

  ==> Algorithm <==

  SCF Algorithm Type is DF.
  DIIS enabled.
  MOM disabled.
  Fractional occupation disabled.
  Guess Type is SAD.
  Energy threshold   = 1.00e-08
  Density threshold  = 1.00e-08
  Integral threshold = 0.00e+00

  ==> Primary Basis <==

  Basis Set: AUG-CC-PV(Q+D)Z
    Blend: AUG-CC-PV(Q+D)Z
    Number of shells: 63
    Number of basis function: 249
    Number of Cartesian functions: 325
    Spherical Harmonics?: true
    Max angular momentum: 4

  ==> DFT Potential <==

   => Composite Functional: WB97M-V <= 

    wB97M-V Hyb-GGA Exchange-Correlation Functional

    N. Mardirossian and M. Head-Gordon, J. Chem. Phys. 144, 214110 (2016)

    Deriv               =              1
    GGA                 =           TRUE
    Meta                =           TRUE

    Exchange Hybrid     =           TRUE
    MP2 Hybrid          =          FALSE

   => Exchange-Correlation Functionals <=

    1.0000   wB97M-V exchange-correlation functional

   => Exact (HF) Exchange <=

    0.8500            HF,LR [omega = 0.3000]
    0.1500               HF 

   => VV10 Non-Local Parameters <=

    VV10 B              =     6.0000E+00
    VV10 C              =     1.0000E-02

   => Molecular Quadrature <=

    Radial Scheme          =       TREUTLER
    Pruning Scheme         =           FLAT
    Nuclear Scheme         =       TREUTLER

    BS radius alpha        =              1
    Pruning alpha          =              1
    Radial Points          =             75
    Spherical Points       =            302
    Total Points           =          67950
    Total Blocks           =            586
    Max Points             =            256
    Max Functions          =            249

   => Loading Basis Set <=

    Name: (AUG-CC-PV(Q+D)Z AUX)
    Role: JKFIT
    Keyword: DF_BASIS_SCF
    atoms 1 entry CL         line   904 file /work/zw18965/.conda/envs/p4env/share/psi4/basis/aug-cc-pvqz-jkfit.gbs 
    atoms 2 entry C          line   178 file /work/zw18965/.conda/envs/p4env/share/psi4/basis/aug-cc-pvqz-jkfit.gbs 
    atoms 3 entry N          line   248 file /work/zw18965/.conda/envs/p4env/share/psi4/basis/aug-cc-pvqz-jkfit.gbs 

  ==> Pre-Iterations <==

   -------------------------------------------------------
    Irrep   Nso     Nmo     Nalpha   Nbeta   Ndocc  Nsocc
   -------------------------------------------------------
     A'       156     156       0       0       0       0
     A"        93      93       0       0       0       0
   -------------------------------------------------------
    Total     249     249      15      15      15       0
   -------------------------------------------------------

  ==> Integral Setup <==

  ==> DiskDFJK: Density-Fitted J/K Matrices <==

    J tasked:                  Yes
    K tasked:                  Yes
    wK tasked:                 Yes
    Omega:               3.000E-01
    OpenMP threads:             24
    Integrals threads:          24
    Memory [MiB]:           101921
    Algorithm:                Core
    Integral Cache:           NONE
    Schwarz Cutoff:          1E-12
    Fitting Condition:       1E-10

   => Auxiliary Basis Set <=

  Basis Set: (AUG-CC-PV(Q+D)Z AUX)
    Blend: AUG-CC-PVQZ-JKFIT
    Number of shells: 114
    Number of basis function: 468
    Number of Cartesian functions: 643
    Spherical Harmonics?: true
    Max angular momentum: 5

  Cached 100.0% of DFT collocation blocks in 1.050 [GiB].

  Minimum eigenvalue in the overlap matrix is 3.0805976267E-05.
  Using Symmetric Orthogonalization.

  SCF Guess: Superposition of Atomic Densities via on-the-fly atomic UHF.

  ==> Iterations <==

                           Total Energy        Delta E     RMS |[F,P]|

   @DF-RKS iter SAD:  -552.51748570095504   -5.52517e+02   0.00000e+00 
   @DF-RKS iter   1:  -552.83457607716048   -3.17090e-01   3.73779e-03 DIIS
   @DF-RKS iter   2:  -552.63660900413061    1.97967e-01   5.16518e-03 DIIS
   @DF-RKS iter   3:  -553.03179386450847   -3.95185e-01   5.02082e-04 DIIS
   @DF-RKS iter   4:  -553.03534356653324   -3.54970e-03   2.09461e-04 DIIS
   @DF-RKS iter   5:  -553.03603582871870   -6.92262e-04   4.98731e-05 DIIS
   @DF-RKS iter   6:  -553.03609124546097   -5.54167e-05   1.24280e-05 DIIS
   @DF-RKS iter   7:  -553.03609752707075   -6.28161e-06   2.07984e-06 DIIS
   @DF-RKS iter   8:  -553.03609766887212   -1.41801e-07   6.03680e-07 DIIS
   @DF-RKS iter   9:  -553.03609767868670   -9.81458e-09   1.08579e-07 DIIS
   @DF-RKS iter  10:  -553.03609767911701   -4.30305e-10   2.38645e-08 DIIS
   @DF-RKS iter  11:  -553.03609767913565   -1.86446e-11   3.01612e-09 DIIS
  Energy and wave function converged.


  ==> Post-Iterations <==

    Orbital Energies [Eh]
    ---------------------

    Doubly Occupied:                                                      

       1Ap  -101.979979     2Ap   -14.531275     3Ap   -10.444857  
       4Ap    -9.736907     5Ap    -7.442963     1App   -7.433421  
       6Ap    -7.433421     7Ap    -1.094112     8Ap    -1.033615  
       9Ap    -0.687220     2App   -0.553566    10Ap    -0.553566  
      11Ap    -0.502740     3App   -0.436814    12Ap    -0.436814  

    Virtual:                                                              

      13Ap     0.010405    14Ap     0.044448    15Ap     0.053488  
       4App    0.053488    16Ap     0.067787    17Ap     0.082233  
       5App    0.082233    18Ap     0.090409     6App    0.090414  
      19Ap     0.093062    20Ap     0.136299    21Ap     0.155279  
       7App    0.155279    22Ap     0.167305     8App    0.167309  
      23Ap     0.168407    24Ap     0.188874    25Ap     0.261144  
       9App    0.261144    26Ap     0.270518    10App    0.281274  
      27Ap     0.281274    28Ap     0.336851    11App    0.340604  
      29Ap     0.340604    12App    0.347793    30Ap     0.347793  
      31Ap     0.396784    32Ap     0.401630    13App    0.401639  
      33Ap     0.437360    14App    0.437361    34Ap     0.447416  
      35Ap     0.470105    36Ap     0.499770    15App    0.499770  
      16App    0.517922    37Ap     0.517922    38Ap     0.556395  
      39Ap     0.598033    17App    0.598033    18App    0.644738  
      40Ap     0.644738    41Ap     0.657176    19App    0.657178  
      42Ap     0.661079    43Ap     0.719626    44Ap     0.751731  
      20App    0.751731    21App    0.810722    45Ap     0.810722  
      46Ap     0.852318    22App    0.852326    47Ap     0.854496  
      48Ap     0.925522    23App    0.951645    49Ap     0.951646  
      50Ap     0.968597    24App    0.975555    51Ap     0.975565  
      25App    0.979403    52Ap     0.979415    53Ap     1.101826  
      26App    1.101826    54Ap     1.119508    27App    1.130542  
      55Ap     1.130543    28App    1.201809    56Ap     1.201821  
      57Ap     1.208266    58Ap     1.235333    29App    1.256845  
      59Ap     1.256845    60Ap     1.327398    61Ap     1.382819  
      30App    1.382831    62Ap     1.501599    31App    1.501600  
      63Ap     1.554972    64Ap     1.555419    32App    1.555421  
      65Ap     1.571039    33App    1.571055    66Ap     1.606598  
      34App    1.630636    67Ap     1.630638    68Ap     1.665149  
      35App    1.665160    36App    1.732315    69Ap     1.732315  
      37App    1.758564    70Ap     1.758566    71Ap     1.822408  
      38App    1.822408    72Ap     1.875333    73Ap     1.887661  
      39App    1.887661    74Ap     2.024540    40App    2.024550  
      41App    2.049337    75Ap     2.049358    42App    2.055676  
      76Ap     2.055676    77Ap     2.068909    43App    2.109274  
      78Ap     2.109287    44App    2.125599    79Ap     2.125599  
      80Ap     2.164788    45App    2.164788    81Ap     2.289122  
      82Ap     2.414710    46App    2.452571    83Ap     2.452571  
      84Ap     2.536174    47App    2.536201    85Ap     2.557139  
      48App    2.621389    86Ap     2.621427    87Ap     2.710801  
      88Ap     2.837677    49App    2.837679    89Ap     2.905515  
      50App    2.905515    51App    2.914713    90Ap     2.914718  
      91Ap     2.932212    52App    2.964960    92Ap     2.964962  
      93Ap     3.053044    53App    3.053048    94Ap     3.060320  
      54App    3.060320    95Ap     3.079344    96Ap     3.166330  
      55App    3.166344    97Ap     3.257259    98Ap     3.357240  
      56App    3.401880    99Ap     3.401882    57App    3.570009  
     100Ap     3.570025   101Ap     3.604017    58App    3.604017  
     102Ap     3.761509    59App    3.761514    60App    3.787411  
     103Ap     3.787422   104Ap     3.793948   105Ap     4.083906  
      61App    4.083909    62App    4.235484   106Ap     4.235493  
     107Ap     4.272213    63App    4.325856   108Ap     4.325856  
     109Ap     4.336171    64App    4.356895   110Ap     4.356971  
      65App    4.423390   111Ap     4.423390    66App    4.440397  
     112Ap     4.440414   113Ap     4.442228    67App    4.544709  
     114Ap     4.544712   115Ap     4.689045    68App    4.689052  
     116Ap     4.805613    69App    4.805617   117Ap     4.996643  
     118Ap     5.068682    70App    5.142779   119Ap     5.142784  
     120Ap     5.544269   121Ap     5.655060    71App    5.655146  
      72App    5.801770   122Ap     5.801770    73App    5.914161  
     123Ap     5.914163    74App    6.143442   124Ap     6.143470  
     125Ap     6.160343    75App    6.160343   126Ap     6.200208  
      76App    6.200208    77App    6.302743   127Ap     6.302808  
     128Ap     6.403218    78App    6.627894   129Ap     6.627895  
     130Ap     6.637483   131Ap     6.854072    79App    6.854113  
     132Ap     6.941282    80App    6.941283   133Ap     7.249359  
      81App    7.962736   134Ap     7.962762   135Ap     8.045086  
      82App    8.045086   136Ap     8.268300   137Ap     8.314332  
      83App    8.314332    84App    8.483260   138Ap     8.483260  
     139Ap     8.702582    85App    8.702612   140Ap     8.820357  
     141Ap     8.937227    86App    8.937227   142Ap     9.026377  
      87App    9.026380   143Ap     9.265458    88App    9.551734  
     144Ap     9.551742   145Ap     9.707608    89App    9.813572  
     146Ap     9.813601    90App   10.342009   147Ap    10.342020  
      91App   10.872636   148Ap    10.872706   149Ap    11.208799  
      92App   11.208799   150Ap    11.364591    93App   11.666996  
     151Ap    11.666998   152Ap    11.796084   153Ap    12.158437  
     154Ap    24.831821   155Ap    26.837045   156Ap    32.607353  

    Final Occupation by Irrep:
             Ap   App 
    DOCC [    12,    3 ]

  @DF-RKS Final Energy:  -553.03609767913565

   => Energetics <=

    Nuclear Repulsion Energy =             75.1904929966540720
    One-Electron Energy =                -908.6736896021701568
    Two-Electron Energy =                 310.9613419119077662
    DFT Exchange-Correlation Energy =     -30.6386255802855665
    Empirical Dispersion Energy =           0.0000000000000000
    VV10 Nonlocal Energy =                  0.1243825947583293
    Total Energy =                       -553.0360976791355370

Computation Completed


Properties will be evaluated at   0.000000,   0.000000,   0.000000 [a0]

Properties computed using the SCF density matrix

  Nuclear Dipole Moment: [e a0]
     X:     0.0001      Y:     0.0000      Z:    -0.8718

  Electronic Dipole Moment: [e a0]
     X:     0.0002      Y:     0.0000      Z:     2.0413

  Dipole Moment: [e a0]
     X:     0.0003      Y:     0.0000      Z:     1.1695     Total:     1.1695

  Dipole Moment: [D]
     X:     0.0008      Y:     0.0000      Z:     2.9725     Total:     2.9725


*** tstop() called on bp1-compute00148.data.bp.acrc.priv at Mon Apr 19 15:53:55 2021
Module time:
	user time   =     158.32 seconds =       2.64 minutes
	system time =       5.83 seconds =       0.10 minutes
	total time  =          7 seconds =       0.12 minutes
Total time:
	user time   =     310.16 seconds =       5.17 minutes
	system time =      13.78 seconds =       0.23 minutes
	total time  =         14 seconds =       0.23 minutes

  //>>>>>>>>>>>>>>>>>>>>>>>>>>>>>>>>>>>//
  //    Loading displacement 3 of 7    //
  //<<<<<<<<<<<<<<<<<<<<<<<<<<<<<<<<<<<//

*** tstart() called on bp1-compute00148.data.bp.acrc.priv
*** at Mon Apr 19 15:53:55 2021

   => Loading Basis Set <=

    Name: AUG-CC-PV(Q+D)Z
    Role: ORBITAL
    Keyword: BASIS
    atoms 1 entry CL         line  1246 file /work/zw18965/.conda/envs/p4env/share/psi4/basis/aug-cc-pv_qpd_z.gbs 
    atoms 2 entry C          line   319 file /work/zw18965/.conda/envs/p4env/share/psi4/basis/aug-cc-pv_qpd_z.gbs 
    atoms 3 entry N          line   379 file /work/zw18965/.conda/envs/p4env/share/psi4/basis/aug-cc-pv_qpd_z.gbs 


         ---------------------------------------------------------
                                   SCF
               by Justin Turney, Rob Parrish, Andy Simmonett
                          and Daniel G. A. Smith
                              RKS Reference
                       24 Threads, 137329 MiB Core
         ---------------------------------------------------------

  ==> Geometry <==

    Molecular point group: cs
    Full point group: Cs

    Geometry (in Angstrom), charge = 0, multiplicity = 1:

       Center              X                  Y                   Z               Mass       
    ------------   -----------------  -----------------  -----------------  -----------------
         CL           0.000109561784     0.000000000000     0.958111380762    34.968852682000
         C           -0.000640115320     0.000000000000    -0.670322546084    12.000000000000
         N            0.000274949199     0.000000000000    -1.818185433123    14.003074004430

  Running in cs symmetry.

  Rotational constants: A = 2652319.03059  B =      0.20120  C =      0.20120 [cm^-1]
  Rotational constants: A = 79514524157.95233  B =   6031.93157  C =   6031.93111 [MHz]
  Nuclear repulsion =   75.190492092677474

  Charge       = 0
  Multiplicity = 1
  Electrons    = 30
  Nalpha       = 15
  Nbeta        = 15

  ==> Algorithm <==

  SCF Algorithm Type is DF.
  DIIS enabled.
  MOM disabled.
  Fractional occupation disabled.
  Guess Type is SAD.
  Energy threshold   = 1.00e-08
  Density threshold  = 1.00e-08
  Integral threshold = 0.00e+00

  ==> Primary Basis <==

  Basis Set: AUG-CC-PV(Q+D)Z
    Blend: AUG-CC-PV(Q+D)Z
    Number of shells: 63
    Number of basis function: 249
    Number of Cartesian functions: 325
    Spherical Harmonics?: true
    Max angular momentum: 4

  ==> DFT Potential <==

   => Composite Functional: WB97M-V <= 

    wB97M-V Hyb-GGA Exchange-Correlation Functional

    N. Mardirossian and M. Head-Gordon, J. Chem. Phys. 144, 214110 (2016)

    Deriv               =              1
    GGA                 =           TRUE
    Meta                =           TRUE

    Exchange Hybrid     =           TRUE
    MP2 Hybrid          =          FALSE

   => Exchange-Correlation Functionals <=

    1.0000   wB97M-V exchange-correlation functional

   => Exact (HF) Exchange <=

    0.8500            HF,LR [omega = 0.3000]
    0.1500               HF 

   => VV10 Non-Local Parameters <=

    VV10 B              =     6.0000E+00
    VV10 C              =     1.0000E-02

   => Molecular Quadrature <=

    Radial Scheme          =       TREUTLER
    Pruning Scheme         =           FLAT
    Nuclear Scheme         =       TREUTLER

    BS radius alpha        =              1
    Pruning alpha          =              1
    Radial Points          =             75
    Spherical Points       =            302
    Total Points           =          67950
    Total Blocks           =            593
    Max Points             =            255
    Max Functions          =            249

   => Loading Basis Set <=

    Name: (AUG-CC-PV(Q+D)Z AUX)
    Role: JKFIT
    Keyword: DF_BASIS_SCF
    atoms 1 entry CL         line   904 file /work/zw18965/.conda/envs/p4env/share/psi4/basis/aug-cc-pvqz-jkfit.gbs 
    atoms 2 entry C          line   178 file /work/zw18965/.conda/envs/p4env/share/psi4/basis/aug-cc-pvqz-jkfit.gbs 
    atoms 3 entry N          line   248 file /work/zw18965/.conda/envs/p4env/share/psi4/basis/aug-cc-pvqz-jkfit.gbs 

  ==> Pre-Iterations <==

   -------------------------------------------------------
    Irrep   Nso     Nmo     Nalpha   Nbeta   Ndocc  Nsocc
   -------------------------------------------------------
     A'       156     156       0       0       0       0
     A"        93      93       0       0       0       0
   -------------------------------------------------------
    Total     249     249      15      15      15       0
   -------------------------------------------------------

  ==> Integral Setup <==

  ==> DiskDFJK: Density-Fitted J/K Matrices <==

    J tasked:                  Yes
    K tasked:                  Yes
    wK tasked:                 Yes
    Omega:               3.000E-01
    OpenMP threads:             24
    Integrals threads:          24
    Memory [MiB]:           101921
    Algorithm:                Core
    Integral Cache:           NONE
    Schwarz Cutoff:          1E-12
    Fitting Condition:       1E-10

   => Auxiliary Basis Set <=

  Basis Set: (AUG-CC-PV(Q+D)Z AUX)
    Blend: AUG-CC-PVQZ-JKFIT
    Number of shells: 114
    Number of basis function: 468
    Number of Cartesian functions: 643
    Spherical Harmonics?: true
    Max angular momentum: 5

  Cached 100.0% of DFT collocation blocks in 1.050 [GiB].

  Minimum eigenvalue in the overlap matrix is 3.0805961394E-05.
  Using Symmetric Orthogonalization.

  SCF Guess: Superposition of Atomic Densities via on-the-fly atomic UHF.

  ==> Iterations <==

                           Total Energy        Delta E     RMS |[F,P]|

   @DF-RKS iter SAD:  -552.51748760228679   -5.52517e+02   0.00000e+00 
   @DF-RKS iter   1:  -552.83457641380551   -3.17089e-01   3.73779e-03 DIIS
   @DF-RKS iter   2:  -552.63660987260153    1.97967e-01   5.16517e-03 DIIS
   @DF-RKS iter   3:  -553.03179388406932   -3.95184e-01   5.02082e-04 DIIS
   @DF-RKS iter   4:  -553.03534358288505   -3.54970e-03   2.09460e-04 DIIS
   @DF-RKS iter   5:  -553.03603584117059   -6.92258e-04   4.98730e-05 DIIS
   @DF-RKS iter   6:  -553.03609125755952   -5.54164e-05   1.24280e-05 DIIS
   @DF-RKS iter   7:  -553.03609753911417   -6.28155e-06   2.07984e-06 DIIS
   @DF-RKS iter   8:  -553.03609768091530   -1.41801e-07   6.03679e-07 DIIS
   @DF-RKS iter   9:  -553.03609769072932   -9.81402e-09   1.08578e-07 DIIS
   @DF-RKS iter  10:  -553.03609769116076   -4.31442e-10   2.38643e-08 DIIS
   @DF-RKS iter  11:  -553.03609769117884   -1.80762e-11   3.01588e-09 DIIS
  Energy and wave function converged.


  ==> Post-Iterations <==

    Orbital Energies [Eh]
    ---------------------

    Doubly Occupied:                                                      

       1Ap  -101.979979     2Ap   -14.531275     3Ap   -10.444857  
       4Ap    -9.736907     5Ap    -7.442963     1App   -7.433421  
       6Ap    -7.433421     7Ap    -1.094112     8Ap    -1.033615  
       9Ap    -0.687220     2App   -0.553566    10Ap    -0.553566  
      11Ap    -0.502740     3App   -0.436814    12Ap    -0.436814  

    Virtual:                                                              

      13Ap     0.010405    14Ap     0.044448    15Ap     0.053488  
       4App    0.053488    16Ap     0.067787    17Ap     0.082233  
       5App    0.082233    18Ap     0.090410     6App    0.090414  
      19Ap     0.093061    20Ap     0.136299    21Ap     0.155279  
       7App    0.155279    22Ap     0.167305     8App    0.167309  
      23Ap     0.168407    24Ap     0.188874    25Ap     0.261144  
       9App    0.261144    26Ap     0.270518    10App    0.281274  
      27Ap     0.281274    28Ap     0.336851    11App    0.340604  
      29Ap     0.340604    12App    0.347793    30Ap     0.347793  
      31Ap     0.396784    32Ap     0.401630    13App    0.401639  
      33Ap     0.437360    14App    0.437361    34Ap     0.447416  
      35Ap     0.470105    36Ap     0.499770    15App    0.499770  
      16App    0.517922    37Ap     0.517922    38Ap     0.556395  
      39Ap     0.598033    17App    0.598033    18App    0.644738  
      40Ap     0.644738    41Ap     0.657176    19App    0.657178  
      42Ap     0.661079    43Ap     0.719626    44Ap     0.751731  
      20App    0.751731    21App    0.810722    45Ap     0.810722  
      46Ap     0.852318    22App    0.852326    47Ap     0.854496  
      48Ap     0.925522    23App    0.951645    49Ap     0.951646  
      50Ap     0.968599    24App    0.975555    51Ap     0.975563  
      25App    0.979403    52Ap     0.979415    53Ap     1.101826  
      26App    1.101826    54Ap     1.119508    27App    1.130542  
      55Ap     1.130543    28App    1.201809    56Ap     1.201821  
      57Ap     1.208266    58Ap     1.235333    29App    1.256845  
      59Ap     1.256845    60Ap     1.327398    61Ap     1.382819  
      30App    1.382831    62Ap     1.501599    31App    1.501600  
      63Ap     1.554972    64Ap     1.555420    32App    1.555421  
      65Ap     1.571038    33App    1.571055    66Ap     1.606598  
      34App    1.630636    67Ap     1.630638    68Ap     1.665149  
      35App    1.665160    36App    1.732315    69Ap     1.732315  
      37App    1.758564    70Ap     1.758566    71Ap     1.822408  
      38App    1.822408    72Ap     1.875333    73Ap     1.887661  
      39App    1.887661    74Ap     2.024540    40App    2.024550  
      41App    2.049337    75Ap     2.049359    42App    2.055675  
      76Ap     2.055676    77Ap     2.068909    43App    2.109275  
      78Ap     2.109287    44App    2.125598    79Ap     2.125598  
      80Ap     2.164787    45App    2.164787    81Ap     2.289122  
      82Ap     2.414710    46App    2.452571    83Ap     2.452571  
      84Ap     2.536179    47App    2.536201    85Ap     2.557134  
      48App    2.621389    86Ap     2.621427    87Ap     2.710800  
      88Ap     2.837677    49App    2.837679    89Ap     2.905515  
      50App    2.905516    51App    2.914713    90Ap     2.914718  
      91Ap     2.932212    52App    2.964960    92Ap     2.964962  
      93Ap     3.053044    53App    3.053048    94Ap     3.060320  
      54App    3.060320    95Ap     3.079343    96Ap     3.166330  
      55App    3.166344    97Ap     3.257259    98Ap     3.357240  
      56App    3.401880    99Ap     3.401881    57App    3.570010  
     100Ap     3.570026   101Ap     3.604017    58App    3.604017  
     102Ap     3.761511    59App    3.761514    60App    3.787411  
     103Ap     3.787422   104Ap     3.793948   105Ap     4.083906  
      61App    4.083909    62App    4.235483   106Ap     4.235493  
     107Ap     4.272213    63App    4.325856   108Ap     4.325856  
     109Ap     4.336171    64App    4.356895   110Ap     4.356971  
      65App    4.423390   111Ap     4.423390    66App    4.440397  
     112Ap     4.440414   113Ap     4.442228    67App    4.544709  
     114Ap     4.544712   115Ap     4.689045    68App    4.689052  
     116Ap     4.805613    69App    4.805617   117Ap     4.996643  
     118Ap     5.068682    70App    5.142779   119Ap     5.142783  
     120Ap     5.544269   121Ap     5.655060    71App    5.655146  
      72App    5.801769   122Ap     5.801769    73App    5.914161  
     123Ap     5.914162    74App    6.143443   124Ap     6.143471  
     125Ap     6.160342    75App    6.160342   126Ap     6.200208  
      76App    6.200208    77App    6.302743   127Ap     6.302808  
     128Ap     6.403218    78App    6.627894   129Ap     6.627895  
     130Ap     6.637483   131Ap     6.854072    79App    6.854113  
     132Ap     6.941282    80App    6.941282   133Ap     7.249358  
      81App    7.962736   134Ap     7.962762   135Ap     8.045087  
      82App    8.045087   136Ap     8.268301   137Ap     8.314332  
      83App    8.314332    84App    8.483260   138Ap     8.483260  
     139Ap     8.702582    85App    8.702612   140Ap     8.820356  
     141Ap     8.937227    86App    8.937227   142Ap     9.026377  
      87App    9.026380   143Ap     9.265460    88App    9.551734  
     144Ap     9.551742   145Ap     9.707608    89App    9.813572  
     146Ap     9.813601    90App   10.342009   147Ap    10.342019  
      91App   10.872636   148Ap    10.872706   149Ap    11.208799  
      92App   11.208799   150Ap    11.364591    93App   11.666996  
     151Ap    11.666998   152Ap    11.796084   153Ap    12.158437  
     154Ap    24.831821   155Ap    26.837046   156Ap    32.607353  

    Final Occupation by Irrep:
             Ap   App 
    DOCC [    12,    3 ]

  @DF-RKS Final Energy:  -553.03609769117884

   => Energetics <=

    Nuclear Repulsion Energy =             75.1904920926774736
    One-Electron Energy =                -908.6736877294970327
    Two-Electron Energy =                 310.9613409277332607
    DFT Exchange-Correlation Energy =     -30.6386255769595373
    Empirical Dispersion Energy =           0.0000000000000000
    VV10 Nonlocal Energy =                  0.1243825948669375
    Total Energy =                       -553.0360976911788384

Computation Completed


Properties will be evaluated at   0.000000,   0.000000,   0.000000 [a0]

Properties computed using the SCF density matrix

  Nuclear Dipole Moment: [e a0]
     X:    -0.0001      Y:     0.0000      Z:    -0.8718

  Electronic Dipole Moment: [e a0]
     X:    -0.0001      Y:     0.0000      Z:     2.0413

  Dipole Moment: [e a0]
     X:    -0.0002      Y:     0.0000      Z:     1.1695     Total:     1.1695

  Dipole Moment: [D]
     X:    -0.0006      Y:     0.0000      Z:     2.9725     Total:     2.9725


*** tstop() called on bp1-compute00148.data.bp.acrc.priv at Mon Apr 19 15:54:02 2021
Module time:
	user time   =     151.86 seconds =       2.53 minutes
	system time =       4.65 seconds =       0.08 minutes
	total time  =          7 seconds =       0.12 minutes
Total time:
	user time   =     462.23 seconds =       7.70 minutes
	system time =      18.44 seconds =       0.31 minutes
	total time  =         21 seconds =       0.35 minutes

  //>>>>>>>>>>>>>>>>>>>>>>>>>>>>>>>>>>>//
  //    Loading displacement 4 of 7    //
  //<<<<<<<<<<<<<<<<<<<<<<<<<<<<<<<<<<<//

*** tstart() called on bp1-compute00148.data.bp.acrc.priv
*** at Mon Apr 19 15:54:02 2021

   => Loading Basis Set <=

    Name: AUG-CC-PV(Q+D)Z
    Role: ORBITAL
    Keyword: BASIS
    atoms 1 entry CL         line  1246 file /work/zw18965/.conda/envs/p4env/share/psi4/basis/aug-cc-pv_qpd_z.gbs 
    atoms 2 entry C          line   319 file /work/zw18965/.conda/envs/p4env/share/psi4/basis/aug-cc-pv_qpd_z.gbs 
    atoms 3 entry N          line   379 file /work/zw18965/.conda/envs/p4env/share/psi4/basis/aug-cc-pv_qpd_z.gbs 


         ---------------------------------------------------------
                                   SCF
               by Justin Turney, Rob Parrish, Andy Simmonett
                          and Daniel G. A. Smith
                              RKS Reference
                       24 Threads, 137329 MiB Core
         ---------------------------------------------------------

  ==> Geometry <==

    Molecular point group: cs
    Full point group: C1

    Geometry (in Angstrom), charge = 0, multiplicity = 1:

       Center              X                  Y                   Z               Mass       
    ------------   -----------------  -----------------  -----------------  -----------------
         CL           0.000016412953     0.000000000000     0.957819168257    34.968852682000
         C            0.000016384405     0.000000000000    -0.669929612695    12.000000000000
         N           -0.000055027561     0.000000000000    -1.817792438317    14.003074004430

  Running in cs symmetry.

  Rotational constants: A = 1084654272.81945  B =      0.20131  C =      0.20131 [cm^-1]
  Rotational constants: A = 32517117052874.55469  B =   6035.23836  C =   6035.23836 [MHz]
  Nuclear repulsion =   75.210053931294098

  Charge       = 0
  Multiplicity = 1
  Electrons    = 30
  Nalpha       = 15
  Nbeta        = 15

  ==> Algorithm <==

  SCF Algorithm Type is DF.
  DIIS enabled.
  MOM disabled.
  Fractional occupation disabled.
  Guess Type is SAD.
  Energy threshold   = 1.00e-08
  Density threshold  = 1.00e-08
  Integral threshold = 0.00e+00

  ==> Primary Basis <==

  Basis Set: AUG-CC-PV(Q+D)Z
    Blend: AUG-CC-PV(Q+D)Z
    Number of shells: 63
    Number of basis function: 249
    Number of Cartesian functions: 325
    Spherical Harmonics?: true
    Max angular momentum: 4

  ==> DFT Potential <==

   => Composite Functional: WB97M-V <= 

    wB97M-V Hyb-GGA Exchange-Correlation Functional

    N. Mardirossian and M. Head-Gordon, J. Chem. Phys. 144, 214110 (2016)

    Deriv               =              1
    GGA                 =           TRUE
    Meta                =           TRUE

    Exchange Hybrid     =           TRUE
    MP2 Hybrid          =          FALSE

   => Exchange-Correlation Functionals <=

    1.0000   wB97M-V exchange-correlation functional

   => Exact (HF) Exchange <=

    0.8500            HF,LR [omega = 0.3000]
    0.1500               HF 

   => VV10 Non-Local Parameters <=

    VV10 B              =     6.0000E+00
    VV10 C              =     1.0000E-02

   => Molecular Quadrature <=

    Radial Scheme          =       TREUTLER
    Pruning Scheme         =           FLAT
    Nuclear Scheme         =       TREUTLER

    BS radius alpha        =              1
    Pruning alpha          =              1
    Radial Points          =             75
    Spherical Points       =            302
    Total Points           =          67950
    Total Blocks           =            597
    Max Points             =            256
    Max Functions          =            249

   => Loading Basis Set <=

    Name: (AUG-CC-PV(Q+D)Z AUX)
    Role: JKFIT
    Keyword: DF_BASIS_SCF
    atoms 1 entry CL         line   904 file /work/zw18965/.conda/envs/p4env/share/psi4/basis/aug-cc-pvqz-jkfit.gbs 
    atoms 2 entry C          line   178 file /work/zw18965/.conda/envs/p4env/share/psi4/basis/aug-cc-pvqz-jkfit.gbs 
    atoms 3 entry N          line   248 file /work/zw18965/.conda/envs/p4env/share/psi4/basis/aug-cc-pvqz-jkfit.gbs 

  ==> Pre-Iterations <==

   -------------------------------------------------------
    Irrep   Nso     Nmo     Nalpha   Nbeta   Ndocc  Nsocc
   -------------------------------------------------------
     A'       156     156       0       0       0       0
     A"        93      93       0       0       0       0
   -------------------------------------------------------
    Total     249     249      15      15      15       0
   -------------------------------------------------------

  ==> Integral Setup <==

  ==> DiskDFJK: Density-Fitted J/K Matrices <==

    J tasked:                  Yes
    K tasked:                  Yes
    wK tasked:                 Yes
    Omega:               3.000E-01
    OpenMP threads:             24
    Integrals threads:          24
    Memory [MiB]:           101920
    Algorithm:                Core
    Integral Cache:           NONE
    Schwarz Cutoff:          1E-12
    Fitting Condition:       1E-10

   => Auxiliary Basis Set <=

  Basis Set: (AUG-CC-PV(Q+D)Z AUX)
    Blend: AUG-CC-PVQZ-JKFIT
    Number of shells: 114
    Number of basis function: 468
    Number of Cartesian functions: 643
    Spherical Harmonics?: true
    Max angular momentum: 5

  Cached 100.0% of DFT collocation blocks in 1.051 [GiB].

  Minimum eigenvalue in the overlap matrix is 3.0748721328E-05.
  Using Symmetric Orthogonalization.

  SCF Guess: Superposition of Atomic Densities via on-the-fly atomic UHF.

  ==> Iterations <==

                           Total Energy        Delta E     RMS |[F,P]|

   @DF-RKS iter SAD:  -552.51850397664987   -5.52519e+02   0.00000e+00 
   @DF-RKS iter   1:  -552.83443167008318   -3.15928e-01   3.73876e-03 DIIS
   @DF-RKS iter   2:  -552.63639679204346    1.98035e-01   5.16615e-03 DIIS
   @DF-RKS iter   3:  -553.03178779862083   -3.95391e-01   5.02269e-04 DIIS
   @DF-RKS iter   4:  -553.03533889870334   -3.55110e-03   2.09622e-04 DIIS
   @DF-RKS iter   5:  -553.03603192982882   -6.93031e-04   4.98724e-05 DIIS
   @DF-RKS iter   6:  -553.03608730953079   -5.53797e-05   1.24245e-05 DIIS
   @DF-RKS iter   7:  -553.03609358084361   -6.27131e-06   2.08020e-06 DIIS
   @DF-RKS iter   8:  -553.03609372250060   -1.41657e-07   6.03095e-07 DIIS
   @DF-RKS iter   9:  -553.03609373229062   -9.79003e-09   1.08469e-07 DIIS
   @DF-RKS iter  10:  -553.03609373272036   -4.29736e-10   2.38371e-08 DIIS
   @DF-RKS iter  11:  -553.03609373273878   -1.84173e-11   3.01259e-09 DIIS
  Energy and wave function converged.


  ==> Post-Iterations <==

    Orbital Energies [Eh]
    ---------------------

    Doubly Occupied:                                                      

       1Ap  -101.979964     2Ap   -14.531220     3Ap   -10.444792  
       4Ap    -9.736911     5Ap    -7.442962     1App   -7.433426  
       6Ap    -7.433426     7Ap    -1.094230     8Ap    -1.033644  
       9Ap    -0.687306    10Ap    -0.553665     2App   -0.553665  
      11Ap    -0.502706    12Ap    -0.436752     3App   -0.436752  

    Virtual:                                                              

      13Ap     0.010431    14Ap     0.044448    15Ap     0.053477  
       4App    0.053477    16Ap     0.067875    17Ap     0.082232  
       5App    0.082232    18Ap     0.090431     6App    0.090431  
      19Ap     0.093192    20Ap     0.136317    21Ap     0.155298  
       7App    0.155298    22Ap     0.167294     8App    0.167298  
      23Ap     0.168410    24Ap     0.188862    25Ap     0.261149  
       9App    0.261150    26Ap     0.270542    10App    0.281272  
      27Ap     0.281272    28Ap     0.336907    11App    0.340564  
      29Ap     0.340564    12App    0.347823    30Ap     0.347823  
      31Ap     0.396811    32Ap     0.401634    13App    0.401643  
      33Ap     0.437376    14App    0.437376    34Ap     0.447351  
      35Ap     0.470081    36Ap     0.499745    15App    0.499745  
      16App    0.517989    37Ap     0.517989    38Ap     0.556435  
      17App    0.598110    39Ap     0.598110    40Ap     0.644729  
      18App    0.644729    41Ap     0.657170    19App    0.657173  
      42Ap     0.661184    43Ap     0.719664    20App    0.751729  
      44Ap     0.751729    21App    0.810762    45Ap     0.810762  
      46Ap     0.852398    22App    0.852406    47Ap     0.854595  
      48Ap     0.925654    23App    0.951681    49Ap     0.951681  
      50Ap     0.968587    24App    0.975638    51Ap     0.975639  
      25App    0.979483    52Ap     0.979494    53Ap     1.101878  
      26App    1.101878    54Ap     1.119668    27App    1.130494  
      55Ap     1.130494    28App    1.201840    56Ap     1.201851  
      57Ap     1.208325    58Ap     1.235388    29App    1.256893  
      59Ap     1.256893    60Ap     1.327459    61Ap     1.382829  
      30App    1.382841    62Ap     1.501701    31App    1.501701  
      63Ap     1.555008    64Ap     1.555471    32App    1.555471  
      65Ap     1.571007    33App    1.571024    66Ap     1.606742  
      34App    1.630625    67Ap     1.630625    68Ap     1.665099  
      35App    1.665110    36App    1.732335    69Ap     1.732335  
      37App    1.758528    70Ap     1.758531    71Ap     1.822567  
      38App    1.822567    72Ap     1.875438    73Ap     1.887728  
      39App    1.887728    74Ap     2.024623    40App    2.024634  
      41App    2.049373    75Ap     2.049394    42App    2.055887  
      76Ap     2.055887    77Ap     2.069009    43App    2.109570  
      78Ap     2.109582    44App    2.125660    79Ap     2.125660  
      80Ap     2.164866    45App    2.164866    81Ap     2.289180  
      82Ap     2.414309    83Ap     2.452853    46App    2.452853  
      84Ap     2.536507    47App    2.536507    85Ap     2.557562  
      48App    2.621574    86Ap     2.621612    87Ap     2.711206  
      88Ap     2.837721    49App    2.837723    89Ap     2.905653  
      50App    2.905653    51App    2.915002    90Ap     2.915007  
      91Ap     2.932513    52App    2.965050    92Ap     2.965050  
      93Ap     3.053285    53App    3.053285    94Ap     3.060398  
      54App    3.060398    95Ap     3.079298    96Ap     3.166462  
      55App    3.166476    97Ap     3.257788    98Ap     3.357730  
      56App    3.402355    99Ap     3.402355    57App    3.570213  
     100Ap     3.570229   101Ap     3.604246    58App    3.604246  
     102Ap     3.761218    59App    3.761218    60App    3.787546  
     103Ap     3.787557   104Ap     3.794971   105Ap     4.084295  
      61App    4.084295    62App    4.235343   106Ap     4.235352  
     107Ap     4.272404    63App    4.325794   108Ap     4.325794  
     109Ap     4.335864    64App    4.356864   110Ap     4.356939  
      65App    4.423455   111Ap     4.423455    66App    4.440399  
     112Ap     4.440416   113Ap     4.442497    67App    4.544734  
     114Ap     4.544734   115Ap     4.689349    68App    4.689356  
     116Ap     4.806291    69App    4.806291   117Ap     4.996956  
     118Ap     5.069347    70App    5.143475   119Ap     5.143475  
     120Ap     5.543404   121Ap     5.655083    71App    5.655168  
      72App    5.801910   122Ap     5.801910    73App    5.914609  
     123Ap     5.914609    74App    6.143588   124Ap     6.143616  
     125Ap     6.160383    75App    6.160383   126Ap     6.200475  
      76App    6.200475    77App    6.303489   127Ap     6.303554  
     128Ap     6.403998    78App    6.628383   129Ap     6.628383  
     130Ap     6.637833   131Ap     6.854571    79App    6.854612  
     132Ap     6.942204    80App    6.942204   133Ap     7.250682  
      81App    7.962778   134Ap     7.962805    82App    8.045844  
     135Ap     8.045844   136Ap     8.270155   137Ap     8.314402  
      83App    8.314402    84App    8.483390   138Ap     8.483390  
     139Ap     8.702799    85App    8.702829   140Ap     8.820409  
     141Ap     8.937366    86App    8.937366   142Ap     9.026815  
      87App    9.026815   143Ap     9.266704    88App    9.551775  
     144Ap     9.551783   145Ap     9.707908    89App    9.813756  
     146Ap     9.813784    90App   10.342711   147Ap    10.342711  
      91App   10.872817   148Ap    10.872887   149Ap    11.208979  
      92App   11.208979   150Ap    11.363534    93App   11.667941  
     151Ap    11.667941   152Ap    11.797186   153Ap    12.159591  
     154Ap    24.832459   155Ap    26.839286   156Ap    32.608556  

    Final Occupation by Irrep:
             Ap   App 
    DOCC [    12,    3 ]

  @DF-RKS Final Energy:  -553.03609373273878

   => Energetics <=

    Nuclear Repulsion Energy =             75.2100539312940981
    One-Electron Energy =                -908.7123366368227835
    Two-Electron Energy =                 310.9807066216784506
    DFT Exchange-Correlation Energy =     -30.6388993042783397
    Empirical Dispersion Energy =           0.0000000000000000
    VV10 Nonlocal Energy =                  0.1243816553897705
    Total Energy =                       -553.0360937327387774

Computation Completed


Properties will be evaluated at   0.000000,   0.000000,   0.000000 [a0]

Properties computed using the SCF density matrix

  Nuclear Dipole Moment: [e a0]
     X:    -0.0000      Y:     0.0000      Z:    -0.8715

  Electronic Dipole Moment: [e a0]
     X:     0.0001      Y:     0.0000      Z:     2.0415

  Dipole Moment: [e a0]
     X:     0.0000      Y:     0.0000      Z:     1.1700     Total:     1.1700

  Dipole Moment: [D]
     X:     0.0001      Y:     0.0000      Z:     2.9738     Total:     2.9738


*** tstop() called on bp1-compute00148.data.bp.acrc.priv at Mon Apr 19 15:54:08 2021
Module time:
	user time   =     151.01 seconds =       2.52 minutes
	system time =       3.98 seconds =       0.07 minutes
	total time  =          6 seconds =       0.10 minutes
Total time:
	user time   =     613.39 seconds =      10.22 minutes
	system time =      22.43 seconds =       0.37 minutes
	total time  =         27 seconds =       0.45 minutes

  //>>>>>>>>>>>>>>>>>>>>>>>>>>>>>>>>>>>//
  //    Loading displacement 5 of 7    //
  //<<<<<<<<<<<<<<<<<<<<<<<<<<<<<<<<<<<//

*** tstart() called on bp1-compute00148.data.bp.acrc.priv
*** at Mon Apr 19 15:54:08 2021

   => Loading Basis Set <=

    Name: AUG-CC-PV(Q+D)Z
    Role: ORBITAL
    Keyword: BASIS
    atoms 1 entry CL         line  1246 file /work/zw18965/.conda/envs/p4env/share/psi4/basis/aug-cc-pv_qpd_z.gbs 
    atoms 2 entry C          line   319 file /work/zw18965/.conda/envs/p4env/share/psi4/basis/aug-cc-pv_qpd_z.gbs 
    atoms 3 entry N          line   379 file /work/zw18965/.conda/envs/p4env/share/psi4/basis/aug-cc-pv_qpd_z.gbs 


         ---------------------------------------------------------
                                   SCF
               by Justin Turney, Rob Parrish, Andy Simmonett
                          and Daniel G. A. Smith
                              RKS Reference
                       24 Threads, 137329 MiB Core
         ---------------------------------------------------------

  ==> Geometry <==

    Molecular point group: cs
    Full point group: C1v

    Geometry (in Angstrom), charge = 0, multiplicity = 1:

       Center              X                  Y                   Z               Mass       
    ------------   -----------------  -----------------  -----------------  -----------------
         CL           0.000016412953     0.000000000000     0.958403565054    34.968852682000
         C            0.000016441502     0.000000000000    -0.670715507685    12.000000000000
         N           -0.000055076490     0.000000000000    -1.818578333301    14.003074004430

  Running in cs symmetry.

  Rotational constants: A = 1079589327.85457  B =      0.20109  C =      0.20109 [cm^-1]
  Rotational constants: A = 32365273822809.02344  B =   6028.62783  C =   6028.62783 [MHz]
  Nuclear repulsion =   75.170967148015365

  Charge       = 0
  Multiplicity = 1
  Electrons    = 30
  Nalpha       = 15
  Nbeta        = 15

  ==> Algorithm <==

  SCF Algorithm Type is DF.
  DIIS enabled.
  MOM disabled.
  Fractional occupation disabled.
  Guess Type is SAD.
  Energy threshold   = 1.00e-08
  Density threshold  = 1.00e-08
  Integral threshold = 0.00e+00

  ==> Primary Basis <==

  Basis Set: AUG-CC-PV(Q+D)Z
    Blend: AUG-CC-PV(Q+D)Z
    Number of shells: 63
    Number of basis function: 249
    Number of Cartesian functions: 325
    Spherical Harmonics?: true
    Max angular momentum: 4

  ==> DFT Potential <==

   => Composite Functional: WB97M-V <= 

    wB97M-V Hyb-GGA Exchange-Correlation Functional

    N. Mardirossian and M. Head-Gordon, J. Chem. Phys. 144, 214110 (2016)

    Deriv               =              1
    GGA                 =           TRUE
    Meta                =           TRUE

    Exchange Hybrid     =           TRUE
    MP2 Hybrid          =          FALSE

   => Exchange-Correlation Functionals <=

    1.0000   wB97M-V exchange-correlation functional

   => Exact (HF) Exchange <=

    0.8500            HF,LR [omega = 0.3000]
    0.1500               HF 

   => VV10 Non-Local Parameters <=

    VV10 B              =     6.0000E+00
    VV10 C              =     1.0000E-02

   => Molecular Quadrature <=

    Radial Scheme          =       TREUTLER
    Pruning Scheme         =           FLAT
    Nuclear Scheme         =       TREUTLER

    BS radius alpha        =              1
    Pruning alpha          =              1
    Radial Points          =             75
    Spherical Points       =            302
    Total Points           =          67950
    Total Blocks           =            597
    Max Points             =            256
    Max Functions          =            249

   => Loading Basis Set <=

    Name: (AUG-CC-PV(Q+D)Z AUX)
    Role: JKFIT
    Keyword: DF_BASIS_SCF
    atoms 1 entry CL         line   904 file /work/zw18965/.conda/envs/p4env/share/psi4/basis/aug-cc-pvqz-jkfit.gbs 
    atoms 2 entry C          line   178 file /work/zw18965/.conda/envs/p4env/share/psi4/basis/aug-cc-pvqz-jkfit.gbs 
    atoms 3 entry N          line   248 file /work/zw18965/.conda/envs/p4env/share/psi4/basis/aug-cc-pvqz-jkfit.gbs 

  ==> Pre-Iterations <==

   -------------------------------------------------------
    Irrep   Nso     Nmo     Nalpha   Nbeta   Ndocc  Nsocc
   -------------------------------------------------------
     A'       156     156       0       0       0       0
     A"        93      93       0       0       0       0
   -------------------------------------------------------
    Total     249     249      15      15      15       0
   -------------------------------------------------------

  ==> Integral Setup <==

  ==> DiskDFJK: Density-Fitted J/K Matrices <==

    J tasked:                  Yes
    K tasked:                  Yes
    wK tasked:                 Yes
    Omega:               3.000E-01
    OpenMP threads:             24
    Integrals threads:          24
    Memory [MiB]:           101920
    Algorithm:                Core
    Integral Cache:           NONE
    Schwarz Cutoff:          1E-12
    Fitting Condition:       1E-10

   => Auxiliary Basis Set <=

  Basis Set: (AUG-CC-PV(Q+D)Z AUX)
    Blend: AUG-CC-PVQZ-JKFIT
    Number of shells: 114
    Number of basis function: 468
    Number of Cartesian functions: 643
    Spherical Harmonics?: true
    Max angular momentum: 5

  Cached 100.0% of DFT collocation blocks in 1.051 [GiB].

  Minimum eigenvalue in the overlap matrix is 3.0863133434E-05.
  Using Symmetric Orthogonalization.

  SCF Guess: Superposition of Atomic Densities via on-the-fly atomic UHF.

  ==> Iterations <==

                           Total Energy        Delta E     RMS |[F,P]|

   @DF-RKS iter SAD:  -552.51646673737912   -5.52516e+02   0.00000e+00 
   @DF-RKS iter   1:  -552.83471919893964   -3.18252e-01   3.73682e-03 DIIS
   @DF-RKS iter   2:  -552.63681987668576    1.97899e-01   5.16421e-03 DIIS
   @DF-RKS iter   3:  -553.03179946927889   -3.94980e-01   5.01896e-04 DIIS
   @DF-RKS iter   4:  -553.03534778325650   -3.54831e-03   2.09300e-04 DIIS
   @DF-RKS iter   5:  -553.03603928442101   -6.91501e-04   4.98739e-05 DIIS
   @DF-RKS iter   6:  -553.03609473848383   -5.54541e-05   1.24316e-05 DIIS
   @DF-RKS iter   7:  -553.03610103040978   -6.29193e-06   2.07948e-06 DIIS
   @DF-RKS iter   8:  -553.03610117235178   -1.41942e-07   6.04257e-07 DIIS
   @DF-RKS iter   9:  -553.03610118218864   -9.83687e-09   1.08683e-07 DIIS
   @DF-RKS iter  10:  -553.03610118261975   -4.31100e-10   2.38884e-08 DIIS
   @DF-RKS iter  11:  -553.03610118263873   -1.89857e-11   3.01714e-09 DIIS
  Energy and wave function converged.


  ==> Post-Iterations <==

    Orbital Energies [Eh]
    ---------------------

    Doubly Occupied:                                                      

       1Ap  -101.979993     2Ap   -14.531329     3Ap   -10.444921  
       4Ap    -9.736904     5Ap    -7.442965     1App   -7.433416  
       6Ap    -7.433416     7Ap    -1.093994     8Ap    -1.033586  
       9Ap    -0.687133    10Ap    -0.553468     2App   -0.553468  
      11Ap    -0.502773     3App   -0.436877    12Ap    -0.436877  

    Virtual:                                                              

      13Ap     0.010379    14Ap     0.044449    15Ap     0.053498  
       4App    0.053498    16Ap     0.067699    17Ap     0.082235  
       5App    0.082235    18Ap     0.090397     6App    0.090397  
      19Ap     0.092922    20Ap     0.136281    21Ap     0.155261  
       7App    0.155261    22Ap     0.167315     8App    0.167319  
      23Ap     0.168405    24Ap     0.188886    25Ap     0.261138  
       9App    0.261138    26Ap     0.270495    10App    0.281276  
      27Ap     0.281276    28Ap     0.336796    11App    0.340643  
      29Ap     0.340643    30Ap     0.347763    12App    0.347763  
      31Ap     0.396758    32Ap     0.401625    13App    0.401634  
      33Ap     0.437346    14App    0.437346    34Ap     0.447480  
      35Ap     0.470129    36Ap     0.499796    15App    0.499796  
      16App    0.517854    37Ap     0.517854    38Ap     0.556356  
      39Ap     0.597957    17App    0.597957    18App    0.644747  
      40Ap     0.644747    41Ap     0.657179    19App    0.657182  
      42Ap     0.660973    43Ap     0.719588    44Ap     0.751733  
      20App    0.751733    21App    0.810681    45Ap     0.810681  
      46Ap     0.852238    22App    0.852246    47Ap     0.854398  
      48Ap     0.925391    23App    0.951609    49Ap     0.951609  
      50Ap     0.968629    24App    0.975471    51Ap     0.975471  
      25App    0.979324    52Ap     0.979336    26App    1.101775  
      53Ap     1.101775    54Ap     1.119350    27App    1.130591  
      55Ap     1.130591    28App    1.201779    56Ap     1.201791  
      57Ap     1.208208    58Ap     1.235279    29App    1.256797  
      59Ap     1.256797    60Ap     1.327338    61Ap     1.382808  
      30App    1.382821    62Ap     1.501499    31App    1.501499  
      63Ap     1.554938    64Ap     1.555376    32App    1.555376  
      65Ap     1.571066    33App    1.571082    66Ap     1.606452  
      34App    1.630646    67Ap     1.630646    68Ap     1.665198  
      35App    1.665209    36App    1.732295    69Ap     1.732295  
      37App    1.758600    70Ap     1.758602    71Ap     1.822250  
      38App    1.822250    72Ap     1.875225    73Ap     1.887594  
      39App    1.887594    74Ap     2.024456    40App    2.024466  
      41App    2.049307    75Ap     2.049329    42App    2.055461  
      76Ap     2.055461    77Ap     2.068809    43App    2.108985  
      78Ap     2.108998    44App    2.125531    79Ap     2.125531  
      80Ap     2.164707    45App    2.164707    81Ap     2.289063  
      82Ap     2.415113    46App    2.452292    83Ap     2.452292  
      84Ap     2.535896    47App    2.535896    85Ap     2.556658  
      48App    2.621203    86Ap     2.621241    87Ap     2.710391  
      88Ap     2.837633    49App    2.837635    89Ap     2.905382  
      50App    2.905382    51App    2.914421    90Ap     2.914426  
      91Ap     2.931918    52App    2.964869    92Ap     2.964869  
      93Ap     3.052813    53App    3.052813    94Ap     3.060240  
      54App    3.060240    95Ap     3.079380    96Ap     3.166199  
      55App    3.166213    97Ap     3.256733    98Ap     3.356755  
      56App    3.401406    99Ap     3.401406    57App    3.569812  
     100Ap     3.569828    58App    3.603788   101Ap     3.603788  
     102Ap     3.761815    59App    3.761815    60App    3.787271  
     103Ap     3.787282   104Ap     3.792922   105Ap     4.083523  
      61App    4.083523    62App    4.235623   106Ap     4.235633  
     107Ap     4.272021    63App    4.325918   108Ap     4.325918  
     109Ap     4.336471    64App    4.356927   110Ap     4.357002  
      65App    4.423333   111Ap     4.423333    66App    4.440390  
     112Ap     4.440407   113Ap     4.441966    67App    4.544684  
     114Ap     4.544684   115Ap     4.688741    68App    4.688747  
     116Ap     4.804944    69App    4.804944   117Ap     4.996329  
     118Ap     5.068021    70App    5.142085   119Ap     5.142085  
     120Ap     5.545129   121Ap     5.655037    71App    5.655123  
      72App    5.801629   122Ap     5.801629    73App    5.913715  
     123Ap     5.913715    74App    6.143303   124Ap     6.143332  
     125Ap     6.160299    75App    6.160299    76App    6.199942  
     126Ap     6.199942    77App    6.301998   127Ap     6.302063  
     128Ap     6.402443    78App    6.627404   129Ap     6.627404  
     130Ap     6.637131   131Ap     6.853579    79App    6.853620  
     132Ap     6.940362    80App    6.940362   133Ap     7.248037  
      81App    7.962693   134Ap     7.962720   135Ap     8.044333  
      82App    8.044333   136Ap     8.266455   137Ap     8.314264  
      83App    8.314264    84App    8.483131   138Ap     8.483131  
     139Ap     8.702367    85App    8.702397   140Ap     8.820301  
     141Ap     8.937087    86App    8.937087   142Ap     9.025948  
      87App    9.025948   143Ap     9.264223    88App    9.551693  
     144Ap     9.551701   145Ap     9.707309    89App    9.813392  
     146Ap     9.813421    90App   10.341314   147Ap    10.341314  
      91App   10.872456   148Ap    10.872526   149Ap    11.208618  
      92App   11.208618   150Ap    11.365651    93App   11.666062  
     151Ap    11.666062   152Ap    11.794992   153Ap    12.157288  
     154Ap    24.831197   155Ap    26.834815   156Ap    32.606164  

    Final Occupation by Irrep:
             Ap   App 
    DOCC [    12,    3 ]

  @DF-RKS Final Energy:  -553.03610118263873

   => Energetics <=

    Nuclear Repulsion Energy =             75.1709671480153645
    One-Electron Energy =                -908.6351099159860496
    Two-Electron Energy =                 310.9420111655096548
    DFT Exchange-Correlation Energy =     -30.6383531158930680
    Empirical Dispersion Energy =           0.0000000000000000
    VV10 Nonlocal Energy =                  0.1243835357154103
    Total Energy =                       -553.0361011826387312

Computation Completed


Properties will be evaluated at   0.000000,   0.000000,   0.000000 [a0]

Properties computed using the SCF density matrix

  Nuclear Dipole Moment: [e a0]
     X:    -0.0000      Y:     0.0000      Z:    -0.8721

  Electronic Dipole Moment: [e a0]
     X:     0.0001      Y:     0.0000      Z:     2.0410

  Dipole Moment: [e a0]
     X:     0.0000      Y:     0.0000      Z:     1.1690     Total:     1.1690

  Dipole Moment: [D]
     X:     0.0001      Y:     0.0000      Z:     2.9712     Total:     2.9712


*** tstop() called on bp1-compute00148.data.bp.acrc.priv at Mon Apr 19 15:54:15 2021
Module time:
	user time   =     144.16 seconds =       2.40 minutes
	system time =       3.66 seconds =       0.06 minutes
	total time  =          7 seconds =       0.12 minutes
Total time:
	user time   =     757.69 seconds =      12.63 minutes
	system time =      26.09 seconds =       0.43 minutes
	total time  =         34 seconds =       0.57 minutes

  //>>>>>>>>>>>>>>>>>>>>>>>>>>>>>>>>>>>//
  //    Loading displacement 6 of 7    //
  //<<<<<<<<<<<<<<<<<<<<<<<<<<<<<<<<<<<//

*** tstart() called on bp1-compute00148.data.bp.acrc.priv
*** at Mon Apr 19 15:54:15 2021

   => Loading Basis Set <=

    Name: AUG-CC-PV(Q+D)Z
    Role: ORBITAL
    Keyword: BASIS
    atoms 1 entry CL         line  1246 file /work/zw18965/.conda/envs/p4env/share/psi4/basis/aug-cc-pv_qpd_z.gbs 
    atoms 2 entry C          line   319 file /work/zw18965/.conda/envs/p4env/share/psi4/basis/aug-cc-pv_qpd_z.gbs 
    atoms 3 entry N          line   379 file /work/zw18965/.conda/envs/p4env/share/psi4/basis/aug-cc-pv_qpd_z.gbs 


         ---------------------------------------------------------
                                   SCF
               by Justin Turney, Rob Parrish, Andy Simmonett
                          and Daniel G. A. Smith
                              RKS Reference
                       24 Threads, 137329 MiB Core
         ---------------------------------------------------------

  ==> Geometry <==

    Molecular point group: cs
    Full point group: C1v

    Geometry (in Angstrom), charge = 0, multiplicity = 1:

       Center              X                  Y                   Z               Mass       
    ------------   -----------------  -----------------  -----------------  -----------------
         CL           0.000016412953     0.000000000000     0.958111366656    34.968852682000
         C            0.000016378057     0.000000000000    -0.670883065665    12.000000000000
         N           -0.000055022121     0.000000000000    -1.817705058011    14.003074004430

  Running in cs symmetry.

  Rotational constants: A = 1083882732.53487  B =      0.20124  C =      0.20124 [cm^-1]
  Rotational constants: A = 32493986857038.46875  B =   6033.04316  C =   6033.04316 [MHz]
  Nuclear repulsion =   75.200596284556752

  Charge       = 0
  Multiplicity = 1
  Electrons    = 30
  Nalpha       = 15
  Nbeta        = 15

  ==> Algorithm <==

  SCF Algorithm Type is DF.
  DIIS enabled.
  MOM disabled.
  Fractional occupation disabled.
  Guess Type is SAD.
  Energy threshold   = 1.00e-08
  Density threshold  = 1.00e-08
  Integral threshold = 0.00e+00

  ==> Primary Basis <==

  Basis Set: AUG-CC-PV(Q+D)Z
    Blend: AUG-CC-PV(Q+D)Z
    Number of shells: 63
    Number of basis function: 249
    Number of Cartesian functions: 325
    Spherical Harmonics?: true
    Max angular momentum: 4

  ==> DFT Potential <==

   => Composite Functional: WB97M-V <= 

    wB97M-V Hyb-GGA Exchange-Correlation Functional

    N. Mardirossian and M. Head-Gordon, J. Chem. Phys. 144, 214110 (2016)

    Deriv               =              1
    GGA                 =           TRUE
    Meta                =           TRUE

    Exchange Hybrid     =           TRUE
    MP2 Hybrid          =          FALSE

   => Exchange-Correlation Functionals <=

    1.0000   wB97M-V exchange-correlation functional

   => Exact (HF) Exchange <=

    0.8500            HF,LR [omega = 0.3000]
    0.1500               HF 

   => VV10 Non-Local Parameters <=

    VV10 B              =     6.0000E+00
    VV10 C              =     1.0000E-02

   => Molecular Quadrature <=

    Radial Scheme          =       TREUTLER
    Pruning Scheme         =           FLAT
    Nuclear Scheme         =       TREUTLER

    BS radius alpha        =              1
    Pruning alpha          =              1
    Radial Points          =             75
    Spherical Points       =            302
    Total Points           =          67950
    Total Blocks           =            598
    Max Points             =            256
    Max Functions          =            249

   => Loading Basis Set <=

    Name: (AUG-CC-PV(Q+D)Z AUX)
    Role: JKFIT
    Keyword: DF_BASIS_SCF
    atoms 1 entry CL         line   904 file /work/zw18965/.conda/envs/p4env/share/psi4/basis/aug-cc-pvqz-jkfit.gbs 
    atoms 2 entry C          line   178 file /work/zw18965/.conda/envs/p4env/share/psi4/basis/aug-cc-pvqz-jkfit.gbs 
    atoms 3 entry N          line   248 file /work/zw18965/.conda/envs/p4env/share/psi4/basis/aug-cc-pvqz-jkfit.gbs 

  ==> Pre-Iterations <==

   -------------------------------------------------------
    Irrep   Nso     Nmo     Nalpha   Nbeta   Ndocc  Nsocc
   -------------------------------------------------------
     A'       156     156       0       0       0       0
     A"        93      93       0       0       0       0
   -------------------------------------------------------
    Total     249     249      15      15      15       0
   -------------------------------------------------------

  ==> Integral Setup <==

  ==> DiskDFJK: Density-Fitted J/K Matrices <==

    J tasked:                  Yes
    K tasked:                  Yes
    wK tasked:                 Yes
    Omega:               3.000E-01
    OpenMP threads:             24
    Integrals threads:          24
    Memory [MiB]:           101920
    Algorithm:                Core
    Integral Cache:           NONE
    Schwarz Cutoff:          1E-12
    Fitting Condition:       1E-10

   => Auxiliary Basis Set <=

  Basis Set: (AUG-CC-PV(Q+D)Z AUX)
    Blend: AUG-CC-PVQZ-JKFIT
    Number of shells: 114
    Number of basis function: 468
    Number of Cartesian functions: 643
    Spherical Harmonics?: true
    Max angular momentum: 5

  Cached 100.0% of DFT collocation blocks in 1.051 [GiB].

  Minimum eigenvalue in the overlap matrix is 3.0835019018E-05.
  Using Symmetric Orthogonalization.

  SCF Guess: Superposition of Atomic Densities via on-the-fly atomic UHF.

  ==> Iterations <==

                           Total Energy        Delta E     RMS |[F,P]|

   @DF-RKS iter SAD:  -552.51807742427013   -5.52518e+02   0.00000e+00 
   @DF-RKS iter   1:  -552.83466337125105   -3.16586e-01   3.73876e-03 DIIS
   @DF-RKS iter   2:  -552.63821588998940    1.96447e-01   5.15653e-03 DIIS
   @DF-RKS iter   3:  -553.03179540298174   -3.93580e-01   5.02028e-04 DIIS
   @DF-RKS iter   4:  -553.03534355657246   -3.54815e-03   2.09149e-04 DIIS
   @DF-RKS iter   5:  -553.03603364359128   -6.90087e-04   4.97951e-05 DIIS
   @DF-RKS iter   6:  -553.03608887698397   -5.52334e-05   1.23914e-05 DIIS
   @DF-RKS iter   7:  -553.03609513350000   -6.25652e-06   2.07168e-06 DIIS
   @DF-RKS iter   8:  -553.03609527440051   -1.40901e-07   6.02740e-07 DIIS
   @DF-RKS iter   9:  -553.03609528418212   -9.78162e-09   1.08383e-07 DIIS
   @DF-RKS iter  10:  -553.03609528461038   -4.28258e-10   2.37689e-08 DIIS
   @DF-RKS iter  11:  -553.03609528462948   -1.90994e-11   2.99616e-09 DIIS
  Energy and wave function converged.


  ==> Post-Iterations <==

    Orbital Energies [Eh]
    ---------------------

    Doubly Occupied:                                                      

       1Ap  -101.979936     2Ap   -14.531035     3Ap   -10.444621  
       4Ap    -9.736853     5Ap    -7.442914     6Ap    -7.433365  
       1App   -7.433365     7Ap    -1.094165     8Ap    -1.033811  
       9Ap    -0.687069     2App   -0.553563    10Ap    -0.553563  
      11Ap    -0.502698     3App   -0.437020    12Ap    -0.437020  

[...]
    Number of Cartesian functions: 325
    Spherical Harmonics?: true
    Max angular momentum: 4

  ==> DFT Potential <==

   => Composite Functional: WB97M-V <= 

    wB97M-V Hyb-GGA Exchange-Correlation Functional

    N. Mardirossian and M. Head-Gordon, J. Chem. Phys. 144, 214110 (2016)

    Deriv               =              1
    GGA                 =           TRUE
    Meta                =           TRUE

    Exchange Hybrid     =           TRUE
    MP2 Hybrid          =          FALSE

   => Exchange-Correlation Functionals <=

    1.0000   wB97M-V exchange-correlation functional

   => Exact (HF) Exchange <=

    0.8500            HF,LR [omega = 0.3000]
    0.1500               HF 

   => VV10 Non-Local Parameters <=

    VV10 B              =     6.0000E+00
    VV10 C              =     1.0000E-02

   => Molecular Quadrature <=

    Radial Scheme          =       TREUTLER
    Pruning Scheme         =           FLAT
    Nuclear Scheme         =       TREUTLER

    BS radius alpha        =              1
    Pruning alpha          =              1
    Radial Points          =             75
    Spherical Points       =            302
    Total Points           =          67950
    Total Blocks           =            600
    Max Points             =            256
    Max Functions          =            249

   => Loading Basis Set <=

    Name: (AUG-CC-PV(Q+D)Z AUX)
    Role: JKFIT
    Keyword: DF_BASIS_SCF
    atoms 1 entry CL         line   904 file /work/zw18965/.conda/envs/p4env/share/psi4/basis/aug-cc-pvqz-jkfit.gbs 
    atoms 2 entry C          line   178 file /work/zw18965/.conda/envs/p4env/share/psi4/basis/aug-cc-pvqz-jkfit.gbs 
    atoms 3 entry N          line   248 file /work/zw18965/.conda/envs/p4env/share/psi4/basis/aug-cc-pvqz-jkfit.gbs 

  ==> Pre-Iterations <==

   -------------------------------------------------------
    Irrep   Nso     Nmo     Nalpha   Nbeta   Ndocc  Nsocc
   -------------------------------------------------------
     A'       156     156       0       0       0       0
     A"        93      93       0       0       0       0
   -------------------------------------------------------
    Total     249     249      15      15      15       0
   -------------------------------------------------------

  ==> Integral Setup <==

  ==> DiskDFJK: Density-Fitted J/K Matrices <==

    J tasked:                  Yes
    K tasked:                  Yes
    wK tasked:                 Yes
    Omega:               3.000E-01
    OpenMP threads:             24
    Integrals threads:          24
    Memory [MiB]:           101921
    Algorithm:                Core
    Integral Cache:           NONE
    Schwarz Cutoff:          1E-12
    Fitting Condition:       1E-10

   => Auxiliary Basis Set <=

  Basis Set: (AUG-CC-PV(Q+D)Z AUX)
    Blend: AUG-CC-PVQZ-JKFIT
    Number of shells: 114
    Number of basis function: 468
    Number of Cartesian functions: 643
    Spherical Harmonics?: true
    Max angular momentum: 5

  Cached 100.0% of DFT collocation blocks in 1.050 [GiB].

  Minimum eigenvalue in the overlap matrix is 3.1145061077E-05.
  Using Symmetric Orthogonalization.

  SCF Guess: Superposition of Atomic Densities via on-the-fly atomic UHF.

  ==> Iterations <==

                           Total Energy        Delta E     RMS |[F,P]|

   @DF-RKS iter SAD:  -552.51201872572585   -5.52512e+02   0.00000e+00 
   @DF-RKS iter   1:  -552.83541675931917   -3.23398e-01   3.73274e-03 DIIS
   @DF-RKS iter   2:  -552.63851436228833    1.96902e-01   5.15581e-03 DIIS
   @DF-RKS iter   3:  -553.03181752369130   -3.93303e-01   5.01013e-04 DIIS
   @DF-RKS iter   4:  -553.03535873078511   -3.54121e-03   2.08410e-04 DIIS
   @DF-RKS iter   5:  -553.03604569550703   -6.86965e-04   4.98425e-05 DIIS
   @DF-RKS iter   6:  -553.03610123903184   -5.55435e-05   1.24318e-05 DIIS
   @DF-RKS iter   7:  -553.03610756779915   -6.32877e-06   2.07418e-06 DIIS
   @DF-RKS iter   8:  -553.03610771001001   -1.42211e-07   6.06555e-07 DIIS
   @DF-RKS iter   9:  -553.03610771994420   -9.93418e-09   1.09095e-07 DIIS
   @DF-RKS iter  10:  -553.03610772037916   -4.34966e-10   2.39656e-08 DIIS
   @DF-RKS iter  11:  -553.03610772039724   -1.80762e-11   3.01943e-09 DIIS
   @DF-RKS iter  12:  -553.03610772039826   -1.02318e-12   4.90046e-10 DIIS
   @DF-RKS iter  13:  -553.03610772039895   -6.82121e-13   7.16245e-11 DIIS
  Energy and wave function converged.


  ==> Post-Iterations <==

    Orbital Energies [Eh]
    ---------------------

    Doubly Occupied:                                                      

       1Ap  -101.980040     2Ap   -14.531472     3Ap   -10.445112  
       4Ap    -9.736861     5Ap    -7.442949     1App   -7.433370  
       6Ap    -7.433370     7Ap    -1.093479     8Ap    -1.033530  
       9Ap    -0.686660     2App   -0.553007    10Ap    -0.553007  
      11Ap    -0.502910     3App   -0.437258    12Ap    -0.437258  

    Virtual:                                                              

      13Ap     0.010249    14Ap     0.044453    15Ap     0.053547  
       4App    0.053547    16Ap     0.067256    17Ap     0.082286  
       5App    0.082286    18Ap     0.090399     6App    0.090399  
      19Ap     0.092275    20Ap     0.136200    21Ap     0.155197  
       7App    0.155197    22Ap     0.167368     8App    0.167372  
      23Ap     0.168398    24Ap     0.188949    25Ap     0.261110  
       9App    0.261110    26Ap     0.270384    10App    0.281288  
      27Ap     0.281288    28Ap     0.336541    11App    0.340832  
      29Ap     0.340832    30Ap     0.347627    12App    0.347627  
      31Ap     0.396654    32Ap     0.401592    13App    0.401602  
      33Ap     0.437273    14App    0.437273    34Ap     0.447793  
      35Ap     0.470272    36Ap     0.499946    15App    0.499946  
      37Ap     0.517566    16App    0.517566    38Ap     0.556192  
      39Ap     0.597626    17App    0.597626    18App    0.644793  
      40Ap     0.644793    41Ap     0.657181    19App    0.657184  
      42Ap     0.660473    43Ap     0.719495    44Ap     0.751730  
      20App    0.751730    45Ap     0.810487    21App    0.810487  
      46Ap     0.851841    22App    0.851849    47Ap     0.854004  
      48Ap     0.924884    23App    0.951462    49Ap     0.951462  
      50Ap     0.968758    24App    0.975048    51Ap     0.975048  
      25App    0.978961    52Ap     0.978973    53Ap     1.101563  
      26App    1.101563    54Ap     1.118726    27App    1.130908  
      55Ap     1.130908    28App    1.201675    56Ap     1.201686  
      57Ap     1.207978    58Ap     1.235009    59Ap     1.256568  
      29App    1.256568    60Ap     1.327348    61Ap     1.382816  
      30App    1.382829    62Ap     1.501225    31App    1.501225  
      63Ap     1.554735    64Ap     1.555121    32App    1.555121  
      65Ap     1.571134    33App    1.571151    66Ap     1.605894  
      34App    1.630624    67Ap     1.630624    68Ap     1.665458  
      35App    1.665470    36App    1.732212    69Ap     1.732212  
      37App    1.758777    70Ap     1.758779    71Ap     1.821585  
      38App    1.821585    72Ap     1.874679    73Ap     1.887298  
      39App    1.887298    74Ap     2.024043    40App    2.024053  
      41App    2.049162    75Ap     2.049184    42App    2.054395  
      76Ap     2.054395    77Ap     2.068296    43App    2.107685  
      78Ap     2.107698    44App    2.125234    79Ap     2.125234  
      80Ap     2.164349    45App    2.164349    81Ap     2.288749  
      82Ap     2.417246    46App    2.450936    83Ap     2.450936  
      84Ap     2.534584    47App    2.534584    85Ap     2.554820  
      48App    2.620406    86Ap     2.620443    87Ap     2.708251  
      88Ap     2.837545    49App    2.837547    89Ap     2.904835  
      50App    2.904835    51App    2.912993    90Ap     2.912998  
      91Ap     2.930525    52App    2.964501    92Ap     2.964501  
      93Ap     3.051809    53App    3.051809    94Ap     3.059893  
      54App    3.059893    95Ap     3.079719    96Ap     3.165712  
      55App    3.165726    97Ap     3.254430    98Ap     3.354336  
      56App    3.399542    99Ap     3.399542    57App    3.568810  
     100Ap     3.568823   101Ap     3.603249    58App    3.603249  
     102Ap     3.763267    59App    3.763267    60App    3.786978  
     103Ap     3.786989   104Ap     3.788283   105Ap     4.081749  
      61App    4.081749    62App    4.236511   106Ap     4.236522  
     107Ap     4.271096    63App    4.326244   108Ap     4.326244  
     109Ap     4.337855    64App    4.357103   110Ap     4.357177  
      65App    4.423080   111Ap     4.423080    66App    4.440475  
     112Ap     4.440491   113Ap     4.440588    67App    4.544616  
     114Ap     4.544616   115Ap     4.687281    68App    4.687284  
     116Ap     4.801733    69App    4.801733   117Ap     4.995514  
     118Ap     5.065551    70App    5.138831   119Ap     5.138831  
     120Ap     5.549738   121Ap     5.654932    71App    5.655019  
      72App    5.801045   122Ap     5.801045    73App    5.911965  
     123Ap     5.911965    74App    6.142992   124Ap     6.143021  
     125Ap     6.160070    75App    6.160070   126Ap     6.198681  
      76App    6.198681    77App    6.298027   127Ap     6.298091  
     128Ap     6.398658    78App    6.625151   129Ap     6.625151  
     130Ap     6.636071   131Ap     6.852365    79App    6.852406  
     132Ap     6.936398    80App    6.936398   133Ap     7.242122  
      81App    7.962577   134Ap     7.962604   135Ap     8.041259  
      82App    8.041259   136Ap     8.257685   137Ap     8.314416  
      83App    8.314416    84App    8.482851   138Ap     8.482851  
     139Ap     8.701827    85App    8.701857   140Ap     8.820128  
     141Ap     8.936808    86App    8.936808   142Ap     9.024594  
      87App    9.024594   143Ap     9.258646    88App    9.552295  
     144Ap     9.552303   145Ap     9.706238    89App    9.813418  
     146Ap     9.813447    90App   10.339442   147Ap    10.339442  
      91App   10.871566   148Ap    10.871636    92App   11.207951  
     149Ap    11.207951   150Ap    11.371068    93App   11.663833  
     151Ap    11.663833   152Ap    11.792052   153Ap    12.152646  
     154Ap    24.833049   155Ap    26.823730   156Ap    32.604838  

    Final Occupation by Irrep:
             Ap   App 
    DOCC [    12,    3 ]

  @DF-RKS Final Energy:  -553.03610772039895

   => Energetics <=

    Nuclear Repulsion Energy =             75.0846264892175554
    One-Electron Energy =                -908.4646659665804691
    Two-Electron Energy =                 310.8569510878319306
    DFT Exchange-Correlation Energy =     -30.6374078649636239
    Empirical Dispersion Energy =           0.0000000000000000
    VV10 Nonlocal Energy =                  0.1243885340957425
    Total Energy =                       -553.0361077203989453

Computation Completed


Properties will be evaluated at   0.000000,   0.000000,   0.000000 [a0]

Properties computed using the SCF density matrix

  Nuclear Dipole Moment: [e a0]
     X:    -0.0000      Y:     0.0000      Z:    -0.8733

  Electronic Dipole Moment: [e a0]
     X:     0.0000      Y:     0.0000      Z:     2.0395

  Dipole Moment: [e a0]
     X:     0.0000      Y:     0.0000      Z:     1.1662     Total:     1.1662

  Dipole Moment: [D]
     X:     0.0001      Y:     0.0000      Z:     2.9641     Total:     2.9641


*** tstop() called on bp1-compute00148.data.bp.acrc.priv at Mon Apr 19 15:57:42 2021
Module time:
	user time   =     159.37 seconds =       2.66 minutes
	system time =       3.10 seconds =       0.05 minutes
	total time  =          7 seconds =       0.12 minutes
Total time:
	user time   =    5427.98 seconds =      90.47 minutes
	system time =     132.96 seconds =       2.22 minutes
	total time  =        241 seconds =       4.02 minutes

         ----------------------------------------------------------
                                   FINDIF
                     R. A. King and Jonathon Misiewicz
         ---------------------------------------------------------

  Computing second-derivative from energies using projected, 
  symmetry-adapted, cartesian coordinates.

  13 energies passed in, including the reference geometry.
    Using 3-point formula.
    Energy without displacement: -553.0361101095
    Check energies below for precision!
    0: -1        :      -553.0361100226
    0: 1         :      -553.0361100347
    1: -1        :      -553.0361097972
    1: 1         :      -553.0361098322
    2: -1        :      -553.0361075927
    2: 1         :      -553.0361073935
    0: 1, 1: 1   :      -553.0361097608
    0: -1, 1: -1 :      -553.0361097189
    0: 1, 2: 1   :      -553.0361073291
    0: -1, 2: -1 :      -553.0361075101
    1: 1, 2: 1   :      -553.0361075582
    1: -1, 2: -1 :      -553.0361077204

-------------------------------------------------------------


  ==> Harmonic Vibrational Analysis <==

  non-mass-weighted Hessian:       Symmetric? True   Hermitian? True   Lin Dep Dim?  6 (0)
  projection of translations (True) and rotations (True) removed 5 degrees of freedom (6)
  total projector:                 Symmetric? True   Hermitian? True   Lin Dep Dim?  5 (5)
  mass-weighted Hessian:           Symmetric? True   Hermitian? True   Lin Dep Dim?  6 (0)
  pre-proj  low-frequency mode:    0.0000i [cm^-1]
  pre-proj  low-frequency mode:    0.0000i [cm^-1]
  pre-proj  low-frequency mode:    0.0000  [cm^-1]
  pre-proj  low-frequency mode:    0.0000  [cm^-1]
  pre-proj  low-frequency mode:    0.0000  [cm^-1]
  pre-proj  low-frequency mode:    0.0000  [cm^-1]
  pre-proj  all modes:['0.0000i' '0.0000i' '0.0000' '0.0000' '0.0000' '0.0000' '413.2891'
 '761.2410' '2361.1431']
  projected mass-weighted Hessian: Symmetric? True   Hermitian? True   Lin Dep Dim?  6 (5)
  post-proj low-frequency mode:    0.0000i [cm^-1] (TR)
  post-proj low-frequency mode:    0.0000i [cm^-1] (-)
  post-proj low-frequency mode:    0.0000i [cm^-1] (-)
  post-proj low-frequency mode:    0.0000i [cm^-1] (-)
  post-proj low-frequency mode:    0.0000i [cm^-1] (-)
  post-proj low-frequency mode:    0.0000  [cm^-1] (-)
  post-proj  all modes:['0.0000i' '0.0000i' '0.0000i' '0.0000i' '0.0000i' '0.0000' '413.2891'
 '761.2410' '2361.1431']

  Vibration                       7                   8                   9           
  Freq [cm^-1]                 413.2891            761.2410           2361.1431       
  Irrep                           Ap                  Ap                  Ap          
  Reduced mass [u]             12.7616             17.9649             12.7416        
  Force const [mDyne/A]         1.2843              6.1337             41.8523        
  Turning point v=0 [a0]        0.1511              0.0938              0.0633        
  RMS dev v=0 [a0 u^1/2]        0.3817              0.2812              0.1597        
  Char temp [K]                594.6310           1095.2563           3397.1593       
  ----------------------------------------------------------------------------------
      1   CL              -0.13 -0.00 -0.01   -0.00 -0.00  0.47   -0.00 -0.00 -0.04   
      2   C                0.89 -0.00  0.01    0.02 -0.00 -0.54    0.00  0.00  0.80   
      3   N               -0.45 -0.00  0.01   -0.01 -0.00 -0.70   -0.00  0.00 -0.60   

  ==> Thermochemistry Components <==

  Entropy, S
    Electronic S            0.000 [cal/(mol K)]        0.000 [J/(mol K)]       0.00000000 [mEh/K] (multiplicity = 1)
    Translational S        38.243 [cal/(mol K)]      160.010 [J/(mol K)]       0.06094445 [mEh/K] (mol. weight = 60.9719 [u], P = 101325.00 [Pa])
    Rotational S            1.604 [cal/(mol K)]        6.710 [J/(mol K)]       0.00255587 [mEh/K] (symmetry no. = 1)
    Vibrational S           1.157 [cal/(mol K)]        4.839 [J/(mol K)]       0.00184316 [mEh/K]
  Total S                  41.004 [cal/(mol K)]      171.559 [J/(mol K)]       0.06534348 [mEh/K]
  Correction S              0.000 [cal/(mol K)]        0.000 [J/(mol K)]       0.00000000 [mEh/K]

  Constant volume heat capacity, Cv
    Electronic Cv           0.000 [cal/(mol K)]        0.000 [J/(mol K)]       0.00000000 [mEh/K]
    Translational Cv        2.981 [cal/(mol K)]       12.472 [J/(mol K)]       0.00475022 [mEh/K]
    Rotational Cv           2.981 [cal/(mol K)]       12.472 [J/(mol K)]       0.00475022 [mEh/K]
    Vibrational Cv          2.161 [cal/(mol K)]        9.042 [J/(mol K)]       0.00344380 [mEh/K]
  Total Cv                  8.123 [cal/(mol K)]       33.985 [J/(mol K)]       0.01294423 [mEh/K]
  Correction Cv             0.000 [cal/(mol K)]        0.000 [J/(mol K)]       0.00000000 [mEh/K]

  Constant pressure heat capacity, Cp
    Electronic Cp           0.000 [cal/(mol K)]        0.000 [J/(mol K)]       0.00000000 [mEh/K]
    Translational Cp        4.968 [cal/(mol K)]       20.786 [J/(mol K)]       0.00791703 [mEh/K]
    Rotational Cp           2.981 [cal/(mol K)]       12.472 [J/(mol K)]       0.00475022 [mEh/K]
    Vibrational Cp          2.161 [cal/(mol K)]        9.042 [J/(mol K)]       0.00344380 [mEh/K]
  Total Cp                 10.110 [cal/(mol K)]       42.300 [J/(mol K)]       0.01611104 [mEh/K]
  Correction Cp             0.000 [cal/(mol K)]        0.000 [J/(mol K)]       0.00000000 [mEh/K]

  ==> Thermochemistry Energy Analysis <==

  Raw electronic energy, E0
  Total E0, Electronic energy at well bottom at 0 [K]                 -553.03611011 [Eh]

  Zero-point energy, ZPE_vib = Sum_i nu_i / 2
    Electronic ZPE          0.000 [kcal/mol]        0.000 [kJ/mol]       0.00000000 [Eh]
    Translational ZPE       0.000 [kcal/mol]        0.000 [kJ/mol]       0.00000000 [Eh]
    Rotational ZPE          0.000 [kcal/mol]        0.000 [kJ/mol]       0.00000000 [Eh]
    Vibrational ZPE         5.054 [kcal/mol]       21.148 [kJ/mol]       0.00805486 [Eh]        1767.837 [cm^-1]
  Correction ZPE            5.054 [kcal/mol]       21.148 [kJ/mol]       0.00805486 [Eh]        1767.837 [cm^-1]
  Total ZPE, Electronic energy at 0 [K]                               -553.02805525 [Eh]

  Thermal Energy, E (includes ZPE)
    Electronic E            0.000 [kcal/mol]        0.000 [kJ/mol]       0.00000000 [Eh]
    Translational E         0.889 [kcal/mol]        3.718 [kJ/mol]       0.00141628 [Eh]
    Rotational E            0.889 [kcal/mol]        3.718 [kJ/mol]       0.00141628 [Eh]
    Vibrational E           5.297 [kcal/mol]       22.164 [kJ/mol]       0.00844198 [Eh]
  Correction E              7.075 [kcal/mol]       29.601 [kJ/mol]       0.01127453 [Eh]
  Total E, Electronic energy at  298.15 [K]                           -553.02483558 [Eh]

  Enthalpy, H_trans = E_trans + k_B * T
    Electronic H            0.000 [kcal/mol]        0.000 [kJ/mol]       0.00000000 [Eh]
    Translational H         1.481 [kcal/mol]        6.197 [kJ/mol]       0.00236046 [Eh]
    Rotational H            0.889 [kcal/mol]        3.718 [kJ/mol]       0.00141628 [Eh]
    Vibrational H           5.297 [kcal/mol]       22.164 [kJ/mol]       0.00844198 [Eh]
  Correction H              7.667 [kcal/mol]       32.080 [kJ/mol]       0.01221872 [Eh]
  Total H, Enthalpy at  298.15 [K]                                    -553.02389139 [Eh]

  Gibbs free energy, G = H - T * S
    Electronic G            0.000 [kcal/mol]        0.000 [kJ/mol]       0.00000000 [Eh]
    Translational G        -9.921 [kcal/mol]      -41.509 [kJ/mol]      -0.01581013 [Eh]
    Rotational G            0.411 [kcal/mol]        1.718 [kJ/mol]       0.00065424 [Eh]
    Vibrational G           4.953 [kcal/mol]       20.722 [kJ/mol]       0.00789244 [Eh]
  Correction G             -4.558 [kcal/mol]      -19.070 [kJ/mol]      -0.00726344 [Eh]
  Total G, Free enthalpy at  298.15 [K]                               -553.04337355 [Eh]

    Psi4 stopped on: Monday, 19 April 2021 03:57PM
    Psi4 wall time for execution: 0:04:01.63

*** Psi4 exiting successfully. Buy a developer a beer!
