
    -----------------------------------------------------------------------
          Psi4: An Open-Source Ab Initio Electronic Structure Package
                               Psi4 1.3.2 release

                         Git: Rev {HEAD} ecbda83 


    R. M. Parrish, L. A. Burns, D. G. A. Smith, A. C. Simmonett,
    A. E. DePrince III, E. G. Hohenstein, U. Bozkaya, A. Yu. Sokolov,
    R. Di Remigio, R. M. Richard, J. F. Gonthier, A. M. James,
    H. R. McAlexander, A. Kumar, M. Saitow, X. Wang, B. P. Pritchard,
    P. Verma, H. F. Schaefer III, K. Patkowski, R. A. King, E. F. Valeev,
    F. A. Evangelista, J. M. Turney, T. D. Crawford, and C. D. Sherrill,
    J. Chem. Theory Comput. 13(7) pp 3185--3197 (2017).
    (doi: 10.1021/acs.jctc.7b00174)


                         Additional Contributions by
    P. Kraus, H. Kruse, M. H. Lechner, M. C. Schieber, R. A. Shaw,
    A. Alenaizan, R. Galvelis, Z. L. Glick, S. Lehtola, and J. P. Misiewicz

    -----------------------------------------------------------------------


    Psi4 started on: Tuesday, 27 April 2021 04:45PM

    Process ID: 251286
    Host:       bp1-compute00048.data.bp.acrc.priv
    PSIDATADIR: /work/zw18965/.conda/envs/p4env/share/psi4
    Memory:     500.0 MiB
    Threads:    24
    
  ==> Input File <==

--------------------------------------------------------------------------
memory 144 GB

molecule {
0 1
Cl 0.0000000000 0.0000000000 0.0000000000
F 0.0000000000 0.0000000000 1.6318233300
}

set dynamic_level 1
set basis aug-cc-pV(Q+d)Z
 
optimize("wB97M-V")
frequencies("wB97M-V")
--------------------------------------------------------------------------

  Memory set to 134.110 GiB by Python driver.
gradient() will perform gradient computation by finite difference of analytic energies.

         ----------------------------------------------------------
                                   FINDIF
                     R. A. King and Jonathon Misiewicz
         ---------------------------------------------------------

  Using finite-differences of energies to determine gradients.
    Generating geometries for use with 3-point formula.
    Displacement size will be 5.00e-03.
    Number of atoms is 2.
    Number of symmetric SALCs is 1.
    Translations projected? 1. Rotations projected? 1.
    Number of geometries (including reference) is 3.

  //>>>>>>>>>>>>>>>>>>>>>>>>>>>>>>>>>>>//
  //    Loading displacement 1 of 3    //
  //<<<<<<<<<<<<<<<<<<<<<<<<<<<<<<<<<<<//

*** tstart() called on bp1-compute00048.data.bp.acrc.priv
*** at Tue Apr 27 16:45:51 2021

   => Loading Basis Set <=

    Name: AUG-CC-PV(Q+D)Z
    Role: ORBITAL
    Keyword: BASIS
    atoms 1 entry CL         line  1246 file /work/zw18965/.conda/envs/p4env/share/psi4/basis/aug-cc-pv_qpd_z.gbs 
    atoms 2 entry F          line   499 file /work/zw18965/.conda/envs/p4env/share/psi4/basis/aug-cc-pv_qpd_z.gbs 


         ---------------------------------------------------------
                                   SCF
               by Justin Turney, Rob Parrish, Andy Simmonett
                          and Daniel G. A. Smith
                              RKS Reference
                       24 Threads, 137329 MiB Core
         ---------------------------------------------------------

  ==> Geometry <==

    Molecular point group: c2v
    Full point group: C_inf_v

    Geometry (in Angstrom), charge = 0, multiplicity = 1:

       Center              X                  Y                   Z               Mass       
    ------------   -----------------  -----------------  -----------------  -----------------
         CL           0.000000000000     0.000000000000    -0.574460143071    34.968852682000
         F            0.000000000000     0.000000000000     1.057363186929    18.998403162730

  Running in c2v symmetry.

  Rotational constants: A = ************  B =      0.51426  C =      0.51426 [cm^-1]
  Rotational constants: A = ************  B =  15417.10307  C =  15417.10307 [MHz]
  Nuclear repulsion =   49.615734585992229

  Charge       = 0
  Multiplicity = 1
  Electrons    = 26
  Nalpha       = 13
  Nbeta        = 13

  ==> Algorithm <==

  SCF Algorithm Type is DF.
  DIIS enabled.
  MOM disabled.
  Fractional occupation disabled.
  Guess Type is SAD.
  Energy threshold   = 1.00e-08
  Density threshold  = 1.00e-08
  Integral threshold = 0.00e+00

  ==> Primary Basis <==

  Basis Set: AUG-CC-PV(Q+D)Z
    Blend: AUG-CC-PV(Q+D)Z
    Number of shells: 43
    Number of basis function: 169
    Number of Cartesian functions: 220
    Spherical Harmonics?: true
    Max angular momentum: 4

  ==> DFT Potential <==

   => Composite Functional: WB97M-V <= 

    wB97M-V Hyb-GGA Exchange-Correlation Functional

    N. Mardirossian and M. Head-Gordon, J. Chem. Phys. 144, 214110 (2016)

    Deriv               =              1
    GGA                 =           TRUE
    Meta                =           TRUE

    Exchange Hybrid     =           TRUE
    MP2 Hybrid          =          FALSE

   => Exchange-Correlation Functionals <=

    1.0000   wB97M-V exchange-correlation functional

   => Exact (HF) Exchange <=

    0.8500            HF,LR [omega = 0.3000]
    0.1500               HF 

   => VV10 Non-Local Parameters <=

    VV10 B              =     6.0000E+00
    VV10 C              =     1.0000E-02

   => Molecular Quadrature <=

    Radial Scheme          =       TREUTLER
    Pruning Scheme         =           FLAT
    Nuclear Scheme         =       TREUTLER

    BS radius alpha        =              1
    Pruning alpha          =              1
    Radial Points          =             75
    Spherical Points       =            302
    Total Points           =          45099
    Total Blocks           =            422
    Max Points             =            256
    Max Functions          =            169

   => Loading Basis Set <=

    Name: (AUG-CC-PV(Q+D)Z AUX)
    Role: JKFIT
    Keyword: DF_BASIS_SCF
    atoms 1 entry CL         line   904 file /work/zw18965/.conda/envs/p4env/share/psi4/basis/aug-cc-pvqz-jkfit.gbs 
    atoms 2 entry F          line   388 file /work/zw18965/.conda/envs/p4env/share/psi4/basis/aug-cc-pvqz-jkfit.gbs 

  ==> Pre-Iterations <==

   -------------------------------------------------------
    Irrep   Nso     Nmo     Nalpha   Nbeta   Ndocc  Nsocc
   -------------------------------------------------------
     A1        66      66       0       0       0       0
     A2        23      23       0       0       0       0
     B1        40      40       0       0       0       0
     B2        40      40       0       0       0       0
   -------------------------------------------------------
    Total     169     169      13      13      13       0
   -------------------------------------------------------

  ==> Integral Setup <==

  ==> DiskDFJK: Density-Fitted J/K Matrices <==

    J tasked:                  Yes
    K tasked:                  Yes
    wK tasked:                 Yes
    Omega:               3.000E-01
    OpenMP threads:             24
    Integrals threads:          24
    Memory [MiB]:           102507
    Algorithm:                Core
    Integral Cache:           NONE
    Schwarz Cutoff:          1E-12
    Fitting Condition:       1E-10

   => Auxiliary Basis Set <=

  Basis Set: (AUG-CC-PV(Q+D)Z AUX)
    Blend: AUG-CC-PVQZ-JKFIT
    Number of shells: 80
    Number of basis function: 326
    Number of Cartesian functions: 445
    Spherical Harmonics?: true
    Max angular momentum: 5

  Cached 100.0% of DFT collocation blocks in 0.478 [GiB].

  Minimum eigenvalue in the overlap matrix is 2.8030990918E-04.
  Using Symmetric Orthogonalization.

  SCF Guess: Superposition of Atomic Densities via on-the-fly atomic UHF.

  ==> Iterations <==

                           Total Energy        Delta E     RMS |[F,P]|

   @DF-RKS iter SAD:  -559.73776266369009   -5.59738e+02   0.00000e+00 
   @DF-RKS iter   1:  -559.96420895767449   -2.26446e-01   3.11355e-03 DIIS
   @DF-RKS iter   2:  -559.97736650463980   -1.31575e-02   2.28348e-03 DIIS
   @DF-RKS iter   3:  -559.98666936251698   -9.30286e-03   7.08912e-04 DIIS
   @DF-RKS iter   4:  -559.98778136328747   -1.11200e-03   1.10090e-04 DIIS
   @DF-RKS iter   5:  -559.98783294297311   -5.15797e-05   3.44591e-05 DIIS
   @DF-RKS iter   6:  -559.98783789617210   -4.95320e-06   6.25818e-06 DIIS
   @DF-RKS iter   7:  -559.98783826697013   -3.70798e-07   1.58634e-06 DIIS
   @DF-RKS iter   8:  -559.98783828551711   -1.85470e-08   4.74184e-07 DIIS
   @DF-RKS iter   9:  -559.98783828663318   -1.11606e-09   4.28240e-08 DIIS
   @DF-RKS iter  10:  -559.98783828665069   -1.75078e-11   5.60551e-09 DIIS
  Energy and wave function converged.


  ==> Post-Iterations <==

    Orbital Energies [Eh]
    ---------------------

    Doubly Occupied:                                                      

       1A1  -101.980076     2A1   -24.958805     3A1    -9.731448  
       4A1    -7.442352     1B1    -7.425902     1B2    -7.425902  
       5A1    -1.379172     6A1    -0.961645     7A1    -0.642465  
       2B1    -0.606433     2B2    -0.606433     3B1    -0.436906  
       3B2    -0.436906  

    Virtual:                                                              

       8A1    -0.032671     9A1     0.050433     4B1     0.069635  
       4B2     0.069635    10A1     0.076900    11A1     0.153184  
       5B2     0.171485     5B1     0.171485    12A1     0.209551  
       1A2     0.209551     6B2     0.273985     6B1     0.273985  
      13A1     0.293592    14A1     0.297167     7B1     0.406869  
       7B2     0.406869    15A1     0.411993    16A1     0.520572  
       2A2     0.520574     8B2     0.533653     8B1     0.533653  
      17A1     0.557885    18A1     0.611344     3A2     0.611345  
      19A1     0.671204     9B2     0.735573     9B1     0.735573  
      10B2     0.737527    10B1     0.737527    20A1     0.803213  
      11B2     0.844067    11B1     0.844067     4A2     0.868691  
      21A1     0.868698    22A1     0.920967    12B1     1.043277  
      12B2     1.043277    23A1     1.055600    24A1     1.308580  
      25A1     1.379112     5A2     1.379119    13B1     1.448566  
      13B2     1.448566    26A1     1.456418    14B1     1.603135  
      14B2     1.603135    15B1     1.628679    15B2     1.628679  
      27A1     1.637931     6A2     1.637933    16B2     1.674997  
      16B1     1.674997    28A1     1.714373     7A2     1.714381  
      17B2     1.854319    17B1     1.854319    29A1     1.882220  
      30A1     1.907033     8A2     1.907039    18B1     1.985236  
      18B2     1.985236    31A1     1.986560     9A2     2.000959  
      32A1     2.000974    19B1     2.039760    19B2     2.039760  
      33A1     2.265355    20B2     2.300679    20B1     2.300679  
      34A1     2.313050    10A2     2.442296    35A1     2.442306  
      36A1     2.619705    21B1     2.761597    21B2     2.761597  
      37A1     2.839232    22B2     3.332454    22B1     3.332454  
      11A2     3.405171    38A1     3.405187    39A1     3.430959  
      23B2     3.638608    23B1     3.638608    40A1     4.078453  
      24B1     4.085766    24B2     4.085766    41A1     4.177132  
      12A2     4.177133    25B2     4.316155    25B1     4.316155  
      26B1     4.357779    26B2     4.357779    42A1     4.368608  
      13A2     4.368628    14A2     4.370903    43A1     4.370977  
      44A1     4.453678    45A1     4.494532    15A2     4.494753  
      27B1     4.610422    27B2     4.610422    28B2     4.634155  
      28B1     4.634155    46A1     5.005497    47A1     5.100134  
      16A2     5.152806    48A1     5.152831    29B1     5.250269  
      29B2     5.250269    30B2     5.266344    30B1     5.266344  
      49A1     5.329784    17A2     5.463223    50A1     5.463297  
      18A2     5.556451    51A1     5.556455    31B2     5.647504  
      31B1     5.647504    52A1     5.902765    32B2     6.097697  
      32B1     6.097697    33B2     6.499359    33B1     6.499359  
      53A1     6.515067    54A1     7.828124    19A2    10.779548  
      55A1    10.779597    34B2    10.939449    34B1    10.939449  
      56A1    11.165815    35B1    12.611418    35B2    12.611418  
      57A1    13.199694    20A2    13.200488    36B1    13.233645  
      36B2    13.233645    58A1    13.416176    21A2    13.416325  
      59A1    13.601018    37B2    13.602304    37B1    13.602304  
      60A1    13.856395    38B1    15.312041    38B2    15.312041  
      61A1    15.433063    22A2    15.433272    39B1    15.573617  
      39B2    15.573617    62A1    15.745582    23A2    16.191313  
      63A1    16.191487    40B1    16.669189    40B2    16.669189  
      64A1    16.883586    65A1    24.247150    66A1    53.391271  

    Final Occupation by Irrep:
             A1    A2    B1    B2 
    DOCC [     7,    0,    3,    3 ]

  @DF-RKS Final Energy:  -559.98783828665069

   => Energetics <=

    Nuclear Repulsion Energy =             49.6157345859922287
    One-Electron Energy =                -872.6683535511156151
    Two-Electron Energy =                 292.4710765023352792
    DFT Exchange-Correlation Energy =     -29.5161510492382249
    Empirical Dispersion Energy =           0.0000000000000000
    VV10 Nonlocal Energy =                  0.1098552253755856
    Total Energy =                       -559.9878382866507991

Computation Completed


Properties will be evaluated at   0.000000,   0.000000,   0.000000 [a0]

Properties computed using the SCF density matrix

  Nuclear Dipole Moment: [e a0]
     X:     0.0000      Y:     0.0000      Z:    -0.4716

  Electronic Dipole Moment: [e a0]
     X:     0.0000      Y:     0.0000      Z:     0.1234

  Dipole Moment: [e a0]
     X:     0.0000      Y:     0.0000      Z:    -0.3482     Total:     0.3482

  Dipole Moment: [D]
     X:     0.0000      Y:     0.0000      Z:    -0.8850     Total:     0.8850


*** tstop() called on bp1-compute00048.data.bp.acrc.priv at Tue Apr 27 16:45:55 2021
Module time:
	user time   =      85.94 seconds =       1.43 minutes
	system time =       4.60 seconds =       0.08 minutes
	total time  =          4 seconds =       0.07 minutes
Total time:
	user time   =      85.94 seconds =       1.43 minutes
	system time =       4.60 seconds =       0.08 minutes
	total time  =          4 seconds =       0.07 minutes

  //>>>>>>>>>>>>>>>>>>>>>>>>>>>>>>>>>>>//
  //    Loading displacement 2 of 3    //
  //<<<<<<<<<<<<<<<<<<<<<<<<<<<<<<<<<<<//

*** tstart() called on bp1-compute00048.data.bp.acrc.priv
*** at Tue Apr 27 16:45:55 2021

   => Loading Basis Set <=

    Name: AUG-CC-PV(Q+D)Z
    Role: ORBITAL
    Keyword: BASIS
    atoms 1 entry CL         line  1246 file /work/zw18965/.conda/envs/p4env/share/psi4/basis/aug-cc-pv_qpd_z.gbs 
    atoms 2 entry F          line   499 file /work/zw18965/.conda/envs/p4env/share/psi4/basis/aug-cc-pv_qpd_z.gbs 


         ---------------------------------------------------------
                                   SCF
               by Justin Turney, Rob Parrish, Andy Simmonett
                          and Daniel G. A. Smith
                              RKS Reference
                       24 Threads, 137329 MiB Core
         ---------------------------------------------------------

  ==> Geometry <==

    Molecular point group: c2v
    Full point group: C_inf_v

    Geometry (in Angstrom), charge = 0, multiplicity = 1:

       Center              X                  Y                   Z               Mass       
    ------------   -----------------  -----------------  -----------------  -----------------
         CL           0.000000000000     0.000000000000    -0.574725618192    34.968852682000
         F            0.000000000000     0.000000000000     1.057851825912    18.998403162730

  Running in c2v symmetry.

  Rotational constants: A = ************  B =      0.51378  C =      0.51378 [cm^-1]
  Rotational constants: A = ************  B =  15402.86354  C =  15402.86354 [MHz]
  Nuclear repulsion =   49.592816270318309

  Charge       = 0
  Multiplicity = 1
  Electrons    = 26
  Nalpha       = 13
  Nbeta        = 13

  ==> Algorithm <==

  SCF Algorithm Type is DF.
  DIIS enabled.
  MOM disabled.
  Fractional occupation disabled.
  Guess Type is SAD.
  Energy threshold   = 1.00e-08
  Density threshold  = 1.00e-08
  Integral threshold = 0.00e+00

  ==> Primary Basis <==

  Basis Set: AUG-CC-PV(Q+D)Z
    Blend: AUG-CC-PV(Q+D)Z
    Number of shells: 43
    Number of basis function: 169
    Number of Cartesian functions: 220
    Spherical Harmonics?: true
    Max angular momentum: 4

  ==> DFT Potential <==

   => Composite Functional: WB97M-V <= 

    wB97M-V Hyb-GGA Exchange-Correlation Functional

    N. Mardirossian and M. Head-Gordon, J. Chem. Phys. 144, 214110 (2016)

    Deriv               =              1
    GGA                 =           TRUE
    Meta                =           TRUE

    Exchange Hybrid     =           TRUE
    MP2 Hybrid          =          FALSE

   => Exchange-Correlation Functionals <=

    1.0000   wB97M-V exchange-correlation functional

   => Exact (HF) Exchange <=

    0.8500            HF,LR [omega = 0.3000]
    0.1500               HF 

   => VV10 Non-Local Parameters <=

    VV10 B              =     6.0000E+00
    VV10 C              =     1.0000E-02

   => Molecular Quadrature <=

    Radial Scheme          =       TREUTLER
    Pruning Scheme         =           FLAT
    Nuclear Scheme         =       TREUTLER

    BS radius alpha        =              1
    Pruning alpha          =              1
    Radial Points          =             75
    Spherical Points       =            302
    Total Points           =          45099
    Total Blocks           =            423
    Max Points             =            256
    Max Functions          =            169

   => Loading Basis Set <=

    Name: (AUG-CC-PV(Q+D)Z AUX)
    Role: JKFIT
    Keyword: DF_BASIS_SCF
    atoms 1 entry CL         line   904 file /work/zw18965/.conda/envs/p4env/share/psi4/basis/aug-cc-pvqz-jkfit.gbs 
    atoms 2 entry F          line   388 file /work/zw18965/.conda/envs/p4env/share/psi4/basis/aug-cc-pvqz-jkfit.gbs 

  ==> Pre-Iterations <==

   -------------------------------------------------------
    Irrep   Nso     Nmo     Nalpha   Nbeta   Ndocc  Nsocc
   -------------------------------------------------------
     A1        66      66       0       0       0       0
     A2        23      23       0       0       0       0
     B1        40      40       0       0       0       0
     B2        40      40       0       0       0       0
   -------------------------------------------------------
    Total     169     169      13      13      13       0
   -------------------------------------------------------

  ==> Integral Setup <==

  ==> DiskDFJK: Density-Fitted J/K Matrices <==

    J tasked:                  Yes
    K tasked:                  Yes
    wK tasked:                 Yes
    Omega:               3.000E-01
    OpenMP threads:             24
    Integrals threads:          24
    Memory [MiB]:           102507
    Algorithm:                Core
    Integral Cache:           NONE
    Schwarz Cutoff:          1E-12
    Fitting Condition:       1E-10

   => Auxiliary Basis Set <=

  Basis Set: (AUG-CC-PV(Q+D)Z AUX)
    Blend: AUG-CC-PVQZ-JKFIT
    Number of shells: 80
    Number of basis function: 326
    Number of Cartesian functions: 445
    Spherical Harmonics?: true
    Max angular momentum: 5

  Cached 100.0% of DFT collocation blocks in 0.478 [GiB].

  Minimum eigenvalue in the overlap matrix is 2.8073343315E-04.
  Using Symmetric Orthogonalization.

  SCF Guess: Superposition of Atomic Densities via on-the-fly atomic UHF.

  ==> Iterations <==

                           Total Energy        Delta E     RMS |[F,P]|

   @DF-RKS iter SAD:  -559.73668393845139   -5.59737e+02   0.00000e+00 
   @DF-RKS iter   1:  -559.96421477650301   -2.27531e-01   3.11276e-03 DIIS
   @DF-RKS iter   2:  -559.97732951529929   -1.31147e-02   2.28595e-03 DIIS
   @DF-RKS iter   3:  -559.98665944007837   -9.32992e-03   7.09702e-04 DIIS
   @DF-RKS iter   4:  -559.98777420276849   -1.11476e-03   1.09955e-04 DIIS
   @DF-RKS iter   5:  -559.98782567637375   -5.14736e-05   3.44468e-05 DIIS
   @DF-RKS iter   6:  -559.98783062485677   -4.94848e-06   6.25709e-06 DIIS
   @DF-RKS iter   7:  -559.98783099543016   -3.70573e-07   1.58536e-06 DIIS
   @DF-RKS iter   8:  -559.98783101396077   -1.85306e-08   4.74819e-07 DIIS
   @DF-RKS iter   9:  -559.98783101507956   -1.11879e-09   4.28153e-08 DIIS
   @DF-RKS iter  10:  -559.98783101509684   -1.72804e-11   5.61038e-09 DIIS
  Energy and wave function converged.


  ==> Post-Iterations <==

    Orbital Energies [Eh]
    ---------------------

    Doubly Occupied:                                                      

       1A1  -101.980138     2A1   -24.958774     3A1    -9.731501  
       4A1    -7.442406     1B2    -7.425956     1B1    -7.425956  
       5A1    -1.378898     6A1    -0.961700     7A1    -0.642326  
       2B2    -0.606265     2B1    -0.606265     3B2    -0.436998  
       3B1    -0.436998  

    Virtual:                                                              

       8A1    -0.032927     9A1     0.050439     4B1     0.069637  
       4B2     0.069637    10A1     0.076848    11A1     0.153170  
       5B1     0.171497     5B2     0.171497     1A2     0.209546  
      12A1     0.209546     6B1     0.273937     6B2     0.273937  
      13A1     0.293619    14A1     0.297106     7B2     0.406897  
       7B1     0.406897    15A1     0.412005    16A1     0.520570  
       2A2     0.520572     8B1     0.533577     8B2     0.533577  
      17A1     0.557842    18A1     0.611312     3A2     0.611313  
      19A1     0.671029     9B1     0.735615     9B2     0.735615  
      10B1     0.737518    10B2     0.737518    20A1     0.803098  
      11B1     0.843960    11B2     0.843960     4A2     0.868619  
      21A1     0.868626    22A1     0.921079    12B2     1.043402  
      12B1     1.043402    23A1     1.055571    24A1     1.308514  
      25A1     1.379079     5A2     1.379087    13B1     1.448591  
      13B2     1.448591    26A1     1.456434    14B2     1.603137  
      14B1     1.603137    15B1     1.628391    15B2     1.628391  
      27A1     1.637955     6A2     1.637957    16B1     1.674848  
      16B2     1.674848    28A1     1.714359     7A2     1.714368  
      17B1     1.854297    17B2     1.854297    29A1     1.882019  
      30A1     1.906898     8A2     1.906903    18B2     1.985030  
      18B1     1.985030    31A1     1.986409     9A2     2.000852  
      32A1     2.000867    19B1     2.039615    19B2     2.039615  
      33A1     2.265251    20B2     2.300398    20B1     2.300398  
      34A1     2.312891    10A2     2.441821    35A1     2.441830  
      36A1     2.618755    21B2     2.762091    21B1     2.762091  
      37A1     2.839160    22B1     3.332095    22B2     3.332095  
      11A2     3.405145    38A1     3.405160    39A1     3.431157  
      23B1     3.637671    23B2     3.637671    40A1     4.078498  
      24B1     4.085774    24B2     4.085774    41A1     4.177463  
      12A2     4.177464    25B1     4.316174    25B2     4.316174  
      26B1     4.357951    26B2     4.357951    42A1     4.368389  
      13A2     4.368409    14A2     4.370870    43A1     4.370943  
      44A1     4.452996    45A1     4.494616    15A2     4.494837  
      27B1     4.610023    27B2     4.610023    28B2     4.633639  
      28B1     4.633639    46A1     5.004825    47A1     5.098749  
      16A2     5.151829    48A1     5.151853    29B1     5.250241  
      29B2     5.250241    30B1     5.266308    30B2     5.266308  
      49A1     5.328941    17A2     5.462971    50A1     5.463045  
      18A2     5.555918    51A1     5.555921    31B1     5.647288  
      31B2     5.647288    52A1     5.904111    32B1     6.096848  
      32B2     6.096848    33B2     6.497617    33B1     6.497617  
      53A1     6.512577    54A1     7.827149    19A2    10.779473  
      55A1    10.779522    34B1    10.939286    34B2    10.939286  
      56A1    11.164893    35B1    12.610609    35B2    12.610609  
      57A1    13.199781    20A2    13.200579    36B1    13.233609  
      36B2    13.233609    58A1    13.415833    21A2    13.415982  
      59A1    13.601166    37B2    13.602252    37B1    13.602252  
      60A1    13.854280    38B2    15.312069    38B1    15.312069  
      61A1    15.432950    22A2    15.433159    39B2    15.573312  
      39B1    15.573312    62A1    15.744517    23A2    16.191202  
      63A1    16.191377    40B1    16.668513    40B2    16.668513  
      64A1    16.883587    65A1    24.242898    66A1    53.389395  

    Final Occupation by Irrep:
             A1    A2    B1    B2 
    DOCC [     7,    0,    3,    3 ]

  @DF-RKS Final Energy:  -559.98783101509684

   => Energetics <=

    Nuclear Repulsion Energy =             49.5928162703183091
    One-Electron Energy =                -872.6232061063246874
    Two-Electron Energy =                 292.4485658565612312
    DFT Exchange-Correlation Energy =     -29.5158635296052836
    Empirical Dispersion Energy =           0.0000000000000000
    VV10 Nonlocal Energy =                  0.1098564939535513
    Total Energy =                       -559.9878310150969583

Computation Completed


Properties will be evaluated at   0.000000,   0.000000,   0.000000 [a0]

Properties computed using the SCF density matrix

  Nuclear Dipole Moment: [e a0]
     X:     0.0000      Y:     0.0000      Z:    -0.4718

  Electronic Dipole Moment: [e a0]
     X:     0.0000      Y:     0.0000      Z:     0.1227

  Dipole Moment: [e a0]
     X:     0.0000      Y:     0.0000      Z:    -0.3491     Total:     0.3491

  Dipole Moment: [D]
     X:     0.0000      Y:     0.0000      Z:    -0.8874     Total:     0.8874


*** tstop() called on bp1-compute00048.data.bp.acrc.priv at Tue Apr 27 16:45:59 2021
Module time:
	user time   =      93.24 seconds =       1.55 minutes
	system time =       5.60 seconds =       0.09 minutes
	total time  =          4 seconds =       0.07 minutes
Total time:
	user time   =     179.35 seconds =       2.99 minutes
	system time =      10.21 seconds =       0.17 minutes
	total time  =          8 seconds =       0.13 minutes

  //>>>>>>>>>>>>>>>>>>>>>>>>>>>>>>>>>>>//
  //    Loading displacement 3 of 3    //
  //<<<<<<<<<<<<<<<<<<<<<<<<<<<<<<<<<<<//

*** tstart() called on bp1-compute00048.data.bp.acrc.priv
*** at Tue Apr 27 16:45:59 2021

   => Loading Basis Set <=

    Name: AUG-CC-PV(Q+D)Z
    Role: ORBITAL
    Keyword: BASIS
    atoms 1 entry CL         line  1246 file /work/zw18965/.conda/envs/p4env/share/psi4/basis/aug-cc-pv_qpd_z.gbs 
    atoms 2 entry F          line   499 file /work/zw18965/.conda/envs/p4env/share/psi4/basis/aug-cc-pv_qpd_z.gbs 


         ---------------------------------------------------------
                                   SCF
               by Justin Turney, Rob Parrish, Andy Simmonett
                          and Daniel G. A. Smith
                              RKS Reference
                       24 Threads, 137329 MiB Core
         ---------------------------------------------------------

  ==> Geometry <==

    Molecular point group: c2v
    Full point group: C_inf_v

    Geometry (in Angstrom), charge = 0, multiplicity = 1:

       Center              X                  Y                   Z               Mass       
    ------------   -----------------  -----------------  -----------------  -----------------
         CL           0.000000000000     0.000000000000    -0.574194667950    34.968852682000
         F            0.000000000000     0.000000000000     1.056874547947    18.998403162730

  Running in c2v symmetry.

  Rotational constants: A = ************  B =      0.51473  C =      0.51473 [cm^-1]
  Rotational constants: A = ************  B =  15431.36236  C =  15431.36236 [MHz]
  Nuclear repulsion =   49.638674093930597

  Charge       = 0
  Multiplicity = 1
  Electrons    = 26
  Nalpha       = 13
  Nbeta        = 13

  ==> Algorithm <==

  SCF Algorithm Type is DF.
  DIIS enabled.
  MOM disabled.
  Fractional occupation disabled.
  Guess Type is SAD.
  Energy threshold   = 1.00e-08
  Density threshold  = 1.00e-08
  Integral threshold = 0.00e+00

  ==> Primary Basis <==

  Basis Set: AUG-CC-PV(Q+D)Z
    Blend: AUG-CC-PV(Q+D)Z
    Number of shells: 43
    Number of basis function: 169
    Number of Cartesian functions: 220
    Spherical Harmonics?: true
    Max angular momentum: 4

  ==> DFT Potential <==

   => Composite Functional: WB97M-V <= 

    wB97M-V Hyb-GGA Exchange-Correlation Functional

    N. Mardirossian and M. Head-Gordon, J. Chem. Phys. 144, 214110 (2016)

    Deriv               =              1
    GGA                 =           TRUE
    Meta                =           TRUE

    Exchange Hybrid     =           TRUE
    MP2 Hybrid          =          FALSE

   => Exchange-Correlation Functionals <=

    1.0000   wB97M-V exchange-correlation functional

   => Exact (HF) Exchange <=

    0.8500            HF,LR [omega = 0.3000]
    0.1500               HF 

   => VV10 Non-Local Parameters <=

    VV10 B              =     6.0000E+00
    VV10 C              =     1.0000E-02

   => Molecular Quadrature <=

    Radial Scheme          =       TREUTLER
    Pruning Scheme         =           FLAT
    Nuclear Scheme         =       TREUTLER

    BS radius alpha        =              1
    Pruning alpha          =              1
    Radial Points          =             75
    Spherical Points       =            302
    Total Points           =          45099
    Total Blocks           =            422
    Max Points             =            256
    Max Functions          =            169

   => Loading Basis Set <=

    Name: (AUG-CC-PV(Q+D)Z AUX)
    Role: JKFIT
    Keyword: DF_BASIS_SCF
    atoms 1 entry CL         line   904 file /work/zw18965/.conda/envs/p4env/share/psi4/basis/aug-cc-pvqz-jkfit.gbs 
    atoms 2 entry F          line   388 file /work/zw18965/.conda/envs/p4env/share/psi4/basis/aug-cc-pvqz-jkfit.gbs 

  ==> Pre-Iterations <==

   -------------------------------------------------------
    Irrep   Nso     Nmo     Nalpha   Nbeta   Ndocc  Nsocc
   -------------------------------------------------------
     A1        66      66       0       0       0       0
     A2        23      23       0       0       0       0
     B1        40      40       0       0       0       0
     B2        40      40       0       0       0       0
   -------------------------------------------------------
    Total     169     169      13      13      13       0
   -------------------------------------------------------

  ==> Integral Setup <==

  ==> DiskDFJK: Density-Fitted J/K Matrices <==

    J tasked:                  Yes
    K tasked:                  Yes
    wK tasked:                 Yes
    Omega:               3.000E-01
    OpenMP threads:             24
    Integrals threads:          24
    Memory [MiB]:           102507
    Algorithm:                Core
    Integral Cache:           NONE
    Schwarz Cutoff:          1E-12
    Fitting Condition:       1E-10

   => Auxiliary Basis Set <=

  Basis Set: (AUG-CC-PV(Q+D)Z AUX)
    Blend: AUG-CC-PVQZ-JKFIT
    Number of shells: 80
    Number of basis function: 326
    Number of Cartesian functions: 445
    Spherical Harmonics?: true
    Max angular momentum: 5

  Cached 100.0% of DFT collocation blocks in 0.478 [GiB].

  Minimum eigenvalue in the overlap matrix is 2.7988686392E-04.
  Using Symmetric Orthogonalization.

  SCF Guess: Superposition of Atomic Densities via on-the-fly atomic UHF.

  ==> Iterations <==

                           Total Energy        Delta E     RMS |[F,P]|

   @DF-RKS iter SAD:  -559.73884620394392   -5.59739e+02   0.00000e+00 
   @DF-RKS iter   1:  -559.96420247310050   -2.25356e-01   3.11434e-03 DIIS
   @DF-RKS iter   2:  -559.97740279770369   -1.32003e-02   2.28100e-03 DIIS
   @DF-RKS iter   3:  -559.98667867412189   -9.27588e-03   7.08118e-04 DIIS
   @DF-RKS iter   4:  -559.98778790238475   -1.10923e-03   1.10225e-04 DIIS
   @DF-RKS iter   5:  -559.98783958790648   -5.16855e-05   3.44712e-05 DIIS
   @DF-RKS iter   6:  -559.98784454562167   -4.95772e-06   6.25915e-06 DIIS
   @DF-RKS iter   7:  -559.98784491662298   -3.71001e-07   1.58732e-06 DIIS
   @DF-RKS iter   8:  -559.98784493518633   -1.85634e-08   4.73547e-07 DIIS
   @DF-RKS iter   9:  -559.98784493630080   -1.11447e-09   4.28332e-08 DIIS
   @DF-RKS iter  10:  -559.98784493631808   -1.72804e-11   5.60072e-09 DIIS
  Energy and wave function converged.


  ==> Post-Iterations <==

    Orbital Energies [Eh]
    ---------------------

    Doubly Occupied:                                                      

       1A1  -101.980015     2A1   -24.958835     3A1    -9.731396  
       4A1    -7.442298     1B2    -7.425849     1B1    -7.425849  
       5A1    -1.379448     6A1    -0.961591     7A1    -0.642604  
       2B2    -0.606602     2B1    -0.606602     3B2    -0.436813  
       3B1    -0.436813  

    Virtual:                                                              

       8A1    -0.032416     9A1     0.050428     4B1     0.069634  
       4B2     0.069634    10A1     0.076952    11A1     0.153198  
       5B1     0.171474     5B2     0.171474    12A1     0.209556  
       1A2     0.209556     6B1     0.274032     6B2     0.274032  
      13A1     0.293565    14A1     0.297227     7B1     0.406841  
       7B2     0.406841    15A1     0.411981    16A1     0.520573  
       2A2     0.520575     8B1     0.533729     8B2     0.533729  
      17A1     0.557927    18A1     0.611377     3A2     0.611378  
      19A1     0.671380     9B1     0.735531     9B2     0.735531  
      10B2     0.737536    10B1     0.737536    20A1     0.803327  
      11B1     0.844174    11B2     0.844174     4A2     0.868764  
      21A1     0.868771    22A1     0.920856    12B1     1.043152  
      12B2     1.043152    23A1     1.055630    24A1     1.308647  
      25A1     1.379144     5A2     1.379151    13B1     1.448541  
      13B2     1.448541    26A1     1.456402    14B1     1.603133  
      14B2     1.603133    15B1     1.628967    15B2     1.628967  
      27A1     1.637906     6A2     1.637908    16B1     1.675146  
      16B2     1.675146    28A1     1.714387     7A2     1.714395  
      17B2     1.854340    17B1     1.854340    29A1     1.882422  
      30A1     1.907168     8A2     1.907174    18B1     1.985442  
      18B2     1.985442    31A1     1.986711     9A2     2.001067  
      32A1     2.001082    19B1     2.039906    19B2     2.039906  
      33A1     2.265448    20B1     2.300960    20B2     2.300960  
      34A1     2.313219    10A2     2.442772    35A1     2.442781  
      36A1     2.620652    21B1     2.761102    21B2     2.761102  
      37A1     2.839307    22B1     3.332813    22B2     3.332813  
      11A2     3.405198    38A1     3.405214    39A1     3.430764  
      23B1     3.639546    23B2     3.639546    40A1     4.078410  
      24B2     4.085760    24B1     4.085760    41A1     4.176802  
      12A2     4.176803    25B1     4.316136    25B2     4.316136  
      26B1     4.357606    26B2     4.357606    42A1     4.368827  
      13A2     4.368848    14A2     4.370936    43A1     4.371010  
      44A1     4.454357    45A1     4.494447    15A2     4.494668  
      27B1     4.610823    27B2     4.610823    28B2     4.634671  
      28B1     4.634671    46A1     5.006158    47A1     5.101529  
      16A2     5.153783    48A1     5.153807    29B1     5.250298  
      29B2     5.250298    30B1     5.266379    30B2     5.266379  
      49A1     5.330628    17A2     5.463478    50A1     5.463552  
      18A2     5.556985    51A1     5.556989    31B1     5.647719  
      31B2     5.647719    52A1     5.901422    32B1     6.098544  
      32B2     6.098544    33B1     6.501103    33B2     6.501103  
      53A1     6.517558    54A1     7.829093    19A2    10.779624  
      55A1    10.779673    34B1    10.939611    34B2    10.939611  
      56A1    11.166741    35B1    12.612230    35B2    12.612230  
      57A1    13.199606    20A2    13.200395    36B1    13.233681  
      36B2    13.233681    58A1    13.416519    21A2    13.416668  
      59A1    13.600868    37B1    13.602355    37B2    13.602355  
      60A1    13.858510    38B1    15.312014    38B2    15.312014  
      61A1    15.433176    22A2    15.433385    39B1    15.573924  
      39B2    15.573924    62A1    15.746652    23A2    16.191424  
      63A1    16.191598    40B2    16.669863    40B1    16.669863  
      64A1    16.883580    65A1    24.251419    66A1    53.393154  

    Final Occupation by Irrep:
             A1    A2    B1    B2 
    DOCC [     7,    0,    3,    3 ]

  @DF-RKS Final Energy:  -559.98784493631808

   => Energetics <=

    Nuclear Repulsion Energy =             49.6386740939305966
    One-Electron Energy =                -872.7135399299456822
    Two-Electron Energy =                 292.4936059939577717
    DFT Exchange-Correlation Energy =     -29.5164390513004946
    Empirical Dispersion Energy =           0.0000000000000000
    VV10 Nonlocal Energy =                  0.1098539570397030
    Total Energy =                       -559.9878449363180835

Computation Completed


Properties will be evaluated at   0.000000,   0.000000,   0.000000 [a0]

Properties computed using the SCF density matrix

  Nuclear Dipole Moment: [e a0]
     X:     0.0000      Y:     0.0000      Z:    -0.4714

  Electronic Dipole Moment: [e a0]
     X:     0.0000      Y:     0.0000      Z:     0.1241

  Dipole Moment: [e a0]
     X:     0.0000      Y:     0.0000      Z:    -0.3473     Total:     0.3473

  Dipole Moment: [D]
     X:     0.0000      Y:     0.0000      Z:    -0.8826     Total:     0.8826


*** tstop() called on bp1-compute00048.data.bp.acrc.priv at Tue Apr 27 16:46:03 2021
Module time:
	user time   =      85.51 seconds =       1.43 minutes
	system time =       3.89 seconds =       0.06 minutes
	total time  =          4 seconds =       0.07 minutes
Total time:
	user time   =     265.03 seconds =       4.42 minutes
	system time =      14.11 seconds =       0.24 minutes
	total time  =         12 seconds =       0.20 minutes

         ----------------------------------------------------------
                                   FINDIF
                     R. A. King and Jonathon Misiewicz
         ---------------------------------------------------------

  Computing gradient from energies.
    Using 3-point formula.
    Energy without displacement: -559.9878382867
    Check energies below for precision!
    Forces are for mass-weighted, symmetry-adapted cartesians (in au).

     Coord      Energy(-1)        Energy(+1)            Force
        0   -559.9878310151   -559.9878449363     -0.0013921221


-------------------------------------------------------------
  ## New Matrix (Symmetry 0) ##
  Irrep: 1 Size: 2 x 3

                 1                   2                   3

    1     0.00000000000000     0.00000000000000    -0.00488440209932
    2     0.00000000000000     0.00000000000000     0.00488440209932




			-----------------------------------------
			 OPTKING 2.0: for geometry optimizations 
			  - R.A. King,  Bethel University        
			-----------------------------------------
	At level 1: Red. Int., RFO, no backsteps, dynamic trust

	Internal coordinates to be generated automatically.
	Detected frag 1 with atoms:  1 2
	---Fragment 1 Bond Connectivity---
	 1 : 2
	 2 : 1

	---Fragment 1 Geometry and Gradient---
	 CL          0.0000000000        0.0000000000       -1.0855723404
	 F           0.0000000000        0.0000000000        1.9981268384
	             0.0000000000        0.0000000000       -0.0048844021
	             0.0000000000        0.0000000000        0.0048844021

	Previous optimization step data not found.  Starting new optimization.

	---Fragment 1 Intrafragment Coordinates---
	 - Coordinate -           - BOHR/RAD -       - ANG/DEG -
	 R(1,2)           =         3.083699	       1.631823

	Current energy   :      -559.9878382867

	Generating empirical Hessian (Schlegel '84) for each fragment.
	Taking RFO optimization step.
	Going to follow RFO solution 1.
	Using RFO vector 1.
	Norm of target step-size    0.01073
	Projected energy change by RFO approximation:         0.0000051425

	Back-transformation to cartesian coordinates...
	Successfully converged to displaced geometry.

	--- Internal Coordinate Step in ANG or DEG, aJ/ANG or AJ/DEG ---
	 ---------------------------------------------------------------------------
	   Coordinate                Previous        Force       Change         New 
	   ----------                --------       ------       ------       ------
	    1 R(1,2)          =      1.631823    -0.040241    -0.005677     1.626146
	 ---------------------------------------------------------------------------
	Successfully symmetrized geometry.

  ==> Convergence Check <==

  Measures of convergence in internal coordinates in au.
  Criteria marked as inactive (o), active & met (*), and active & unmet ( ).
  --------------------------------------------------------------------------------------------- ~
   Step     Total Energy     Delta E     MAX Force     RMS Force      MAX Disp      RMS Disp    ~
  --------------------------------------------------------------------------------------------- ~
    Convergence Criteria    1.00e-06 *    3.00e-04 *             o    1.20e-03 *             o  ~
  --------------------------------------------------------------------------------------------- ~
      1    -559.98783829   -5.60e+02      4.88e-03      4.88e-03 o    1.07e-02      1.07e-02 o  ~
  ---------------------------------------------------------------------------------------------

	Writing optimization data to binary file.
	Structure for next step:
	Cartesian Geometry (in Angstrom)
	   CL     0.0000000000   0.0000000000  -0.5716217276
	    F     0.0000000000   0.0000000000   1.0545247696
			--------------------------
			 OPTKING Finished Execution 
			--------------------------

    Structure for next step:
    Molecular point group: c2v
    Full point group: C_inf_v

    Geometry (in Angstrom), charge = 0, multiplicity = 1:

    CL           0.000000000000     0.000000000000    -0.572461697261
    F            0.000000000000     0.000000000000     1.053684806357

gradient() will perform gradient computation by finite difference of analytic energies.

         ----------------------------------------------------------
                                   FINDIF
                     R. A. King and Jonathon Misiewicz
         ---------------------------------------------------------

  Using finite-differences of energies to determine gradients.
    Generating geometries for use with 3-point formula.
    Displacement size will be 5.00e-03.
    Number of atoms is 2.
    Number of symmetric SALCs is 1.
    Translations projected? 1. Rotations projected? 1.
    Number of geometries (including reference) is 3.

  //>>>>>>>>>>>>>>>>>>>>>>>>>>>>>>>>>>>//
  //    Loading displacement 1 of 3    //
  //<<<<<<<<<<<<<<<<<<<<<<<<<<<<<<<<<<<//

*** tstart() called on bp1-compute00048.data.bp.acrc.priv
*** at Tue Apr 27 16:46:03 2021

   => Loading Basis Set <=

    Name: AUG-CC-PV(Q+D)Z
    Role: ORBITAL
    Keyword: BASIS
    atoms 1 entry CL         line  1246 file /work/zw18965/.conda/envs/p4env/share/psi4/basis/aug-cc-pv_qpd_z.gbs 
    atoms 2 entry F          line   499 file /work/zw18965/.conda/envs/p4env/share/psi4/basis/aug-cc-pv_qpd_z.gbs 


         ---------------------------------------------------------
                                   SCF
               by Justin Turney, Rob Parrish, Andy Simmonett
                          and Daniel G. A. Smith
                              RKS Reference
                       24 Threads, 137329 MiB Core
         ---------------------------------------------------------

  ==> Geometry <==

    Molecular point group: c2v
    Full point group: C_inf_v

    Geometry (in Angstrom), charge = 0, multiplicity = 1:

       Center              X                  Y                   Z               Mass       
    ------------   -----------------  -----------------  -----------------  -----------------
         CL           0.000000000000     0.000000000000    -0.572461697261    34.968852682000
         F            0.000000000000     0.000000000000     1.053684806357    18.998403162730

  Running in c2v symmetry.

  Rotational constants: A = ************  B =      0.51786  C =      0.51786 [cm^-1]
  Rotational constants: A = ************  B =  15524.93220  C =  15524.93220 [MHz]
  Nuclear repulsion =   49.788941557471020

  Charge       = 0
  Multiplicity = 1
  Electrons    = 26
  Nalpha       = 13
  Nbeta        = 13

  ==> Algorithm <==

  SCF Algorithm Type is DF.
  DIIS enabled.
  MOM disabled.
  Fractional occupation disabled.
  Guess Type is READ.
  Energy threshold   = 1.00e-08
  Density threshold  = 1.00e-08
  Integral threshold = 0.00e+00

  ==> Primary Basis <==

  Basis Set: AUG-CC-PV(Q+D)Z
    Blend: AUG-CC-PV(Q+D)Z
    Number of shells: 43
    Number of basis function: 169
    Number of Cartesian functions: 220
    Spherical Harmonics?: true
    Max angular momentum: 4

  ==> DFT Potential <==

   => Composite Functional: WB97M-V <= 

    wB97M-V Hyb-GGA Exchange-Correlation Functional

    N. Mardirossian and M. Head-Gordon, J. Chem. Phys. 144, 214110 (2016)

    Deriv               =              1
    GGA                 =           TRUE
    Meta                =           TRUE

    Exchange Hybrid     =           TRUE
    MP2 Hybrid          =          FALSE

   => Exchange-Correlation Functionals <=

    1.0000   wB97M-V exchange-correlation functional

   => Exact (HF) Exchange <=

    0.8500            HF,LR [omega = 0.3000]
    0.1500               HF 

   => VV10 Non-Local Parameters <=

    VV10 B              =     6.0000E+00
    VV10 C              =     1.0000E-02

   => Molecular Quadrature <=

    Radial Scheme          =       TREUTLER
    Pruning Scheme         =           FLAT
    Nuclear Scheme         =       TREUTLER

    BS radius alpha        =              1
    Pruning alpha          =              1
    Radial Points          =             75
    Spherical Points       =            302
    Total Points           =          45099
    Total Blocks           =            423
    Max Points             =            256
    Max Functions          =            169

   => Loading Basis Set <=

    Name: (AUG-CC-PV(Q+D)Z AUX)
    Role: JKFIT
    Keyword: DF_BASIS_SCF
    atoms 1 entry CL         line   904 file /work/zw18965/.conda/envs/p4env/share/psi4/basis/aug-cc-pvqz-jkfit.gbs 
    atoms 2 entry F          line   388 file /work/zw18965/.conda/envs/p4env/share/psi4/basis/aug-cc-pvqz-jkfit.gbs 

   => Loading Basis Set <=

    Name: AUG-CC-PV(Q+D)Z
    Role: ORBITAL
    Keyword: BASIS
    atoms 1 entry CL         line  1246 file /work/zw18965/.conda/envs/p4env/share/psi4/basis/aug-cc-pv_qpd_z.gbs 
    atoms 2 entry F          line   499 file /work/zw18965/.conda/envs/p4env/share/psi4/basis/aug-cc-pv_qpd_z.gbs 

  Reading orbitals from file 180, no projection.

  ==> Pre-Iterations <==

   -------------------------------------------------------
    Irrep   Nso     Nmo     Nalpha   Nbeta   Ndocc  Nsocc
   -------------------------------------------------------
     A1        66      66       0       0       0       0
     A2        23      23       0       0       0       0
     B1        40      40       0       0       0       0
     B2        40      40       0       0       0       0
   -------------------------------------------------------
    Total     169     169      13      13      13       0
   -------------------------------------------------------

  ==> Integral Setup <==

  ==> DiskDFJK: Density-Fitted J/K Matrices <==

    J tasked:                  Yes
    K tasked:                  Yes
    wK tasked:                 Yes
    Omega:               3.000E-01
    OpenMP threads:             24
    Integrals threads:          24
    Memory [MiB]:           102507
    Algorithm:                Core
    Integral Cache:           NONE
    Schwarz Cutoff:          1E-12
    Fitting Condition:       1E-10

   => Auxiliary Basis Set <=

  Basis Set: (AUG-CC-PV(Q+D)Z AUX)
    Blend: AUG-CC-PVQZ-JKFIT
    Number of shells: 80
    Number of basis function: 326
    Number of Cartesian functions: 445
    Spherical Harmonics?: true
    Max angular momentum: 5

  Cached 100.0% of DFT collocation blocks in 0.478 [GiB].

  Minimum eigenvalue in the overlap matrix is 2.7713699854E-04.
  Using Symmetric Orthogonalization.

  SCF Guess: Orbitals guess was supplied from a previous computation.

  ==> Iterations <==

                           Total Energy        Delta E     RMS |[F,P]|

   @DF-RKS iter   0:  -559.98933944048997   -5.59989e+02   1.69041e-04 
   @DF-RKS iter   1:  -559.98787048498946    1.46896e-03   3.12376e-05 DIIS
   @DF-RKS iter   2:  -559.98787222917940   -1.74419e-06   1.85473e-05 DIIS
   @DF-RKS iter   3:  -559.98787289849759   -6.69318e-07   3.24758e-06 DIIS
   @DF-RKS iter   4:  -559.98787292225768   -2.37601e-08   1.43662e-06 DIIS
   @DF-RKS iter   5:  -559.98787292931763   -7.05995e-09   2.57037e-07 DIIS
   @DF-RKS iter   6:  -559.98787292961981   -3.02180e-10   5.57158e-08 DIIS
   @DF-RKS iter   7:  -559.98787292963823   -1.84173e-11   1.29888e-08 DIIS
   @DF-RKS iter   8:  -559.98787292963937   -1.13687e-12   3.81892e-09 DIIS
  Energy and wave function converged.


  ==> Post-Iterations <==

    Orbital Energies [Eh]
    ---------------------

    Doubly Occupied:                                                      

       1A1  -101.979612     2A1   -24.959037     3A1    -9.731051  
       4A1    -7.441946     1B2    -7.425500     1B1    -7.425500  
       5A1    -1.381263     6A1    -0.961235     7A1    -0.643514  
       2B2    -0.607714     2B1    -0.607714     3B2    -0.436205  
       3B1    -0.436205  

    Virtual:                                                              

       8A1    -0.030753     9A1     0.050391     4B2     0.069624  
       4B1     0.069624    10A1     0.077296    11A1     0.153287  
       5B1     0.171400     5B2     0.171400    12A1     0.209589  
       1A2     0.209589     6B1     0.274342     6B2     0.274342  
      13A1     0.293386    14A1     0.297625     7B2     0.406655  
       7B1     0.406655    15A1     0.411906    16A1     0.520582  
       2A2     0.520584     8B1     0.534229     8B2     0.534229  
      17A1     0.558203    18A1     0.611589     3A2     0.611589  
      19A1     0.672543     9B1     0.735257     9B2     0.735257  
      10B1     0.737592    10B2     0.737592    20A1     0.804072  
      11B1     0.844871    11B2     0.844871     4A2     0.869235  
      21A1     0.869242    22A1     0.920124    12B2     1.042328  
      12B1     1.042328    23A1     1.055830    24A1     1.309092  
      25A1     1.379354     5A2     1.379361    13B2     1.448378  
      13B1     1.448378    26A1     1.456293    14B1     1.603123  
      14B2     1.603123    15B2     1.630851    15B1     1.630851  
      27A1     1.637738     6A2     1.637740    16B1     1.676133  
      16B2     1.676133    28A1     1.714477     7A2     1.714484  
      17B2     1.854481    17B1     1.854481    29A1     1.883745  
      30A1     1.908051     8A2     1.908058    18B1     1.986790  
      18B2     1.986790    31A1     1.987689     9A2     2.001772  
      32A1     2.001787    19B2     2.040858    19B1     2.040858  
      33A1     2.265762    20B2     2.302801    20B1     2.302801  
      34A1     2.314583    10A2     2.445882    35A1     2.445891  
      36A1     2.626762    21B1     2.757836    21B2     2.757836  
      37A1     2.839902    22B2     3.335147    22B1     3.335147  
      11A2     3.405376    38A1     3.405394    39A1     3.429570  
      23B2     3.645693    23B1     3.645693    40A1     4.078141  
      24B1     4.085763    24B2     4.085763    41A1     4.174663  
      12A2     4.174665    25B2     4.315992    25B1     4.315992  
      26B1     4.356471    26B2     4.356471    42A1     4.370274  
      13A2     4.370298    14A2     4.371154    43A1     4.371229  
      44A1     4.458746    45A1     4.493889    15A2     4.494109  
      27B2     4.613481    27B1     4.613481    28B1     4.638047  
      28B2     4.638047    46A1     5.010233    47A1     5.110869  
      16A2     5.160114    48A1     5.160139    29B1     5.250487  
      29B2     5.250487    30B2     5.266618    30B1     5.266618  
      49A1     5.336177    17A2     5.465197    50A1     5.465268  
      18A2     5.560500    51A1     5.560505    31B2     5.649124  
      31B1     5.649124    52A1     5.892722    32B2     6.104006  
      32B1     6.104006    33B1     6.512564    33B2     6.512564  
      53A1     6.533823    54A1     7.835300    19A2    10.780117  
      55A1    10.780166    34B1    10.940649    34B2    10.940649  
      56A1    11.172879    35B1    12.617603    35B2    12.617603  
      57A1    13.199030    20A2    13.199789    36B2    13.233916  
      36B1    13.233916    58A1    13.418757    21A2    13.418905  
      59A1    13.599850    37B1    13.602647    37B2    13.602647  
      60A1    13.872317    38B1    15.311830    38B2    15.311830  
      61A1    15.433914    22A2    15.434125    39B1    15.575969  
      39B2    15.575969    62A1    15.753731    23A2    16.192164  
      63A1    16.192332    40B1    16.674223    40B2    16.674223  
      64A1    16.883456    65A1    24.279724    66A1    53.405632  

    Final Occupation by Irrep:
             A1    A2    B1    B2 
    DOCC [     7,    0,    3,    3 ]

  @DF-RKS Final Energy:  -559.98787292963937

   => Energetics <=

    Nuclear Repulsion Energy =             49.7889415574710199
    One-Electron Energy =                -873.0094665916165013
    Two-Electron Energy =                 292.6411372719479687
    DFT Exchange-Correlation Energy =     -29.5183308506696456
    Empirical Dispersion Energy =           0.0000000000000000
    VV10 Nonlocal Energy =                  0.1098456832277294
    Total Energy =                       -559.9878729296393658

Computation Completed


Properties will be evaluated at   0.000000,   0.000000,   0.000000 [a0]

Properties computed using the SCF density matrix

  Nuclear Dipole Moment: [e a0]
     X:     0.0000      Y:     0.0000      Z:    -0.4699

  Electronic Dipole Moment: [e a0]
     X:     0.0000      Y:     0.0000      Z:     0.1288

  Dipole Moment: [e a0]
     X:     0.0000      Y:     0.0000      Z:    -0.3411     Total:     0.3411

  Dipole Moment: [D]
     X:     0.0000      Y:     0.0000      Z:    -0.8670     Total:     0.8670


*** tstop() called on bp1-compute00048.data.bp.acrc.priv at Tue Apr 27 16:46:06 2021
Module time:
	user time   =      64.45 seconds =       1.07 minutes
	system time =       2.16 seconds =       0.04 minutes
	total time  =          3 seconds =       0.05 minutes
Total time:
	user time   =     329.85 seconds =       5.50 minutes
	system time =      16.29 seconds =       0.27 minutes
	total time  =         15 seconds =       0.25 minutes

  //>>>>>>>>>>>>>>>>>>>>>>>>>>>>>>>>>>>//
  //    Loading displacement 2 of 3    //
  //<<<<<<<<<<<<<<<<<<<<<<<<<<<<<<<<<<<//

*** tstart() called on bp1-compute00048.data.bp.acrc.priv
*** at Tue Apr 27 16:46:06 2021

   => Loading Basis Set <=

    Name: AUG-CC-PV(Q+D)Z
    Role: ORBITAL
    Keyword: BASIS
    atoms 1 entry CL         line  1246 file /work/zw18965/.conda/envs/p4env/share/psi4/basis/aug-cc-pv_qpd_z.gbs 
    atoms 2 entry F          line   499 file /work/zw18965/.conda/envs/p4env/share/psi4/basis/aug-cc-pv_qpd_z.gbs 


         ---------------------------------------------------------
                                   SCF
               by Justin Turney, Rob Parrish, Andy Simmonett
                          and Daniel G. A. Smith
                              RKS Reference
                       24 Threads, 137329 MiB Core
         ---------------------------------------------------------

  ==> Geometry <==

    Molecular point group: c2v
    Full point group: C_inf_v

    Geometry (in Angstrom), charge = 0, multiplicity = 1:

       Center              X                  Y                   Z               Mass       
    ------------   -----------------  -----------------  -----------------  -----------------
         CL           0.000000000000     0.000000000000    -0.572727172382    34.968852682000
         F            0.000000000000     0.000000000000     1.054173445340    18.998403162730

  Running in c2v symmetry.

  Rotational constants: A = ************  B =      0.51738  C =      0.51738 [cm^-1]
  Rotational constants: A = ************  B =  15510.54306  C =  15510.54306 [MHz]
  Nuclear repulsion =   49.765862985469028

  Charge       = 0
  Multiplicity = 1
  Electrons    = 26
  Nalpha       = 13
  Nbeta        = 13

  ==> Algorithm <==

  SCF Algorithm Type is DF.
  DIIS enabled.
  MOM disabled.
  Fractional occupation disabled.
  Guess Type is READ.
  Energy threshold   = 1.00e-08
  Density threshold  = 1.00e-08
  Integral threshold = 0.00e+00

  ==> Primary Basis <==

  Basis Set: AUG-CC-PV(Q+D)Z
    Blend: AUG-CC-PV(Q+D)Z
    Number of shells: 43
    Number of basis function: 169
    Number of Cartesian functions: 220
    Spherical Harmonics?: true
    Max angular momentum: 4

  ==> DFT Potential <==

   => Composite Functional: WB97M-V <= 

    wB97M-V Hyb-GGA Exchange-Correlation Functional

    N. Mardirossian and M. Head-Gordon, J. Chem. Phys. 144, 214110 (2016)

    Deriv               =              1
    GGA                 =           TRUE
    Meta                =           TRUE

    Exchange Hybrid     =           TRUE
    MP2 Hybrid          =          FALSE

   => Exchange-Correlation Functionals <=

    1.0000   wB97M-V exchange-correlation functional

   => Exact (HF) Exchange <=

    0.8500            HF,LR [omega = 0.3000]
    0.1500               HF 

   => VV10 Non-Local Parameters <=

    VV10 B              =     6.0000E+00
    VV10 C              =     1.0000E-02

   => Molecular Quadrature <=

    Radial Scheme          =       TREUTLER
    Pruning Scheme         =           FLAT
    Nuclear Scheme         =       TREUTLER

    BS radius alpha        =              1
    Pruning alpha          =              1
    Radial Points          =             75
    Spherical Points       =            302
    Total Points           =          45099
    Total Blocks           =            422
    Max Points             =            256
    Max Functions          =            169

   => Loading Basis Set <=

    Name: (AUG-CC-PV(Q+D)Z AUX)
    Role: JKFIT
    Keyword: DF_BASIS_SCF
    atoms 1 entry CL         line   904 file /work/zw18965/.conda/envs/p4env/share/psi4/basis/aug-cc-pvqz-jkfit.gbs 
    atoms 2 entry F          line   388 file /work/zw18965/.conda/envs/p4env/share/psi4/basis/aug-cc-pvqz-jkfit.gbs 

   => Loading Basis Set <=

    Name: AUG-CC-PV(Q+D)Z
    Role: ORBITAL
    Keyword: BASIS
    atoms 1 entry CL         line  1246 file /work/zw18965/.conda/envs/p4env/share/psi4/basis/aug-cc-pv_qpd_z.gbs 
    atoms 2 entry F          line   499 file /work/zw18965/.conda/envs/p4env/share/psi4/basis/aug-cc-pv_qpd_z.gbs 

  Reading orbitals from file 180, no projection.

  ==> Pre-Iterations <==

   -------------------------------------------------------
    Irrep   Nso     Nmo     Nalpha   Nbeta   Ndocc  Nsocc
   -------------------------------------------------------
     A1        66      66       0       0       0       0
     A2        23      23       0       0       0       0
     B1        40      40       0       0       0       0
     B2        40      40       0       0       0       0
   -------------------------------------------------------
    Total     169     169      13      13      13       0
   -------------------------------------------------------

  ==> Integral Setup <==

  ==> DiskDFJK: Density-Fitted J/K Matrices <==

    J tasked:                  Yes
    K tasked:                  Yes
    wK tasked:                 Yes
    Omega:               3.000E-01
    OpenMP threads:             24
    Integrals threads:          24
    Memory [MiB]:           102507
    Algorithm:                Core
    Integral Cache:           NONE
    Schwarz Cutoff:          1E-12
    Fitting Condition:       1E-10

   => Auxiliary Basis Set <=

  Basis Set: (AUG-CC-PV(Q+D)Z AUX)
    Blend: AUG-CC-PVQZ-JKFIT
    Number of shells: 80
    Number of basis function: 326
    Number of Cartesian functions: 445
    Spherical Harmonics?: true
    Max angular momentum: 5

  Cached 100.0% of DFT collocation blocks in 0.478 [GiB].

  Minimum eigenvalue in the overlap matrix is 2.7755694311E-04.
  Using Symmetric Orthogonalization.

  SCF Guess: Orbitals guess was supplied from a previous computation.

  ==> Iterations <==

                           Total Energy        Delta E     RMS |[F,P]|

   @DF-RKS iter   0:  -559.98767715449935   -5.59988e+02   2.25761e-05 
   @DF-RKS iter   1:  -559.98787034747215   -1.93193e-04   4.16261e-06 DIIS
   @DF-RKS iter   2:  -559.98787037835893   -3.08868e-08   2.47885e-06 DIIS
   @DF-RKS iter   3:  -559.98787039029207   -1.19331e-08   4.41966e-07 DIIS
   @DF-RKS iter   4:  -559.98787039073386   -4.41787e-10   1.89329e-07 DIIS
   @DF-RKS iter   5:  -559.98787039085880   -1.24942e-10   3.38806e-08 DIIS
   @DF-RKS iter   6:  -559.98787039086369   -4.88853e-12   7.44849e-09 DIIS
  Energy and wave function converged.


  ==> Post-Iterations <==

    Orbital Energies [Eh]
    ---------------------

    Doubly Occupied:                                                      

       1A1  -101.979673     2A1   -24.959006     3A1    -9.731104  
       4A1    -7.442000     1B2    -7.425554     1B1    -7.425554  
       5A1    -1.380983     6A1    -0.961290     7A1    -0.643375  
       2B1    -0.607543     2B2    -0.607543     3B2    -0.436299  
       3B1    -0.436299  

    Virtual:                                                              

       8A1    -0.031007     9A1     0.050396     4B1     0.069626  
       4B2     0.069626    10A1     0.077242    11A1     0.153273  
       5B1     0.171411     5B2     0.171411    12A1     0.209584  
       1A2     0.209584     6B2     0.274294     6B1     0.274294  
      13A1     0.293414    14A1     0.297564     7B1     0.406684  
       7B2     0.406684    15A1     0.411917    16A1     0.520580  
       2A2     0.520583     8B2     0.534152     8B1     0.534152  
      17A1     0.558161    18A1     0.611557     3A2     0.611557  
      19A1     0.672363     9B2     0.735299     9B1     0.735299  
      10B2     0.737583    10B1     0.737583    20A1     0.803958  
      11B2     0.844764    11B1     0.844764     4A2     0.869163  
      21A1     0.869170    22A1     0.920237    12B1     1.042455  
      12B2     1.042455    23A1     1.055799    24A1     1.309023  
      25A1     1.379322     5A2     1.379329    13B1     1.448403  
      13B2     1.448403    26A1     1.456310    14B2     1.603124  
      14B1     1.603124    15B2     1.630562    15B1     1.630562  
      27A1     1.637765     6A2     1.637767    16B2     1.675981  
      16B1     1.675981    28A1     1.714463     7A2     1.714471  
      17B2     1.854459    17B1     1.854459    29A1     1.883542  
      30A1     1.907915     8A2     1.907923    18B1     1.986583  
      18B2     1.986583    31A1     1.987540     9A2     2.001664  
      32A1     2.001679    19B1     2.040712    19B2     2.040712  
      33A1     2.265746    20B2     2.302519    20B1     2.302519  
      34A1     2.314345    10A2     2.445405    35A1     2.445414  
      36A1     2.625835    21B1     2.758340    21B2     2.758340  
      37A1     2.839799    22B1     3.334790    22B2     3.334790  
      11A2     3.405348    38A1     3.405366    39A1     3.429744  
      23B1     3.644749    23B2     3.644749    40A1     4.078181  
      24B1     4.085757    24B2     4.085757    41A1     4.174989  
      12A2     4.174990    25B2     4.316016    25B1     4.316016  
      26B2     4.356645    26B1     4.356645    42A1     4.370051  
      13A2     4.370075    14A2     4.371121    43A1     4.371196  
      44A1     4.458079    45A1     4.493975    15A2     4.494195  
      27B1     4.613070    27B2     4.613070    28B2     4.637529  
      28B1     4.637529    46A1     5.009635    47A1     5.109413  
      16A2     5.159149    48A1     5.159174    29B1     5.250458  
      29B2     5.250458    30B1     5.266581    30B2     5.266581  
      49A1     5.335323    17A2     5.464928    50A1     5.464999  
      18A2     5.559959    51A1     5.559964    31B1     5.648909  
      31B2     5.648909    52A1     5.894047    32B1     6.103176  
      32B2     6.103176    33B1     6.510801    33B2     6.510801  
      53A1     6.531331    54A1     7.834362    19A2    10.780041  
      55A1    10.780090    34B1    10.940492    34B2    10.940492  
      56A1    11.171928    35B1    12.616772    35B2    12.616772  
      57A1    13.199119    20A2    13.199883    36B1    13.233880  
      36B2    13.233880    58A1    13.418414    21A2    13.418562  
      59A1    13.600011    37B2    13.602607    37B1    13.602607  
      60A1    13.870202    38B1    15.311859    38B2    15.311859  
      61A1    15.433801    22A2    15.434012    39B1    15.575650  
      39B2    15.575650    62A1    15.752636    23A2    16.192050  
      63A1    16.192218    40B2    16.673560    40B1    16.673560  
      64A1    16.883485    65A1    24.275339    66A1    53.403699  

    Final Occupation by Irrep:
             A1    A2    B1    B2 
    DOCC [     7,    0,    3,    3 ]

  @DF-RKS Final Energy:  -559.98787039086369

   => Energetics <=

    Nuclear Repulsion Energy =             49.7658629854690275
    One-Electron Energy =                -872.9640288020999606
    Two-Electron Energy =                 292.6184883674505954
    DFT Exchange-Correlation Energy =     -29.5180398921067528
    Empirical Dispersion Energy =           0.0000000000000000
    VV10 Nonlocal Energy =                  0.1098469504234363
    Total Energy =                       -559.9878703908638045

Computation Completed


Properties will be evaluated at   0.000000,   0.000000,   0.000000 [a0]

Properties computed using the SCF density matrix

  Nuclear Dipole Moment: [e a0]
     X:     0.0000      Y:     0.0000      Z:    -0.4702

  Electronic Dipole Moment: [e a0]
     X:     0.0000      Y:     0.0000      Z:     0.1281

  Dipole Moment: [e a0]
     X:     0.0000      Y:     0.0000      Z:    -0.3420     Total:     0.3420

  Dipole Moment: [D]
     X:     0.0000      Y:     0.0000      Z:    -0.8694     Total:     0.8694


*** tstop() called on bp1-compute00048.data.bp.acrc.priv at Tue Apr 27 16:46:10 2021
Module time:
	user time   =      64.67 seconds =       1.08 minutes
	system time =       2.81 seconds =       0.05 minutes
	total time  =          4 seconds =       0.07 minutes
Total time:
	user time   =     394.66 seconds =       6.58 minutes
	system time =      19.11 seconds =       0.32 minutes
	total time  =         19 seconds =       0.32 minutes

  //>>>>>>>>>>>>>>>>>>>>>>>>>>>>>>>>>>>//
  //    Loading displacement 3 of 3    //
  //<<<<<<<<<<<<<<<<<<<<<<<<<<<<<<<<<<<//

*** tstart() called on bp1-compute00048.data.bp.acrc.priv
*** at Tue Apr 27 16:46:10 2021

   => Loading Basis Set <=

    Name: AUG-CC-PV(Q+D)Z
    Role: ORBITAL
    Keyword: BASIS
    atoms 1 entry CL         line  1246 file /work/zw18965/.conda/envs/p4env/share/psi4/basis/aug-cc-pv_qpd_z.gbs 
    atoms 2 entry F          line   499 file /work/zw18965/.conda/envs/p4env/share/psi4/basis/aug-cc-pv_qpd_z.gbs 


         ---------------------------------------------------------
                                   SCF
               by Justin Turney, Rob Parrish, Andy Simmonett
                          and Daniel G. A. Smith
                              RKS Reference
                       24 Threads, 137329 MiB Core
         ---------------------------------------------------------

  ==> Geometry <==

    Molecular point group: c2v
    Full point group: C_inf_v

    Geometry (in Angstrom), charge = 0, multiplicity = 1:

       Center              X                  Y                   Z               Mass       
    ------------   -----------------  -----------------  -----------------  -----------------
         CL           0.000000000000     0.000000000000    -0.572196222140    34.968852682000
         F            0.000000000000     0.000000000000     1.053196167374    18.998403162730

  Running in c2v symmetry.

  Rotational constants: A = ************  B =      0.51834  C =      0.51834 [cm^-1]
  Rotational constants: A = ************  B =  15539.34138  C =  15539.34138 [MHz]
  Nuclear repulsion =   49.812041544457784

  Charge       = 0
  Multiplicity = 1
  Electrons    = 26
  Nalpha       = 13
  Nbeta        = 13

  ==> Algorithm <==

  SCF Algorithm Type is DF.
  DIIS enabled.
  MOM disabled.
  Fractional occupation disabled.
  Guess Type is READ.
  Energy threshold   = 1.00e-08
  Density threshold  = 1.00e-08
  Integral threshold = 0.00e+00

  ==> Primary Basis <==

  Basis Set: AUG-CC-PV(Q+D)Z
    Blend: AUG-CC-PV(Q+D)Z
    Number of shells: 43
    Number of basis function: 169
    Number of Cartesian functions: 220
    Spherical Harmonics?: true
    Max angular momentum: 4

  ==> DFT Potential <==

   => Composite Functional: WB97M-V <= 

    wB97M-V Hyb-GGA Exchange-Correlation Functional

    N. Mardirossian and M. Head-Gordon, J. Chem. Phys. 144, 214110 (2016)

    Deriv               =              1
    GGA                 =           TRUE
    Meta                =           TRUE

    Exchange Hybrid     =           TRUE
    MP2 Hybrid          =          FALSE

   => Exchange-Correlation Functionals <=

    1.0000   wB97M-V exchange-correlation functional

   => Exact (HF) Exchange <=

    0.8500            HF,LR [omega = 0.3000]
    0.1500               HF 

   => VV10 Non-Local Parameters <=

    VV10 B              =     6.0000E+00
    VV10 C              =     1.0000E-02

   => Molecular Quadrature <=

    Radial Scheme          =       TREUTLER
    Pruning Scheme         =           FLAT
    Nuclear Scheme         =       TREUTLER

    BS radius alpha        =              1
    Pruning alpha          =              1
    Radial Points          =             75
    Spherical Points       =            302
    Total Points           =          45099
    Total Blocks           =            423
    Max Points             =            256
    Max Functions          =            169

   => Loading Basis Set <=

    Name: (AUG-CC-PV(Q+D)Z AUX)
    Role: JKFIT
    Keyword: DF_BASIS_SCF
    atoms 1 entry CL         line   904 file /work/zw18965/.conda/envs/p4env/share/psi4/basis/aug-cc-pvqz-jkfit.gbs 
    atoms 2 entry F          line   388 file /work/zw18965/.conda/envs/p4env/share/psi4/basis/aug-cc-pvqz-jkfit.gbs 

   => Loading Basis Set <=

    Name: AUG-CC-PV(Q+D)Z
    Role: ORBITAL
    Keyword: BASIS
    atoms 1 entry CL         line  1246 file /work/zw18965/.conda/envs/p4env/share/psi4/basis/aug-cc-pv_qpd_z.gbs 
    atoms 2 entry F          line   499 file /work/zw18965/.conda/envs/p4env/share/psi4/basis/aug-cc-pv_qpd_z.gbs 

  Reading orbitals from file 180, no projection.

  ==> Pre-Iterations <==

   -------------------------------------------------------
    Irrep   Nso     Nmo     Nalpha   Nbeta   Ndocc  Nsocc
   -------------------------------------------------------
     A1        66      66       0       0       0       0
     A2        23      23       0       0       0       0
     B1        40      40       0       0       0       0
     B2        40      40       0       0       0       0
   -------------------------------------------------------
    Total     169     169      13      13      13       0
   -------------------------------------------------------

  ==> Integral Setup <==

  ==> DiskDFJK: Density-Fitted J/K Matrices <==

    J tasked:                  Yes
    K tasked:                  Yes
    wK tasked:                 Yes
    Omega:               3.000E-01
    OpenMP threads:             24
    Integrals threads:          24
    Memory [MiB]:           102507
    Algorithm:                Core
    Integral Cache:           NONE
    Schwarz Cutoff:          1E-12
    Fitting Condition:       1E-10

   => Auxiliary Basis Set <=

  Basis Set: (AUG-CC-PV(Q+D)Z AUX)
    Blend: AUG-CC-PVQZ-JKFIT
    Number of shells: 80
    Number of basis function: 326
    Number of Cartesian functions: 445
    Spherical Harmonics?: true
    Max angular momentum: 5

  Cached 100.0% of DFT collocation blocks in 0.478 [GiB].

  Minimum eigenvalue in the overlap matrix is 2.7671752529E-04.
  Using Symmetric Orthogonalization.

  SCF Guess: Orbitals guess was supplied from a previous computation.

  ==> Iterations <==

                           Total Energy        Delta E     RMS |[F,P]|

   @DF-RKS iter   0:  -559.98806907644291   -5.59988e+02   2.26195e-05 
   @DF-RKS iter   1:  -559.98787478713609    1.94289e-04   4.16535e-06 DIIS
   @DF-RKS iter   2:  -559.98787481806937   -3.09333e-08   2.47975e-06 DIIS
   @DF-RKS iter   3:  -559.98787483000319   -1.19338e-08   4.42010e-07 DIIS
   @DF-RKS iter   4:  -559.98787483044532   -4.42128e-10   1.89291e-07 DIIS
   @DF-RKS iter   5:  -559.98787483056981   -1.24487e-10   3.38753e-08 DIIS
   @DF-RKS iter   6:  -559.98787483057470   -4.88853e-12   7.45705e-09 DIIS
  Energy and wave function converged.


  ==> Post-Iterations <==

    Orbital Energies [Eh]
    ---------------------

    Doubly Occupied:                                                      

       1A1  -101.979550     2A1   -24.959069     3A1    -9.730998  
       4A1    -7.441891     1B2    -7.425447     1B1    -7.425447  
       5A1    -1.381544     6A1    -0.961180     7A1    -0.643654  
       2B2    -0.607886     2B1    -0.607886     3B2    -0.436112  
       3B1    -0.436112  

    Virtual:                                                              

       8A1    -0.030498     9A1     0.050385     4B1     0.069623  
       4B2     0.069623    10A1     0.077349    11A1     0.153301  
       5B1     0.171388     5B2     0.171388    12A1     0.209594  
       1A2     0.209594     6B2     0.274390     6B1     0.274390  
      13A1     0.293359    14A1     0.297687     7B1     0.406627  
       7B2     0.406627    15A1     0.411895    16A1     0.520583  
       2A2     0.520585     8B2     0.534306     8B1     0.534306  
      17A1     0.558245    18A1     0.611621     3A2     0.611622  
      19A1     0.672723     9B1     0.735215     9B2     0.735215  
      10B2     0.737600    10B1     0.737600    20A1     0.804185  
      11B1     0.844977    11B2     0.844977     4A2     0.869307  
      21A1     0.869314    22A1     0.920012    12B1     1.042201  
      12B2     1.042201    23A1     1.055861    24A1     1.309161  
      25A1     1.379386     5A2     1.379393    13B1     1.448353  
      13B2     1.448353    26A1     1.456276    14B1     1.603122  
      14B2     1.603122    15B1     1.631140    15B2     1.631140  
      27A1     1.637712     6A2     1.637714    16B1     1.676287  
      16B2     1.676287    28A1     1.714491     7A2     1.714498  
      17B2     1.854502    17B1     1.854502    29A1     1.883949  
      30A1     1.908186     8A2     1.908194    18B1     1.986997  
      18B2     1.986997    31A1     1.987838     9A2     2.001881  
      32A1     2.001895    19B1     2.041005    19B2     2.041005  
      33A1     2.265766    20B1     2.303084    20B2     2.303084  
      34A1     2.314832    10A2     2.446359    35A1     2.446368  
      36A1     2.627686    21B1     2.757330    21B2     2.757330  
      37A1     2.840009    22B1     3.335503    22B2     3.335503  
      11A2     3.405404    38A1     3.405423    39A1     3.429400  
      23B2     3.646638    23B1     3.646638    40A1     4.078103  
      24B1     4.085771    24B2     4.085771    41A1     4.174338  
      12A2     4.174340    25B1     4.315967    25B2     4.315967  
      26B1     4.356296    26B2     4.356296    42A1     4.370498  
      13A2     4.370522    14A2     4.371188    43A1     4.371263  
      44A1     4.459411    45A1     4.493803    15A2     4.494023  
      27B1     4.613894    27B2     4.613894    28B1     4.638565  
      28B2     4.638565    46A1     5.010823    47A1     5.112334  
      16A2     5.161078    48A1     5.161102    29B1     5.250516  
      29B2     5.250516    30B1     5.266656    30B2     5.266656  
      49A1     5.337033    17A2     5.465469    50A1     5.465540  
      18A2     5.561043    51A1     5.561048    31B1     5.649339  
      31B2     5.649339    52A1     5.891401    32B1     6.104833  
      32B2     6.104833    33B1     6.514331    33B2     6.514331  
      53A1     6.536315    54A1     7.836234    19A2    10.780193  
      55A1    10.780242    34B2    10.940804    34B1    10.940804  
      56A1    11.173832    35B2    12.618437    35B1    12.618437  
      57A1    13.198941    20A2    13.199696    36B1    13.233953  
      36B2    13.233953    58A1    13.419100    21A2    13.419247  
      59A1    13.599688    37B2    13.602686    37B1    13.602686  
      60A1    13.874432    38B2    15.311802    38B1    15.311802  
      61A1    15.434027    22A2    15.434238    39B1    15.576288  
      39B2    15.576288    62A1    15.754830    23A2    16.192280  
      63A1    16.192447    40B1    16.674884    40B2    16.674884  
      64A1    16.883423    65A1    24.284127    66A1    53.407572  

    Final Occupation by Irrep:
             A1    A2    B1    B2 
    DOCC [     7,    0,    3,    3 ]

  @DF-RKS Final Energy:  -559.98787483057470

   => Energetics <=

    Nuclear Repulsion Energy =             49.8120415444577844
    One-Electron Energy =                -873.0549441658527030
    Two-Electron Energy =                 292.6638056737963893
    DFT Exchange-Correlation Energy =     -29.5186222994201941
    Empirical Dispersion Energy =           0.0000000000000000
    VV10 Nonlocal Energy =                  0.1098444164440200
    Total Energy =                       -559.9878748305746967

Computation Completed


Properties will be evaluated at   0.000000,   0.000000,   0.000000 [a0]

Properties computed using the SCF density matrix

  Nuclear Dipole Moment: [e a0]
     X:     0.0000      Y:     0.0000      Z:    -0.4697

  Electronic Dipole Moment: [e a0]
     X:     0.0000      Y:     0.0000      Z:     0.1296

  Dipole Moment: [e a0]
     X:     0.0000      Y:     0.0000      Z:    -0.3402     Total:     0.3402

  Dipole Moment: [D]
     X:     0.0000      Y:     0.0000      Z:    -0.8646     Total:     0.8646


*** tstop() called on bp1-compute00048.data.bp.acrc.priv at Tue Apr 27 16:46:12 2021
Module time:
	user time   =      60.23 seconds =       1.00 minutes
	system time =       2.20 seconds =       0.04 minutes
	total time  =          2 seconds =       0.03 minutes
Total time:
	user time   =     455.04 seconds =       7.58 minutes
	system time =      21.31 seconds =       0.36 minutes
	total time  =         21 seconds =       0.35 minutes

         ----------------------------------------------------------
                                   FINDIF
                     R. A. King and Jonathon Misiewicz
         ---------------------------------------------------------

  Computing gradient from energies.
    Using 3-point formula.
    Energy without displacement: -559.9878729296
    Check energies below for precision!
[...]
     X:     0.0000      Y:     0.0000      Z:    -0.4694

  Electronic Dipole Moment: [e a0]
     X:     0.0000      Y:     0.0000      Z:     0.1307

  Dipole Moment: [e a0]
     X:     0.0000      Y:     0.0000      Z:    -0.3387     Total:     0.3387

  Dipole Moment: [D]
     X:     0.0000      Y:     0.0000      Z:    -0.8609     Total:     0.8609


*** tstop() called on bp1-compute00048.data.bp.acrc.priv at Tue Apr 27 16:46:41 2021
Module time:
	user time   =      89.11 seconds =       1.49 minutes
	system time =       2.58 seconds =       0.04 minutes
	total time  =          4 seconds =       0.07 minutes
Total time:
	user time   =    1071.62 seconds =      17.86 minutes
	system time =      41.32 seconds =       0.69 minutes
	total time  =         50 seconds =       0.83 minutes

  //>>>>>>>>>>>>>>>>>>>>>>>>>>>>>>>>>>>//
  //    Loading displacement 3 of 3    //
  //<<<<<<<<<<<<<<<<<<<<<<<<<<<<<<<<<<<//

*** tstart() called on bp1-compute00048.data.bp.acrc.priv
*** at Tue Apr 27 16:46:41 2021

   => Loading Basis Set <=

    Name: AUG-CC-PV(Q+D)Z
    Role: ORBITAL
    Keyword: BASIS
    atoms 1 entry CL         line  1246 file /work/zw18965/.conda/envs/p4env/share/psi4/basis/aug-cc-pv_qpd_z.gbs 
    atoms 2 entry F          line   499 file /work/zw18965/.conda/envs/p4env/share/psi4/basis/aug-cc-pv_qpd_z.gbs 


         ---------------------------------------------------------
                                   SCF
               by Justin Turney, Rob Parrish, Andy Simmonett
                          and Daniel G. A. Smith
                              RKS Reference
                       24 Threads, 137329 MiB Core
         ---------------------------------------------------------

  ==> Geometry <==

    Molecular point group: c2v
    Full point group: C_inf_v

    Geometry (in Angstrom), charge = 0, multiplicity = 1:

       Center              X                  Y                   Z               Mass       
    ------------   -----------------  -----------------  -----------------  -----------------
         CL           0.000000000000     0.000000000000    -0.571260474799    34.968852682000
         F            0.000000000000     0.000000000000     1.051473811519    18.998403162730

  Running in c2v symmetry.

  Rotational constants: A = ************  B =      0.52004  C =      0.52004 [cm^-1]
  Rotational constants: A = ************  B =  15590.29120  C =  15590.29120 [MHz]
  Nuclear repulsion =   49.893635646415547

  Charge       = 0
  Multiplicity = 1
  Electrons    = 26
  Nalpha       = 13
  Nbeta        = 13

  ==> Algorithm <==

  SCF Algorithm Type is DF.
  DIIS enabled.
  MOM disabled.
  Fractional occupation disabled.
  Guess Type is SAD.
  Energy threshold   = 1.00e-10
  Density threshold  = 1.00e-10
  Integral threshold = 0.00e+00

  ==> Primary Basis <==

  Basis Set: AUG-CC-PV(Q+D)Z
    Blend: AUG-CC-PV(Q+D)Z
    Number of shells: 43
    Number of basis function: 169
    Number of Cartesian functions: 220
    Spherical Harmonics?: true
    Max angular momentum: 4

  ==> DFT Potential <==

   => Composite Functional: WB97M-V <= 

    wB97M-V Hyb-GGA Exchange-Correlation Functional

    N. Mardirossian and M. Head-Gordon, J. Chem. Phys. 144, 214110 (2016)

    Deriv               =              1
    GGA                 =           TRUE
    Meta                =           TRUE

    Exchange Hybrid     =           TRUE
    MP2 Hybrid          =          FALSE

   => Exchange-Correlation Functionals <=

    1.0000   wB97M-V exchange-correlation functional

   => Exact (HF) Exchange <=

    0.8500            HF,LR [omega = 0.3000]
    0.1500               HF 

   => VV10 Non-Local Parameters <=

    VV10 B              =     6.0000E+00
    VV10 C              =     1.0000E-02

   => Molecular Quadrature <=

    Radial Scheme          =       TREUTLER
    Pruning Scheme         =           FLAT
    Nuclear Scheme         =       TREUTLER

    BS radius alpha        =              1
    Pruning alpha          =              1
    Radial Points          =             75
    Spherical Points       =            302
    Total Points           =          45099
    Total Blocks           =            422
    Max Points             =            256
    Max Functions          =            169

   => Loading Basis Set <=

    Name: (AUG-CC-PV(Q+D)Z AUX)
    Role: JKFIT
    Keyword: DF_BASIS_SCF
    atoms 1 entry CL         line   904 file /work/zw18965/.conda/envs/p4env/share/psi4/basis/aug-cc-pvqz-jkfit.gbs 
    atoms 2 entry F          line   388 file /work/zw18965/.conda/envs/p4env/share/psi4/basis/aug-cc-pvqz-jkfit.gbs 

  ==> Pre-Iterations <==

   -------------------------------------------------------
    Irrep   Nso     Nmo     Nalpha   Nbeta   Ndocc  Nsocc
   -------------------------------------------------------
     A1        66      66       0       0       0       0
     A2        23      23       0       0       0       0
     B1        40      40       0       0       0       0
     B2        40      40       0       0       0       0
   -------------------------------------------------------
    Total     169     169      13      13      13       0
   -------------------------------------------------------

  ==> Integral Setup <==

  ==> DiskDFJK: Density-Fitted J/K Matrices <==

    J tasked:                  Yes
    K tasked:                  Yes
    wK tasked:                 Yes
    Omega:               3.000E-01
    OpenMP threads:             24
    Integrals threads:          24
    Memory [MiB]:           102506
    Algorithm:                Core
    Integral Cache:           NONE
    Schwarz Cutoff:          1E-12
    Fitting Condition:       1E-10

   => Auxiliary Basis Set <=

  Basis Set: (AUG-CC-PV(Q+D)Z AUX)
    Blend: AUG-CC-PVQZ-JKFIT
    Number of shells: 80
    Number of basis function: 326
    Number of Cartesian functions: 445
    Spherical Harmonics?: true
    Max angular momentum: 5

  Cached 100.0% of DFT collocation blocks in 0.478 [GiB].

  Minimum eigenvalue in the overlap matrix is 2.7524270935E-04.
  Using Symmetric Orthogonalization.

  SCF Guess: Superposition of Atomic Densities via on-the-fly atomic UHF.

  ==> Iterations <==

                           Total Energy        Delta E     RMS |[F,P]|

   @DF-RKS iter SAD:  -559.75098343369598   -5.59751e+02   0.00000e+00 
   @DF-RKS iter   1:  -559.96408477125840   -2.13101e-01   3.12322e-03 DIIS
   @DF-RKS iter   2:  -559.97775232524430   -1.36676e-02   2.25429e-03 DIIS
   @DF-RKS iter   3:  -559.98673988284577   -8.98756e-03   6.99149e-04 DIIS
   @DF-RKS iter   4:  -559.98781813201253   -1.07825e-03   1.11748e-04 DIIS
   @DF-RKS iter   5:  -559.98787099890023   -5.28669e-05   3.45980e-05 DIIS
   @DF-RKS iter   6:  -559.98787600392336   -5.00502e-06   6.26929e-06 DIIS
   @DF-RKS iter   7:  -559.98787637698058   -3.73057e-07   1.59795e-06 DIIS
   @DF-RKS iter   8:  -559.98787639572129   -1.87407e-08   4.66369e-07 DIIS
   @DF-RKS iter   9:  -559.98787639680950   -1.08821e-09   4.29315e-08 DIIS
   @DF-RKS iter  10:  -559.98787639682666   -1.71667e-11   5.54985e-09 DIIS
   @DF-RKS iter  11:  -559.98787639682803   -1.36424e-12   9.99427e-10 DIIS
   @DF-RKS iter  12:  -559.98787639682769    3.41061e-13   7.19800e-11 DIIS
  Energy and wave function converged.


  ==> Post-Iterations <==

    Orbital Energies [Eh]
    ---------------------

    Doubly Occupied:                                                      

       1A1  -101.979331     2A1   -24.959179     3A1    -9.730811  
       4A1    -7.441700     1B2    -7.425258     1B1    -7.425258  
       5A1    -1.382538     6A1    -0.960987     7A1    -0.644145  
       2B1    -0.608494     2B2    -0.608494     3B1    -0.435781  
       3B2    -0.435781  

    Virtual:                                                              

       8A1    -0.029603     9A1     0.050366     4B1     0.069618  
       4B2     0.069618    10A1     0.077539    11A1     0.153350  
       5B1     0.171347     5B2     0.171347    12A1     0.209611  
       1A2     0.209611     6B1     0.274559     6B2     0.274559  
      13A1     0.293262    14A1     0.297905     7B1     0.406524  
       7B2     0.406524    15A1     0.411856    16A1     0.520587  
       2A2     0.520589     8B1     0.534580     8B2     0.534580  
      17A1     0.558392    18A1     0.611736     3A2     0.611736  
      19A1     0.673363     9B2     0.735068     9B1     0.735068  
      10B2     0.737631    10B1     0.737631    20A1     0.804586  
      11B1     0.845350    11B2     0.845350     4A2     0.869561  
      21A1     0.869567    22A1     0.919615    12B1     1.041750  
      12B2     1.041750    23A1     1.055974    24A1     1.309407  
      25A1     1.379499     5A2     1.379506    13B1     1.448265  
      13B2     1.448265    26A1     1.456215    14B1     1.603119  
      14B2     1.603119    15B1     1.632160    15B2     1.632160  
      27A1     1.637616     6A2     1.637618    16B1     1.676832  
      16B2     1.676832    28A1     1.714540     7A2     1.714546  
      17B1     1.854577    17B2     1.854577    29A1     1.884670  
      30A1     1.908664     8A2     1.908672    18B1     1.987726  
      18B2     1.987726    31A1     1.988360     9A2     2.002263  
      32A1     2.002278    19B1     2.041522    19B2     2.041522  
      33A1     2.265694    20B1     2.304083    20B2     2.304083  
      34A1     2.315787    10A2     2.448042    35A1     2.448052  
      36A1     2.630913    21B1     2.755539    21B2     2.755539  
      37A1     2.840427    22B1     3.336756    22B2     3.336756  
      11A2     3.405505    38A1     3.405525    39A1     3.428826  
      23B2     3.649978    23B1     3.649978    40A1     4.077972  
      24B1     4.085812    24B2     4.085812    41A1     4.173197  
      12A2     4.173199    25B1     4.315874    25B2     4.315874  
      26B1     4.355677    26B2     4.355677    42A1     4.371292  
      13A2     4.371308    14A2     4.371317    43A1     4.371384  
      44A1     4.461741    45A1     4.493497    15A2     4.493716  
      27B1     4.615362    27B2     4.615362    28B1     4.640393  
      28B2     4.640393    46A1     5.012831    47A1     5.117561  
      16A2     5.164459    48A1     5.164484    29B1     5.250619  
      29B2     5.250619    30B2     5.266790    30B1     5.266790  
      49A1     5.340062    17A2     5.466447    50A1     5.466516  
      18A2     5.562965    51A1     5.562971    31B1     5.650096  
      31B2     5.650096    52A1     5.886769    32B2     6.107729  
      32B1     6.107729    33B1     6.520581    33B2     6.520581  
      53A1     6.545095    54A1     7.839491    19A2    10.780460  
      55A1    10.780509    34B2    10.941347    34B1    10.941347  
      56A1    11.177222    35B1    12.621401    35B2    12.621401  
      57A1    13.198626    20A2    13.199364    36B2    13.234081  
      36B1    13.234081    58A1    13.420307    21A2    13.420454  
      59A1    13.599104    37B2    13.602811    37B1    13.602811  
      60A1    13.881887    38B2    15.311701    38B1    15.311701  
      61A1    15.434426    22A2    15.434638    39B2    15.577431  
      39B1    15.577431    62A1    15.758737    23A2    16.192690  
      63A1    16.192854    40B1    16.677201    40B2    16.677201  
      64A1    16.883279    65A1    24.299792    66A1    53.414472  

    Final Occupation by Irrep:
             A1    A2    B1    B2 
    DOCC [     7,    0,    3,    3 ]

  @DF-RKS Final Energy:  -559.98787639682769

   => Energetics <=

    Nuclear Repulsion Energy =             49.8936356464155466
    One-Electron Energy =                -873.2155736150366465
    Two-Electron Energy =                 292.7438760839189058
    DFT Exchange-Correlation Energy =     -29.5196544668155489
    Empirical Dispersion Energy =           0.0000000000000000
    VV10 Nonlocal Energy =                  0.1098399546900607
    Total Energy =                       -559.9878763968276871

Computation Completed


Properties will be evaluated at   0.000000,   0.000000,   0.000000 [a0]

Properties computed using the SCF density matrix

  Nuclear Dipole Moment: [e a0]
     X:     0.0000      Y:     0.0000      Z:    -0.4690

  Electronic Dipole Moment: [e a0]
     X:     0.0000      Y:     0.0000      Z:     0.1322

  Dipole Moment: [e a0]
     X:     0.0000      Y:     0.0000      Z:    -0.3368     Total:     0.3368

  Dipole Moment: [D]
     X:     0.0000      Y:     0.0000      Z:    -0.8561     Total:     0.8561


*** tstop() called on bp1-compute00048.data.bp.acrc.priv at Tue Apr 27 16:46:45 2021
Module time:
	user time   =      89.61 seconds =       1.49 minutes
	system time =       2.65 seconds =       0.04 minutes
	total time  =          4 seconds =       0.07 minutes
Total time:
	user time   =    1161.37 seconds =      19.36 minutes
	system time =      43.97 seconds =       0.73 minutes
	total time  =         54 seconds =       0.90 minutes

         ----------------------------------------------------------
                                   FINDIF
                     R. A. King and Jonathon Misiewicz
         ---------------------------------------------------------

  Computing second-derivative from energies using projected, 
  symmetry-adapted, cartesian coordinates.

  3 energies passed in, including the reference geometry.
    Using 3-point formula.
    Energy without displacement: -559.9878767679
    Check energies below for precision!
    0: -1 :      -559.9878764924
    0: 1  :      -559.9878763968

-------------------------------------------------------------


  ==> Harmonic Vibrational Analysis <==

  non-mass-weighted Hessian:       Symmetric? True   Hermitian? True   Lin Dep Dim?  5 (0)
  projection of translations (True) and rotations (True) removed 5 degrees of freedom (5)
  total projector:                 Symmetric? True   Hermitian? True   Lin Dep Dim?  5 (5)
  mass-weighted Hessian:           Symmetric? True   Hermitian? True   Lin Dep Dim?  5 (0)
  pre-proj  low-frequency mode:    0.0000  [cm^-1]
  pre-proj  low-frequency mode:    0.0000  [cm^-1]
  pre-proj  low-frequency mode:    0.0000  [cm^-1]
  pre-proj  low-frequency mode:    0.0000  [cm^-1]
  pre-proj  low-frequency mode:    0.0000  [cm^-1]
  pre-proj  all modes:['0.0000' '0.0000' '0.0000' '0.0000' '0.0000' '826.7158']
  projected mass-weighted Hessian: Symmetric? True   Hermitian? True   Lin Dep Dim?  5 (5)
  post-proj low-frequency mode:    0.0000i [cm^-1] (TR)
  post-proj low-frequency mode:    0.0000  [cm^-1] (TR)
  post-proj low-frequency mode:    0.0000  [cm^-1] (TR)
  post-proj low-frequency mode:    0.0000  [cm^-1] (TR)
  post-proj low-frequency mode:    0.0000  [cm^-1] (TR)
  post-proj  all modes:['0.0000i' '0.0000' '0.0000' '0.0000' '0.0000' '826.7158']

  Vibration                       6           
  Freq [cm^-1]                 826.7158       
  Irrep                           A1          
  Reduced mass [u]             22.6381        
  Force const [mDyne/A]         9.1160        
  Turning point v=0 [a0]        0.0802        
  RMS dev v=0 [a0 u^1/2]        0.2698        
  Char temp [K]               1189.4600       
  ----------------------------------------------------------------------------------
      1   CL               0.00  0.00 -0.48   
      2   F                0.00  0.00  0.88   

  ==> Thermochemistry Components <==

  Entropy, S
    Electronic S            0.000 [cal/(mol K)]        0.000 [J/(mol K)]       0.00000000 [mEh/K] (multiplicity = 1)
    Translational S        37.879 [cal/(mol K)]      158.488 [J/(mol K)]       0.06036475 [mEh/K] (mol. weight = 53.9673 [u], P = 101325.00 [Pa])
    Rotational S           13.888 [cal/(mol K)]       58.106 [J/(mol K)]       0.02213154 [mEh/K] (symmetry no. = 1)
    Vibrational S           0.187 [cal/(mol K)]        0.781 [J/(mol K)]       0.00029742 [mEh/K]
  Total S                  51.954 [cal/(mol K)]      217.375 [J/(mol K)]       0.08279371 [mEh/K]
  Correction S              0.000 [cal/(mol K)]        0.000 [J/(mol K)]       0.00000000 [mEh/K]

  Constant volume heat capacity, Cv
    Electronic Cv           0.000 [cal/(mol K)]        0.000 [J/(mol K)]       0.00000000 [mEh/K]
    Translational Cv        2.981 [cal/(mol K)]       12.472 [J/(mol K)]       0.00475022 [mEh/K]
    Rotational Cv           1.987 [cal/(mol K)]        8.314 [J/(mol K)]       0.00316681 [mEh/K]
    Vibrational Cv          0.608 [cal/(mol K)]        2.543 [J/(mol K)]       0.00096845 [mEh/K]
  Total Cv                  5.576 [cal/(mol K)]       23.329 [J/(mol K)]       0.00888547 [mEh/K]
  Correction Cv             0.000 [cal/(mol K)]        0.000 [J/(mol K)]       0.00000000 [mEh/K]

  Constant pressure heat capacity, Cp
    Electronic Cp           0.000 [cal/(mol K)]        0.000 [J/(mol K)]       0.00000000 [mEh/K]
    Translational Cp        4.968 [cal/(mol K)]       20.786 [J/(mol K)]       0.00791703 [mEh/K]
    Rotational Cp           1.987 [cal/(mol K)]        8.314 [J/(mol K)]       0.00316681 [mEh/K]
    Vibrational Cp          0.608 [cal/(mol K)]        2.543 [J/(mol K)]       0.00096845 [mEh/K]
  Total Cp                  7.563 [cal/(mol K)]       31.643 [J/(mol K)]       0.01205228 [mEh/K]
  Correction Cp             0.000 [cal/(mol K)]        0.000 [J/(mol K)]       0.00000000 [mEh/K]

  ==> Thermochemistry Energy Analysis <==

  Raw electronic energy, E0
  Total E0, Electronic energy at well bottom at 0 [K]                 -559.98787677 [Eh]

  Zero-point energy, ZPE_vib = Sum_i nu_i / 2
    Electronic ZPE          0.000 [kcal/mol]        0.000 [kJ/mol]       0.00000000 [Eh]
    Translational ZPE       0.000 [kcal/mol]        0.000 [kJ/mol]       0.00000000 [Eh]
    Rotational ZPE          0.000 [kcal/mol]        0.000 [kJ/mol]       0.00000000 [Eh]
    Vibrational ZPE         1.182 [kcal/mol]        4.945 [kJ/mol]       0.00188340 [Eh]         413.358 [cm^-1]
  Correction ZPE            1.182 [kcal/mol]        4.945 [kJ/mol]       0.00188340 [Eh]         413.358 [cm^-1]
  Total ZPE, Electronic energy at 0 [K]                               -559.98599337 [Eh]

  Thermal Energy, E (includes ZPE)
    Electronic E            0.000 [kcal/mol]        0.000 [kJ/mol]       0.00000000 [Eh]
    Translational E         0.889 [kcal/mol]        3.718 [kJ/mol]       0.00141628 [Eh]
    Rotational E            0.592 [kcal/mol]        2.479 [kJ/mol]       0.00094418 [Eh]
    Vibrational E           1.226 [kcal/mol]        5.131 [kJ/mol]       0.00195443 [Eh]
  Correction E              2.708 [kcal/mol]       11.329 [kJ/mol]       0.00431490 [Eh]
  Total E, Electronic energy at  298.15 [K]                           -559.98356187 [Eh]

  Enthalpy, H_trans = E_trans + k_B * T
    Electronic H            0.000 [kcal/mol]        0.000 [kJ/mol]       0.00000000 [Eh]
    Translational H         1.481 [kcal/mol]        6.197 [kJ/mol]       0.00236046 [Eh]
    Rotational H            0.592 [kcal/mol]        2.479 [kJ/mol]       0.00094418 [Eh]
    Vibrational H           1.226 [kcal/mol]        5.131 [kJ/mol]       0.00195443 [Eh]
  Correction H              3.300 [kcal/mol]       13.808 [kJ/mol]       0.00525908 [Eh]
  Total H, Enthalpy at  298.15 [K]                                    -559.98261769 [Eh]

  Gibbs free energy, G = H - T * S
    Electronic G            0.000 [kcal/mol]        0.000 [kJ/mol]       0.00000000 [Eh]
    Translational G        -9.813 [kcal/mol]      -41.056 [kJ/mol]      -0.01563729 [Eh]
    Rotational G           -3.548 [kcal/mol]      -14.845 [kJ/mol]      -0.00565433 [Eh]
    Vibrational G           1.171 [kcal/mol]        4.899 [kJ/mol]       0.00186576 [Eh]
  Correction G            -12.190 [kcal/mol]      -51.003 [kJ/mol]      -0.01942586 [Eh]
  Total G, Free enthalpy at  298.15 [K]                               -560.00730263 [Eh]

    Psi4 stopped on: Tuesday, 27 April 2021 04:46PM
    Psi4 wall time for execution: 0:00:54.76

*** Psi4 exiting successfully. Buy a developer a beer!
