
    -----------------------------------------------------------------------
          Psi4: An Open-Source Ab Initio Electronic Structure Package
                               Psi4 1.3.2 release

                         Git: Rev {HEAD} ecbda83 


    R. M. Parrish, L. A. Burns, D. G. A. Smith, A. C. Simmonett,
    A. E. DePrince III, E. G. Hohenstein, U. Bozkaya, A. Yu. Sokolov,
    R. Di Remigio, R. M. Richard, J. F. Gonthier, A. M. James,
    H. R. McAlexander, A. Kumar, M. Saitow, X. Wang, B. P. Pritchard,
    P. Verma, H. F. Schaefer III, K. Patkowski, R. A. King, E. F. Valeev,
    F. A. Evangelista, J. M. Turney, T. D. Crawford, and C. D. Sherrill,
    J. Chem. Theory Comput. 13(7) pp 3185--3197 (2017).
    (doi: 10.1021/acs.jctc.7b00174)


                         Additional Contributions by
    P. Kraus, H. Kruse, M. H. Lechner, M. C. Schieber, R. A. Shaw,
    A. Alenaizan, R. Galvelis, Z. L. Glick, S. Lehtola, and J. P. Misiewicz

    -----------------------------------------------------------------------


    Psi4 started on: Monday, 19 April 2021 03:53PM

    Process ID: 7201
    Host:       bp1-compute00191.data.bp.acrc.priv
    PSIDATADIR: /work/zw18965/.conda/envs/p4env/share/psi4
    Memory:     500.0 MiB
    Threads:    24
    
  ==> Input File <==

--------------------------------------------------------------------------
memory 144 GB

molecule {
0 1
Cl    0.834210788250   0.000000000000   0.000000000000
F    -0.834210788250   0.000000000000   0.000000000000}

set basis aug-cc-pV(Q+d)Z
 
optimize("WB97M-V")
frequencies("WB97M-V")--------------------------------------------------------------------------

  Memory set to 134.110 GiB by Python driver.
gradient() will perform gradient computation by finite difference of analytic energies.

         ----------------------------------------------------------
                                   FINDIF
                     R. A. King and Jonathon Misiewicz
         ---------------------------------------------------------

  Using finite-differences of energies to determine gradients.
    Generating geometries for use with 3-point formula.
    Displacement size will be 5.00e-03.
    Number of atoms is 2.
    Number of symmetric SALCs is 1.
    Translations projected? 1. Rotations projected? 1.
    Number of geometries (including reference) is 3.

  //>>>>>>>>>>>>>>>>>>>>>>>>>>>>>>>>>>>//
  //    Loading displacement 1 of 3    //
  //<<<<<<<<<<<<<<<<<<<<<<<<<<<<<<<<<<<//

*** tstart() called on bp1-compute00191.data.bp.acrc.priv
*** at Mon Apr 19 15:53:52 2021

   => Loading Basis Set <=

    Name: AUG-CC-PV(Q+D)Z
    Role: ORBITAL
    Keyword: BASIS
    atoms 1 entry CL         line  1246 file /work/zw18965/.conda/envs/p4env/share/psi4/basis/aug-cc-pv_qpd_z.gbs 
    atoms 2 entry F          line   499 file /work/zw18965/.conda/envs/p4env/share/psi4/basis/aug-cc-pv_qpd_z.gbs 


         ---------------------------------------------------------
                                   SCF
               by Justin Turney, Rob Parrish, Andy Simmonett
                          and Daniel G. A. Smith
                              RKS Reference
                       24 Threads, 137329 MiB Core
         ---------------------------------------------------------

  ==> Geometry <==

    Molecular point group: c2v
    Full point group: C_inf_v

    Geometry (in Angstrom), charge = 0, multiplicity = 1:

       Center              X                  Y                   Z               Mass       
    ------------   -----------------  -----------------  -----------------  -----------------
         CL           0.000000000000     0.000000000000     0.587344034074    34.968852682000
         F            0.000000000000     0.000000000000    -1.081077542426    18.998403162730

  Running in c2v symmetry.

  Rotational constants: A = ************  B =      0.49195  C =      0.49195 [cm^-1]
  Rotational constants: A = ************  B =  14748.14696  C =  14748.14696 [MHz]
  Nuclear repulsion =   48.527371242917987

  Charge       = 0
  Multiplicity = 1
  Electrons    = 26
  Nalpha       = 13
  Nbeta        = 13

  ==> Algorithm <==

  SCF Algorithm Type is DF.
  DIIS enabled.
  MOM disabled.
  Fractional occupation disabled.
  Guess Type is SAD.
  Energy threshold   = 1.00e-08
  Density threshold  = 1.00e-08
  Integral threshold = 0.00e+00

  ==> Primary Basis <==

  Basis Set: AUG-CC-PV(Q+D)Z
    Blend: AUG-CC-PV(Q+D)Z
    Number of shells: 43
    Number of basis function: 169
    Number of Cartesian functions: 220
    Spherical Harmonics?: true
    Max angular momentum: 4

  ==> DFT Potential <==

   => Composite Functional: WB97M-V <= 

    wB97M-V Hyb-GGA Exchange-Correlation Functional

    N. Mardirossian and M. Head-Gordon, J. Chem. Phys. 144, 214110 (2016)

    Deriv               =              1
    GGA                 =           TRUE
    Meta                =           TRUE

    Exchange Hybrid     =           TRUE
    MP2 Hybrid          =          FALSE

   => Exchange-Correlation Functionals <=

    1.0000   wB97M-V exchange-correlation functional

   => Exact (HF) Exchange <=

    0.8500            HF,LR [omega = 0.3000]
    0.1500               HF 

   => VV10 Non-Local Parameters <=

    VV10 B              =     6.0000E+00
    VV10 C              =     1.0000E-02

   => Molecular Quadrature <=

    Radial Scheme          =       TREUTLER
    Pruning Scheme         =           FLAT
    Nuclear Scheme         =       TREUTLER

    BS radius alpha        =              1
    Pruning alpha          =              1
    Radial Points          =             75
    Spherical Points       =            302
    Total Points           =          45099
    Total Blocks           =            423
    Max Points             =            255
    Max Functions          =            169

   => Loading Basis Set <=

    Name: (AUG-CC-PV(Q+D)Z AUX)
    Role: JKFIT
    Keyword: DF_BASIS_SCF
    atoms 1 entry CL         line   904 file /work/zw18965/.conda/envs/p4env/share/psi4/basis/aug-cc-pvqz-jkfit.gbs 
    atoms 2 entry F          line   388 file /work/zw18965/.conda/envs/p4env/share/psi4/basis/aug-cc-pvqz-jkfit.gbs 

  ==> Pre-Iterations <==

   -------------------------------------------------------
    Irrep   Nso     Nmo     Nalpha   Nbeta   Ndocc  Nsocc
   -------------------------------------------------------
     A1        66      66       0       0       0       0
     A2        23      23       0       0       0       0
     B1        40      40       0       0       0       0
     B2        40      40       0       0       0       0
   -------------------------------------------------------
    Total     169     169      13      13      13       0
   -------------------------------------------------------

  ==> Integral Setup <==

  ==> DiskDFJK: Density-Fitted J/K Matrices <==

    J tasked:                  Yes
    K tasked:                  Yes
    wK tasked:                 Yes
    Omega:               3.000E-01
    OpenMP threads:             24
    Integrals threads:          24
    Memory [MiB]:           102510
    Algorithm:                Core
    Integral Cache:           NONE
    Schwarz Cutoff:          1E-12
    Fitting Condition:       1E-10

   => Auxiliary Basis Set <=

  Basis Set: (AUG-CC-PV(Q+D)Z AUX)
    Blend: AUG-CC-PVQZ-JKFIT
    Number of shells: 80
    Number of basis function: 326
    Number of Cartesian functions: 445
    Spherical Harmonics?: true
    Max angular momentum: 5

  Cached 100.0% of DFT collocation blocks in 0.475 [GiB].

  Minimum eigenvalue in the overlap matrix is 3.0143615087E-04.
  Using Symmetric Orthogonalization.

  SCF Guess: Superposition of Atomic Densities via on-the-fly atomic UHF.

  ==> Iterations <==

                           Total Energy        Delta E     RMS |[F,P]|

   @DF-RKS iter SAD:  -559.68768171700378   -5.59688e+02   0.00000e+00 
   @DF-RKS iter   1:  -559.96374024151226   -2.76059e-01   3.07880e-03 DIIS
   @DF-RKS iter   2:  -559.97470072974045   -1.09605e-02   2.41659e-03 DIIS
   @DF-RKS iter   3:  -559.98552410300852   -1.08234e-02   7.43425e-04 DIIS
   @DF-RKS iter   4:  -559.98676195288988   -1.23785e-03   1.04100e-04 DIIS
   @DF-RKS iter   5:  -559.98680862497258   -4.66721e-05   3.37508e-05 DIIS
   @DF-RKS iter   6:  -559.98681332027434   -4.69530e-06   6.20116e-06 DIIS
   @DF-RKS iter   7:  -559.98681367856011   -3.58286e-07   1.53705e-06 DIIS
   @DF-RKS iter   8:  -559.98681369621727   -1.76572e-08   5.02284e-07 DIIS
   @DF-RKS iter   9:  -559.98681369743065   -1.21338e-09   4.23000e-08 DIIS
   @DF-RKS iter  10:  -559.98681369744997   -1.93268e-11   5.88112e-09 DIIS
  Energy and wave function converged.


  ==> Post-Iterations <==

    Orbital Energies [Eh]
    ---------------------

    Doubly Occupied:                                                      

       1A1  -101.983003     2A1   -24.957408     3A1    -9.733973  
       4A1    -7.444933     1B2    -7.428451     1B1    -7.428451  
       5A1    -1.366568     6A1    -0.964201     7A1    -0.635721  
       2B2    -0.598627     2B1    -0.598627     3B1    -0.441264  
       3B2    -0.441264  

    Virtual:                                                              

       8A1    -0.045115     9A1     0.050735     4B2     0.069698  
       4B1     0.069698    10A1     0.074631    11A1     0.152548  
       5B1     0.171974     5B2     0.171974     1A2     0.209301  
      12A1     0.209301     6B1     0.271757     6B2     0.271757  
      13A1     0.294134    14A1     0.295150     7B2     0.408120  
       7B1     0.408120    15A1     0.412681    16A1     0.520455  
       2A2     0.520457     8B1     0.530156     8B2     0.530156  
      17A1     0.555715    18A1     0.609779     3A2     0.609781  
      19A1     0.663320     9B2     0.737103     9B1     0.737103  
      10B1     0.737633    10B2     0.737633    20A1     0.797571  
      11B2     0.838717    11B1     0.838717     4A2     0.865130  
      21A1     0.865140    22A1     0.926275    12B2     1.048961  
      12B1     1.048961    23A1     1.054413    24A1     1.305637  
      25A1     1.377540     5A2     1.377549    13B2     1.449785  
      13B1     1.449785    26A1     1.457044    14B1     1.603386  
      14B2     1.603386    15B1     1.614887    15B2     1.614887  
      27A1     1.638824     6A2     1.638825    16B1     1.668380  
      16B2     1.668380    28A1     1.713699     7A2     1.713716  
      17B2     1.853243    17B1     1.853243    29A1     1.872821  
       8A2     1.900541    30A1     1.900547    18B1     1.975335  
      18B2     1.975335    31A1     1.978888     9A2     1.995843  
      32A1     1.995858    19B1     2.032895    19B2     2.032895  
      33A1     2.249201    20B1     2.287314    20B2     2.287314  
      34A1     2.314661    10A2     2.419462    35A1     2.419469  
      36A1     2.572460    21B1     2.783837    21B2     2.783837  
      37A1     2.839156    22B1     3.314749    22B2     3.314749  
      38A1     3.404142    11A2     3.404148    39A1     3.443931  
      23B1     3.594649    23B2     3.594649    40A1     4.081325  
      24B1     4.088152    24B2     4.088152    12A2     4.193908  
      41A1     4.193910    25B2     4.316479    25B1     4.316479  
      13A2     4.358686    42A1     4.358687    26B1     4.365417  
      26B2     4.365417    14A2     4.369417    43A1     4.369473  
      44A1     4.418197    45A1     4.498400    15A2     4.498615  
      27B2     4.592874    27B1     4.592874    28B1     4.609377  
      28B2     4.609377    46A1     4.959363    47A1     5.047234  
      16A2     5.103936    48A1     5.103959    29B2     5.248937  
      29B1     5.248937    30B2     5.264614    30B1     5.264614  
      49A1     5.290519    17A2     5.453145    50A1     5.453230  
      51A1     5.531783    18A2     5.531788    31B2     5.636935  
      31B1     5.636935    52A1     5.970116    32B2     6.053730  
      32B1     6.053730    53A1     6.396270    33B1     6.418400  
      33B2     6.418400    54A1     7.773938    19A2    10.775975  
      55A1    10.776020    34B1    10.930503    34B2    10.930503  
      56A1    11.125923    35B1    12.575467    35B2    12.575467  
      57A1    13.203728    20A2    13.204724    36B1    13.231987  
      36B2    13.231987    58A1    13.399554    21A2    13.399717  
      37B1    13.598027    37B2    13.598027    59A1    13.606022  
      60A1    13.754020    38B2    15.313264    38B1    15.313264  
      61A1    15.427589    22A2    15.427775    39B1    15.560771  
      39B2    15.560771    62A1    15.698368    23A2    16.186445  
      63A1    16.186654    40B2    16.634652    40B1    16.634652  
      64A1    16.879574    65A1    24.059799    66A1    53.308732  

    Final Occupation by Irrep:
             A1    A2    B1    B2 
    DOCC [     7,    0,    3,    3 ]

  @DF-RKS Final Energy:  -559.98681369744997

   => Energetics <=

    Nuclear Repulsion Energy =             48.5273712429179866
    One-Electron Energy =                -870.5212990038377256
    Two-Electron Energy =                 291.3999361092561458
    DFT Exchange-Correlation Energy =     -29.5027390962667795
    Empirical Dispersion Energy =           0.0000000000000000
    VV10 Nonlocal Energy =                  0.1099170504803835
    Total Energy =                       -559.9868136974499748

Computation Completed


Properties will be evaluated at   0.000000,   0.000000,   0.000000 [a0]

Properties computed using the SCF density matrix

  Nuclear Dipole Moment: [e a0]
     X:     0.0000      Y:     0.0000      Z:     0.4822

  Electronic Dipole Moment: [e a0]
     X:     0.0000      Y:     0.0000      Z:    -0.0900

  Dipole Moment: [e a0]
     X:     0.0000      Y:     0.0000      Z:     0.3922     Total:     0.3922

  Dipole Moment: [D]
     X:     0.0000      Y:     0.0000      Z:     0.9968     Total:     0.9968


*** tstop() called on bp1-compute00191.data.bp.acrc.priv at Mon Apr 19 15:53:56 2021
Module time:
	user time   =      83.33 seconds =       1.39 minutes
	system time =       4.50 seconds =       0.07 minutes
	total time  =          4 seconds =       0.07 minutes
Total time:
	user time   =      83.33 seconds =       1.39 minutes
	system time =       4.50 seconds =       0.07 minutes
	total time  =          4 seconds =       0.07 minutes

  //>>>>>>>>>>>>>>>>>>>>>>>>>>>>>>>>>>>//
  //    Loading displacement 2 of 3    //
  //<<<<<<<<<<<<<<<<<<<<<<<<<<<<<<<<<<<//

*** tstart() called on bp1-compute00191.data.bp.acrc.priv
*** at Mon Apr 19 15:53:56 2021

   => Loading Basis Set <=

    Name: AUG-CC-PV(Q+D)Z
    Role: ORBITAL
    Keyword: BASIS
    atoms 1 entry CL         line  1246 file /work/zw18965/.conda/envs/p4env/share/psi4/basis/aug-cc-pv_qpd_z.gbs 
    atoms 2 entry F          line   499 file /work/zw18965/.conda/envs/p4env/share/psi4/basis/aug-cc-pv_qpd_z.gbs 


         ---------------------------------------------------------
                                   SCF
               by Justin Turney, Rob Parrish, Andy Simmonett
                          and Daniel G. A. Smith
                              RKS Reference
                       24 Threads, 137329 MiB Core
         ---------------------------------------------------------

  ==> Geometry <==

    Molecular point group: c2v
    Full point group: C_inf_v

    Geometry (in Angstrom), charge = 0, multiplicity = 1:

       Center              X                  Y                   Z               Mass       
    ------------   -----------------  -----------------  -----------------  -----------------
         CL           0.000000000000     0.000000000000     0.587078558953    34.968852682000
         F            0.000000000000     0.000000000000    -1.080588903443    18.998403162730

  Running in c2v symmetry.

  Rotational constants: A = ************  B =      0.49239  C =      0.49239 [cm^-1]
  Rotational constants: A = ************  B =  14761.48811  C =  14761.48811 [MHz]
  Nuclear repulsion =   48.549315171131560

  Charge       = 0
  Multiplicity = 1
  Electrons    = 26
  Nalpha       = 13
  Nbeta        = 13

  ==> Algorithm <==

  SCF Algorithm Type is DF.
  DIIS enabled.
  MOM disabled.
  Fractional occupation disabled.
  Guess Type is SAD.
  Energy threshold   = 1.00e-08
  Density threshold  = 1.00e-08
  Integral threshold = 0.00e+00

  ==> Primary Basis <==

  Basis Set: AUG-CC-PV(Q+D)Z
    Blend: AUG-CC-PV(Q+D)Z
    Number of shells: 43
    Number of basis function: 169
    Number of Cartesian functions: 220
    Spherical Harmonics?: true
    Max angular momentum: 4

  ==> DFT Potential <==

   => Composite Functional: WB97M-V <= 

    wB97M-V Hyb-GGA Exchange-Correlation Functional

    N. Mardirossian and M. Head-Gordon, J. Chem. Phys. 144, 214110 (2016)

    Deriv               =              1
    GGA                 =           TRUE
    Meta                =           TRUE

    Exchange Hybrid     =           TRUE
    MP2 Hybrid          =          FALSE

   => Exchange-Correlation Functionals <=

    1.0000   wB97M-V exchange-correlation functional

   => Exact (HF) Exchange <=

    0.8500            HF,LR [omega = 0.3000]
    0.1500               HF 

   => VV10 Non-Local Parameters <=

    VV10 B              =     6.0000E+00
    VV10 C              =     1.0000E-02

   => Molecular Quadrature <=

    Radial Scheme          =       TREUTLER
    Pruning Scheme         =           FLAT
    Nuclear Scheme         =       TREUTLER

    BS radius alpha        =              1
    Pruning alpha          =              1
    Radial Points          =             75
    Spherical Points       =            302
    Total Points           =          45099
    Total Blocks           =            423
    Max Points             =            255
    Max Functions          =            169

   => Loading Basis Set <=

    Name: (AUG-CC-PV(Q+D)Z AUX)
    Role: JKFIT
    Keyword: DF_BASIS_SCF
    atoms 1 entry CL         line   904 file /work/zw18965/.conda/envs/p4env/share/psi4/basis/aug-cc-pvqz-jkfit.gbs 
    atoms 2 entry F          line   388 file /work/zw18965/.conda/envs/p4env/share/psi4/basis/aug-cc-pvqz-jkfit.gbs 

  ==> Pre-Iterations <==

   -------------------------------------------------------
    Irrep   Nso     Nmo     Nalpha   Nbeta   Ndocc  Nsocc
   -------------------------------------------------------
     A1        66      66       0       0       0       0
     A2        23      23       0       0       0       0
     B1        40      40       0       0       0       0
     B2        40      40       0       0       0       0
   -------------------------------------------------------
    Total     169     169      13      13      13       0
   -------------------------------------------------------

  ==> Integral Setup <==

  ==> DiskDFJK: Density-Fitted J/K Matrices <==

    J tasked:                  Yes
    K tasked:                  Yes
    wK tasked:                 Yes
    Omega:               3.000E-01
    OpenMP threads:             24
    Integrals threads:          24
    Memory [MiB]:           102510
    Algorithm:                Core
    Integral Cache:           NONE
    Schwarz Cutoff:          1E-12
    Fitting Condition:       1E-10

   => Auxiliary Basis Set <=

  Basis Set: (AUG-CC-PV(Q+D)Z AUX)
    Blend: AUG-CC-PVQZ-JKFIT
    Number of shells: 80
    Number of basis function: 326
    Number of Cartesian functions: 445
    Spherical Harmonics?: true
    Max angular momentum: 5

  Cached 100.0% of DFT collocation blocks in 0.475 [GiB].

  Minimum eigenvalue in the overlap matrix is 3.0098865276E-04.
  Using Symmetric Orthogonalization.

  SCF Guess: Superposition of Atomic Densities via on-the-fly atomic UHF.

  ==> Iterations <==

                           Total Energy        Delta E     RMS |[F,P]|

   @DF-RKS iter SAD:  -559.68867158766204   -5.59689e+02   0.00000e+00 
   @DF-RKS iter   1:  -559.96376467040022   -2.75093e-01   3.07943e-03 DIIS
   @DF-RKS iter   2:  -559.97477322325460   -1.10086e-02   2.41357e-03 DIIS
   @DF-RKS iter   3:  -559.98556051783180   -1.07873e-02   7.42800e-04 DIIS
   @DF-RKS iter   4:  -559.98679598679939   -1.23547e-03   1.04213e-04 DIIS
   @DF-RKS iter   5:  -559.98684275466951   -4.67679e-05   3.37674e-05 DIIS
   @DF-RKS iter   6:  -559.98684745573439   -4.70106e-06   6.20235e-06 DIIS
   @DF-RKS iter   7:  -559.98684781429426   -3.58560e-07   1.53809e-06 DIIS
   @DF-RKS iter   8:  -559.98684783197143   -1.76772e-08   5.01766e-07 DIIS
   @DF-RKS iter   9:  -559.98684783318356   -1.21213e-09   4.23128e-08 DIIS
   @DF-RKS iter  10:  -559.98684783320255   -1.89857e-11   5.87453e-09 DIIS
  Energy and wave function converged.


  ==> Post-Iterations <==

    Orbital Energies [Eh]
    ---------------------

    Doubly Occupied:                                                      

       1A1  -101.982944     2A1   -24.957435     3A1    -9.733922  
       4A1    -7.444881     1B2    -7.428399     1B1    -7.428399  
       5A1    -1.366813     6A1    -0.964150     7A1    -0.635860  
       2B1    -0.598780     2B2    -0.598780     3B1    -0.441177  
       3B2    -0.441177  

    Virtual:                                                              

       8A1    -0.044858     9A1     0.050728     4B1     0.069697  
       4B2     0.069697    10A1     0.074673    11A1     0.152561  
       5B1     0.171965     5B2     0.171965     1A2     0.209306  
      12A1     0.209306     6B1     0.271801     6B2     0.271801  
      13A1     0.294176    14A1     0.295136     7B1     0.408097  
       7B2     0.408097    15A1     0.412665    16A1     0.520458  
       2A2     0.520461     8B2     0.530224     8B1     0.530224  
      17A1     0.555762    18A1     0.609811     3A2     0.609813  
      19A1     0.663470     9B1     0.737111     9B2     0.737111  
      10B1     0.737590    10B2     0.737590    20A1     0.797689  
      11B1     0.838830    11B2     0.838830     4A2     0.865205  
      21A1     0.865214    22A1     0.926168    12B1     1.048852  
      12B2     1.048852    23A1     1.054432    24A1     1.305692  
      25A1     1.377573     5A2     1.377582    13B1     1.449760  
      13B2     1.449760    26A1     1.457035    14B2     1.603378  
      14B1     1.603378    15B1     1.615167    15B2     1.615167  
      27A1     1.638811     6A2     1.638813    16B1     1.668505  
      16B2     1.668505    28A1     1.713713     7A2     1.713730  
      17B1     1.853265    17B2     1.853265    29A1     1.873007  
       8A2     1.900673    30A1     1.900679    18B2     1.975537  
      18B1     1.975537    31A1     1.979053     9A2     1.995946  
      32A1     1.995961    19B1     2.033033    19B2     2.033033  
      33A1     2.249692    20B1     2.287584    20B2     2.287584  
      34A1     2.314516    10A2     2.419927    35A1     2.419934  
      36A1     2.573423    21B1     2.783418    21B2     2.783418  
      37A1     2.839108    22B1     3.315119    22B2     3.315119  
      38A1     3.404159    11A2     3.404164    39A1     3.443600  
      23B1     3.595518    23B2     3.595518    40A1     4.081251  
      24B1     4.088064    24B2     4.088064    12A2     4.193548  
      41A1     4.193551    25B2     4.316482    25B1     4.316482  
      13A2     4.358875    42A1     4.358876    26B2     4.365279  
      26B1     4.365279    14A2     4.369445    43A1     4.369501  
      44A1     4.418981    45A1     4.498325    15A2     4.498540  
      27B2     4.593197    27B1     4.593197    28B1     4.609882  
      28B2     4.609882    46A1     4.960581    47A1     5.048027  
      16A2     5.104965    48A1     5.104988    29B2     5.248963  
      29B1     5.248963    30B1     5.264653    30B2     5.264653  
      49A1     5.291295    17A2     5.453314    50A1     5.453399  
      51A1     5.532267    18A2     5.532273    31B1     5.637155  
      31B2     5.637155    52A1     5.968709    32B1     6.054691  
      32B2     6.054691    53A1     6.398646    33B1     6.419992  
      33B2     6.419992    54A1     7.775215    19A2    10.776047  
      55A1    10.776092    34B1    10.930709    34B2    10.930709  
      56A1    11.126637    35B1    12.576142    35B2    12.576142  
      57A1    13.203649    20A2    13.204641    36B2    13.232019  
      36B1    13.232019    58A1    13.399894    21A2    13.400057  
      37B1    13.598151    37B2    13.598151    59A1    13.605967  
      60A1    13.756120    38B1    15.313241    38B2    15.313241  
      61A1    15.427702    22A2    15.427888    39B1    15.560997  
      39B2    15.560997    62A1    15.699250    23A2    16.186535  
      63A1    16.186743    40B1    16.635395    40B2    16.635395  
      64A1    16.879738    65A1    24.063291    66A1    53.310263  

    Final Occupation by Irrep:
             A1    A2    B1    B2 
    DOCC [     7,    0,    3,    3 ]

  @DF-RKS Final Energy:  -559.98684783320255

   => Energetics <=

    Nuclear Repulsion Energy =             48.5493151711315605
    One-Electron Energy =                -870.5646493442161500
    Two-Electron Energy =                 291.4215751318233174
    DFT Exchange-Correlation Energy =     -29.5030045636087621
    Empirical Dispersion Energy =           0.0000000000000000
    VV10 Nonlocal Energy =                  0.1099157716675861
    Total Energy =                       -559.9868478332025461

Computation Completed


Properties will be evaluated at   0.000000,   0.000000,   0.000000 [a0]

Properties computed using the SCF density matrix

  Nuclear Dipole Moment: [e a0]
     X:     0.0000      Y:     0.0000      Z:     0.4819

  Electronic Dipole Moment: [e a0]
     X:     0.0000      Y:     0.0000      Z:    -0.0907

  Dipole Moment: [e a0]
     X:     0.0000      Y:     0.0000      Z:     0.3913     Total:     0.3913

  Dipole Moment: [D]
     X:     0.0000      Y:     0.0000      Z:     0.9945     Total:     0.9945


*** tstop() called on bp1-compute00191.data.bp.acrc.priv at Mon Apr 19 15:54:00 2021
Module time:
	user time   =      92.61 seconds =       1.54 minutes
	system time =       3.11 seconds =       0.05 minutes
	total time  =          4 seconds =       0.07 minutes
Total time:
	user time   =     176.08 seconds =       2.93 minutes
	system time =       7.61 seconds =       0.13 minutes
	total time  =          8 seconds =       0.13 minutes

  //>>>>>>>>>>>>>>>>>>>>>>>>>>>>>>>>>>>//
  //    Loading displacement 3 of 3    //
  //<<<<<<<<<<<<<<<<<<<<<<<<<<<<<<<<<<<//

*** tstart() called on bp1-compute00191.data.bp.acrc.priv
*** at Mon Apr 19 15:54:00 2021

   => Loading Basis Set <=

    Name: AUG-CC-PV(Q+D)Z
    Role: ORBITAL
    Keyword: BASIS
    atoms 1 entry CL         line  1246 file /work/zw18965/.conda/envs/p4env/share/psi4/basis/aug-cc-pv_qpd_z.gbs 
    atoms 2 entry F          line   499 file /work/zw18965/.conda/envs/p4env/share/psi4/basis/aug-cc-pv_qpd_z.gbs 


         ---------------------------------------------------------
                                   SCF
               by Justin Turney, Rob Parrish, Andy Simmonett
                          and Daniel G. A. Smith
                              RKS Reference
                       24 Threads, 137329 MiB Core
         ---------------------------------------------------------

  ==> Geometry <==

    Molecular point group: c2v
    Full point group: C_inf_v

    Geometry (in Angstrom), charge = 0, multiplicity = 1:

       Center              X                  Y                   Z               Mass       
    ------------   -----------------  -----------------  -----------------  -----------------
         CL           0.000000000000     0.000000000000     0.587609509195    34.968852682000
         F            0.000000000000     0.000000000000    -1.081566181409    18.998403162730

  Running in c2v symmetry.

  Rotational constants: A = ************  B =      0.49150  C =      0.49150 [cm^-1]
  Rotational constants: A = ************  B =  14734.82389  C =  14734.82389 [MHz]
  Nuclear repulsion =   48.505447142725956

  Charge       = 0
  Multiplicity = 1
  Electrons    = 26
  Nalpha       = 13
  Nbeta        = 13

  ==> Algorithm <==

  SCF Algorithm Type is DF.
  DIIS enabled.
  MOM disabled.
  Fractional occupation disabled.
  Guess Type is SAD.
  Energy threshold   = 1.00e-08
  Density threshold  = 1.00e-08
  Integral threshold = 0.00e+00

  ==> Primary Basis <==

  Basis Set: AUG-CC-PV(Q+D)Z
    Blend: AUG-CC-PV(Q+D)Z
    Number of shells: 43
    Number of basis function: 169
    Number of Cartesian functions: 220
    Spherical Harmonics?: true
    Max angular momentum: 4

  ==> DFT Potential <==

   => Composite Functional: WB97M-V <= 

    wB97M-V Hyb-GGA Exchange-Correlation Functional

    N. Mardirossian and M. Head-Gordon, J. Chem. Phys. 144, 214110 (2016)

    Deriv               =              1
    GGA                 =           TRUE
    Meta                =           TRUE

    Exchange Hybrid     =           TRUE
    MP2 Hybrid          =          FALSE

   => Exchange-Correlation Functionals <=

    1.0000   wB97M-V exchange-correlation functional

   => Exact (HF) Exchange <=

    0.8500            HF,LR [omega = 0.3000]
    0.1500               HF 

   => VV10 Non-Local Parameters <=

    VV10 B              =     6.0000E+00
    VV10 C              =     1.0000E-02

   => Molecular Quadrature <=

    Radial Scheme          =       TREUTLER
    Pruning Scheme         =           FLAT
    Nuclear Scheme         =       TREUTLER

    BS radius alpha        =              1
    Pruning alpha          =              1
    Radial Points          =             75
    Spherical Points       =            302
    Total Points           =          45099
    Total Blocks           =            423
    Max Points             =            255
    Max Functions          =            169

   => Loading Basis Set <=

    Name: (AUG-CC-PV(Q+D)Z AUX)
    Role: JKFIT
    Keyword: DF_BASIS_SCF
    atoms 1 entry CL         line   904 file /work/zw18965/.conda/envs/p4env/share/psi4/basis/aug-cc-pvqz-jkfit.gbs 
    atoms 2 entry F          line   388 file /work/zw18965/.conda/envs/p4env/share/psi4/basis/aug-cc-pvqz-jkfit.gbs 

  ==> Pre-Iterations <==

   -------------------------------------------------------
    Irrep   Nso     Nmo     Nalpha   Nbeta   Ndocc  Nsocc
   -------------------------------------------------------
     A1        66      66       0       0       0       0
     A2        23      23       0       0       0       0
     B1        40      40       0       0       0       0
     B2        40      40       0       0       0       0
   -------------------------------------------------------
    Total     169     169      13      13      13       0
   -------------------------------------------------------

  ==> Integral Setup <==

  ==> DiskDFJK: Density-Fitted J/K Matrices <==

    J tasked:                  Yes
    K tasked:                  Yes
    wK tasked:                 Yes
    Omega:               3.000E-01
    OpenMP threads:             24
    Integrals threads:          24
    Memory [MiB]:           102510
    Algorithm:                Core
    Integral Cache:           NONE
    Schwarz Cutoff:          1E-12
    Fitting Condition:       1E-10

   => Auxiliary Basis Set <=

  Basis Set: (AUG-CC-PV(Q+D)Z AUX)
    Blend: AUG-CC-PVQZ-JKFIT
    Number of shells: 80
    Number of basis function: 326
    Number of Cartesian functions: 445
    Spherical Harmonics?: true
    Max angular momentum: 5

  Cached 100.0% of DFT collocation blocks in 0.475 [GiB].

  Minimum eigenvalue in the overlap matrix is 3.0188418051E-04.
  Using Symmetric Orthogonalization.

  SCF Guess: Superposition of Atomic Densities via on-the-fly atomic UHF.

  ==> Iterations <==

                           Total Energy        Delta E     RMS |[F,P]|

   @DF-RKS iter SAD:  -559.68670665338368   -5.59687e+02   0.00000e+00 
   @DF-RKS iter   1:  -559.96371533623653   -2.77009e-01   3.07815e-03 DIIS
   @DF-RKS iter   2:  -559.97462805437021   -1.09127e-02   2.41959e-03 DIIS
   @DF-RKS iter   3:  -559.98548721057773   -1.08592e-02   7.44038e-04 DIIS
   @DF-RKS iter   4:  -559.98672740671827   -1.24020e-03   1.03990e-04 DIIS
   @DF-RKS iter   5:  -559.98677398252960   -4.65758e-05   3.37337e-05 DIIS
   @DF-RKS iter   6:  -559.98677867153344   -4.68900e-06   6.19955e-06 DIIS
   @DF-RKS iter   7:  -559.98677902947179   -3.57938e-07   1.53599e-06 DIIS
   @DF-RKS iter   8:  -559.98677904710905   -1.76373e-08   5.02798e-07 DIIS
   @DF-RKS iter   9:  -559.98677904832527   -1.21622e-09   4.22893e-08 DIIS
   @DF-RKS iter  10:  -559.98677904834358   -1.83036e-11   5.88795e-09 DIIS
  Energy and wave function converged.


  ==> Post-Iterations <==

    Orbital Energies [Eh]
    ---------------------

    Doubly Occupied:                                                      

       1A1  -101.983062     2A1   -24.957380     3A1    -9.734024  
       4A1    -7.444986     1B1    -7.428503     1B2    -7.428503  
       5A1    -1.366324     6A1    -0.964252     7A1    -0.635583  
       2B2    -0.598474     2B1    -0.598474     3B1    -0.441351  
       3B2    -0.441351  

    Virtual:                                                              

       8A1    -0.045372     9A1     0.050742     4B2     0.069699  
       4B1     0.069699    10A1     0.074588    11A1     0.152535  
       5B1     0.171983     5B2     0.171983     1A2     0.209296  
      12A1     0.209296     6B1     0.271712     6B2     0.271712  
      13A1     0.294090    14A1     0.295167     7B2     0.408143  
       7B1     0.408143    15A1     0.412698    16A1     0.520451  
       2A2     0.520454     8B1     0.530087     8B2     0.530087  
      17A1     0.555668    18A1     0.609747     3A2     0.609749  
      19A1     0.663171     9B2     0.737094     9B1     0.737094  
      10B1     0.737676    10B2     0.737676    20A1     0.797454  
      11B1     0.838604    11B2     0.838604     4A2     0.865056  
      21A1     0.865065    22A1     0.926381    12B1     1.049070  
      12B2     1.049070    23A1     1.054393    24A1     1.305582  
      25A1     1.377508     5A2     1.377517    13B1     1.449810  
      13B2     1.449810    26A1     1.457054    14B1     1.603394  
      14B2     1.603394    15B1     1.614608    15B2     1.614608  
      27A1     1.638836     6A2     1.638837    16B1     1.668256  
      16B2     1.668256    28A1     1.713685     7A2     1.713703  
      17B1     1.853220    17B2     1.853220    29A1     1.872636  
       8A2     1.900409    30A1     1.900415    18B1     1.975134  
      18B2     1.975134    31A1     1.978722     9A2     1.995739  
      32A1     1.995754    19B1     2.032758    19B2     2.032758  
      33A1     2.248706    20B1     2.287044    20B2     2.287044  
      34A1     2.314807    10A2     2.418997    35A1     2.419004  
      36A1     2.571498    21B1     2.784255    21B2     2.784255  
      37A1     2.839206    22B1     3.314380    22B2     3.314380  
      38A1     3.404125    11A2     3.404132    39A1     3.444263  
      23B1     3.593781    23B2     3.593781    40A1     4.081399  
      24B1     4.088241    24B2     4.088241    12A2     4.194268  
      41A1     4.194270    25B1     4.316477    25B2     4.316477  
      13A2     4.358497    42A1     4.358498    26B1     4.365554  
      26B2     4.365554    14A2     4.369388    43A1     4.369444  
      44A1     4.417411    45A1     4.498475    15A2     4.498690  
      27B1     4.592553    27B2     4.592553    28B1     4.608871  
      28B2     4.608871    46A1     4.958135    47A1     5.046452  
      16A2     5.102907    48A1     5.102929    29B1     5.248911  
      29B2     5.248911    30B1     5.264574    30B2     5.264574  
      49A1     5.289744    17A2     5.452977    50A1     5.453063  
      51A1     5.531299    18A2     5.531305    31B1     5.636715  
      31B2     5.636715    52A1     5.971523    32B1     6.052768  
      32B2     6.052768    53A1     6.393898    33B1     6.416811  
      33B2     6.416811    54A1     7.772653    19A2    10.775904  
      55A1    10.775948    34B1    10.930296    34B2    10.930296  
      56A1    11.125214    35B2    12.574795    35B1    12.574795  
      57A1    13.203807    20A2    13.204807    36B2    13.231954  
      36B1    13.231954    58A1    13.399213    21A2    13.399377  
      37B1    13.597901    37B2    13.597901    59A1    13.606074  
      60A1    13.751920    38B2    15.313287    38B1    15.313287  
      61A1    15.427477    22A2    15.427662    39B2    15.560546  
      39B1    15.560546    62A1    15.697489    23A2    16.186355  
      63A1    16.186564    40B1    16.633908    40B2    16.633908  
      64A1    16.879406    65A1    24.056321    66A1    53.307208  

    Final Occupation by Irrep:
             A1    A2    B1    B2 
    DOCC [     7,    0,    3,    3 ]

  @DF-RKS Final Energy:  -559.98677904834358

   => Energetics <=

    Nuclear Repulsion Energy =             48.5054471427259557
    One-Electron Energy =                -870.4779853835675567
    Two-Electron Energy =                 291.3783149383529576
    DFT Exchange-Correlation Energy =     -29.5024740753333745
    Empirical Dispersion Energy =           0.0000000000000000
    VV10 Nonlocal Energy =                  0.1099183294784830
    Total Energy =                       -559.9867790483435783

Computation Completed


Properties will be evaluated at   0.000000,   0.000000,   0.000000 [a0]

Properties computed using the SCF density matrix

  Nuclear Dipole Moment: [e a0]
     X:     0.0000      Y:     0.0000      Z:     0.4824

  Electronic Dipole Moment: [e a0]
     X:     0.0000      Y:     0.0000      Z:    -0.0894

  Dipole Moment: [e a0]
     X:     0.0000      Y:     0.0000      Z:     0.3930     Total:     0.3930

  Dipole Moment: [D]
     X:     0.0000      Y:     0.0000      Z:     0.9990     Total:     0.9990


*** tstop() called on bp1-compute00191.data.bp.acrc.priv at Mon Apr 19 15:54:03 2021
Module time:
	user time   =      82.15 seconds =       1.37 minutes
	system time =       2.20 seconds =       0.04 minutes
	total time  =          3 seconds =       0.05 minutes
Total time:
	user time   =     258.37 seconds =       4.31 minutes
	system time =       9.81 seconds =       0.16 minutes
	total time  =         11 seconds =       0.18 minutes

         ----------------------------------------------------------
                                   FINDIF
                     R. A. King and Jonathon Misiewicz
         ---------------------------------------------------------

  Computing gradient from energies.
    Using 3-point formula.
    Energy without displacement: -559.9868136974
    Check energies below for precision!
    Forces are for mass-weighted, symmetry-adapted cartesians (in au).

     Coord      Energy(-1)        Energy(+1)            Force
        0   -559.9868478332   -559.9867790483      0.0068784859


-------------------------------------------------------------
  ## New Matrix (Symmetry 0) ##
  Irrep: 1 Size: 2 x 3

                 1                   2                   3

    1     0.00000000000000     0.00000000000000     0.02413386755215
    2     0.00000000000000     0.00000000000000    -0.02413386755215




			-----------------------------------------
			 OPTKING 2.0: for geometry optimizations 
			  - R.A. King,  Bethel University        
			-----------------------------------------

	Internal coordinates to be generated automatically.
	Detected frag 1 with atoms:  1 2
	---Fragment 1 Bond Connectivity---
	 1 : 2
	 2 : 1

	---Fragment 1 Geometry and Gradient---
	 CL          0.0000000000        0.0000000000        1.1099193658
	 F           0.0000000000        0.0000000000       -2.0429404756
	             0.0000000000        0.0000000000        0.0241338676
	             0.0000000000        0.0000000000       -0.0241338676

	Previous optimization step data not found.  Starting new optimization.

	---Fragment 1 Intrafragment Coordinates---
	 - Coordinate -           - BOHR/RAD -       - ANG/DEG -
	 R(1,2)           =         3.152860	       1.668422

	Current energy   :      -559.9868136974

	Generating empirical Hessian (Schlegel '84) for each fragment.
	Taking RFO optimization step.
	Going to follow RFO solution 1.
	Using RFO vector 1.
	Norm of target step-size    0.06015
	Projected energy change by RFO approximation:         0.0003561595

	Back-transformation to cartesian coordinates...
	Successfully converged to displaced geometry.

	--- Internal Coordinate Step in ANG or DEG, aJ/ANG or AJ/DEG ---
	 ---------------------------------------------------------------------------
	   Coordinate                Previous        Force       Change         New 
	   ----------                --------       ------       ------       ------
	    1 R(1,2)          =      1.668422    -0.198832    -0.031831     1.636590
	 ---------------------------------------------------------------------------
	Successfully symmetrized geometry.

  ==> Convergence Check <==

  Measures of convergence in internal coordinates in au.
  Criteria marked as inactive (o), active & met (*), and active & unmet ( ).
  --------------------------------------------------------------------------------------------- ~
   Step     Total Energy     Delta E     MAX Force     RMS Force      MAX Disp      RMS Disp    ~
  --------------------------------------------------------------------------------------------- ~
    Convergence Criteria    1.00e-06 *    3.00e-04 *             o    1.20e-03 *             o  ~
  --------------------------------------------------------------------------------------------- ~
      1    -559.98681370   -5.60e+02      2.41e-02      2.41e-02 o    6.02e-02      6.02e-02 o  ~
  ---------------------------------------------------------------------------------------------

	Writing optimization data to binary file.
	Structure for next step:
	Cartesian Geometry (in Angstrom)
	   CL     0.0000000000   0.0000000000   0.5714283731
	    F     0.0000000000   0.0000000000  -1.0651618795
			--------------------------
			 OPTKING Finished Execution 
			--------------------------

    Structure for next step:
    Molecular point group: c2v
    Full point group: C_inf_v

    Geometry (in Angstrom), charge = 0, multiplicity = 1:

    CL           0.000000000000     0.000000000000     0.576138272475
    F            0.000000000000     0.000000000000    -1.060451986521

gradient() will perform gradient computation by finite difference of analytic energies.

         ----------------------------------------------------------
                                   FINDIF
                     R. A. King and Jonathon Misiewicz
         ---------------------------------------------------------

  Using finite-differences of energies to determine gradients.
    Generating geometries for use with 3-point formula.
    Displacement size will be 5.00e-03.
    Number of atoms is 2.
    Number of symmetric SALCs is 1.
    Translations projected? 1. Rotations projected? 1.
    Number of geometries (including reference) is 3.

  //>>>>>>>>>>>>>>>>>>>>>>>>>>>>>>>>>>>//
  //    Loading displacement 1 of 3    //
  //<<<<<<<<<<<<<<<<<<<<<<<<<<<<<<<<<<<//

*** tstart() called on bp1-compute00191.data.bp.acrc.priv
*** at Mon Apr 19 15:54:03 2021

   => Loading Basis Set <=

    Name: AUG-CC-PV(Q+D)Z
    Role: ORBITAL
    Keyword: BASIS
    atoms 1 entry CL         line  1246 file /work/zw18965/.conda/envs/p4env/share/psi4/basis/aug-cc-pv_qpd_z.gbs 
    atoms 2 entry F          line   499 file /work/zw18965/.conda/envs/p4env/share/psi4/basis/aug-cc-pv_qpd_z.gbs 


         ---------------------------------------------------------
                                   SCF
               by Justin Turney, Rob Parrish, Andy Simmonett
                          and Daniel G. A. Smith
                              RKS Reference
                       24 Threads, 137329 MiB Core
         ---------------------------------------------------------

  ==> Geometry <==

    Molecular point group: c2v
    Full point group: C_inf_v

    Geometry (in Angstrom), charge = 0, multiplicity = 1:

       Center              X                  Y                   Z               Mass       
    ------------   -----------------  -----------------  -----------------  -----------------
         CL           0.000000000000     0.000000000000     0.576138272475    34.968852682000
         F            0.000000000000     0.000000000000    -1.060451986521    18.998403162730

  Running in c2v symmetry.

  Rotational constants: A = ************  B =      0.51127  C =      0.51127 [cm^-1]
  Rotational constants: A = ************  B =  15327.42246  C =  15327.42246 [MHz]
  Nuclear repulsion =   49.471217849113565

  Charge       = 0
  Multiplicity = 1
  Electrons    = 26
  Nalpha       = 13
  Nbeta        = 13

  ==> Algorithm <==

  SCF Algorithm Type is DF.
  DIIS enabled.
  MOM disabled.
  Fractional occupation disabled.
  Guess Type is READ.
  Energy threshold   = 1.00e-08
  Density threshold  = 1.00e-08
  Integral threshold = 0.00e+00

  ==> Primary Basis <==

  Basis Set: AUG-CC-PV(Q+D)Z
    Blend: AUG-CC-PV(Q+D)Z
    Number of shells: 43
    Number of basis function: 169
    Number of Cartesian functions: 220
    Spherical Harmonics?: true
    Max angular momentum: 4

  ==> DFT Potential <==

   => Composite Functional: WB97M-V <= 

    wB97M-V Hyb-GGA Exchange-Correlation Functional

    N. Mardirossian and M. Head-Gordon, J. Chem. Phys. 144, 214110 (2016)

    Deriv               =              1
    GGA                 =           TRUE
    Meta                =           TRUE

    Exchange Hybrid     =           TRUE
    MP2 Hybrid          =          FALSE

   => Exchange-Correlation Functionals <=

    1.0000   wB97M-V exchange-correlation functional

   => Exact (HF) Exchange <=

    0.8500            HF,LR [omega = 0.3000]
    0.1500               HF 

   => VV10 Non-Local Parameters <=

    VV10 B              =     6.0000E+00
    VV10 C              =     1.0000E-02

   => Molecular Quadrature <=

    Radial Scheme          =       TREUTLER
    Pruning Scheme         =           FLAT
    Nuclear Scheme         =       TREUTLER

    BS radius alpha        =              1
    Pruning alpha          =              1
    Radial Points          =             75
    Spherical Points       =            302
    Total Points           =          45099
    Total Blocks           =            423
    Max Points             =            255
    Max Functions          =            169

   => Loading Basis Set <=

    Name: (AUG-CC-PV(Q+D)Z AUX)
    Role: JKFIT
    Keyword: DF_BASIS_SCF
    atoms 1 entry CL         line   904 file /work/zw18965/.conda/envs/p4env/share/psi4/basis/aug-cc-pvqz-jkfit.gbs 
    atoms 2 entry F          line   388 file /work/zw18965/.conda/envs/p4env/share/psi4/basis/aug-cc-pvqz-jkfit.gbs 

   => Loading Basis Set <=

    Name: AUG-CC-PV(Q+D)Z
    Role: ORBITAL
    Keyword: BASIS
    atoms 1 entry CL         line  1246 file /work/zw18965/.conda/envs/p4env/share/psi4/basis/aug-cc-pv_qpd_z.gbs 
    atoms 2 entry F          line   499 file /work/zw18965/.conda/envs/p4env/share/psi4/basis/aug-cc-pv_qpd_z.gbs 

  Reading orbitals from file 180, no projection.

  ==> Pre-Iterations <==

   -------------------------------------------------------
    Irrep   Nso     Nmo     Nalpha   Nbeta   Ndocc  Nsocc
   -------------------------------------------------------
     A1        66      66       0       0       0       0
     A2        23      23       0       0       0       0
     B1        40      40       0       0       0       0
     B2        40      40       0       0       0       0
   -------------------------------------------------------
    Total     169     169      13      13      13       0
   -------------------------------------------------------

  ==> Integral Setup <==

  ==> DiskDFJK: Density-Fitted J/K Matrices <==

    J tasked:                  Yes
    K tasked:                  Yes
    wK tasked:                 Yes
    Omega:               3.000E-01
    OpenMP threads:             24
    Integrals threads:          24
    Memory [MiB]:           102507
    Algorithm:                Core
    Integral Cache:           NONE
    Schwarz Cutoff:          1E-12
    Fitting Condition:       1E-10

   => Auxiliary Basis Set <=

  Basis Set: (AUG-CC-PV(Q+D)Z AUX)
    Blend: AUG-CC-PVQZ-JKFIT
    Number of shells: 80
    Number of basis function: 326
    Number of Cartesian functions: 445
    Spherical Harmonics?: true
    Max angular momentum: 5

  Cached 100.0% of DFT collocation blocks in 0.478 [GiB].

  Minimum eigenvalue in the overlap matrix is 2.8299519419E-04.
  Using Symmetric Orthogonalization.

  SCF Guess: Orbitals guess was supplied from a previous computation.

  ==> Iterations <==

                           Total Energy        Delta E     RMS |[F,P]|

   @DF-RKS iter   0:  -559.99601467090122   -5.59996e+02   8.98943e-04 
   @DF-RKS iter   1:  -559.98770863676498    8.30603e-03   1.70680e-04 DIIS
   @DF-RKS iter   2:  -559.98776146226407   -5.28255e-05   9.98622e-05 DIIS
   @DF-RKS iter   3:  -559.98778125252841   -1.97903e-05   1.52542e-05 DIIS
   @DF-RKS iter   4:  -559.98778175761583   -5.05087e-07   8.39831e-06 DIIS
   @DF-RKS iter   5:  -559.98778197791080   -2.20295e-07   1.55270e-06 DIIS
   @DF-RKS iter   6:  -559.98778198802188   -1.01111e-08   2.96215e-07 DIIS
   @DF-RKS iter   7:  -559.98778198853813   -5.16252e-10   7.03286e-08 DIIS
   @DF-RKS iter   8:  -559.98778198858645   -4.83169e-11   2.14876e-08 DIIS
   @DF-RKS iter   9:  -559.98778198858872   -2.27374e-12   2.46761e-09 DIIS
  Energy and wave function converged.


  ==> Post-Iterations <==

    Orbital Energies [Eh]
    ---------------------

    Doubly Occupied:                                                      

       1A1  -101.980465     2A1   -24.958613     3A1    -9.731781  
       4A1    -7.442692     1B2    -7.426239     1B1    -7.426239  
       5A1    -1.377446     6A1    -0.961987     7A1    -0.641585  
       2B1    -0.605373     2B2    -0.605373     3B2    -0.437489  
       3B1    -0.437489  

    Virtual:                                                              

       8A1    -0.034286     9A1     0.050470     4B2     0.069644  
       4B1     0.069644    10A1     0.076578    11A1     0.153098  
       5B2     0.171555     5B1     0.171555     1A2     0.209519  
      12A1     0.209519     6B2     0.273687     6B1     0.273687  
      13A1     0.293763    14A1     0.296789     7B2     0.407045  
       7B1     0.407045    15A1     0.412071    16A1     0.520561  
       2A2     0.520564     8B1     0.533176     8B2     0.533176  
      17A1     0.557613    18A1     0.611139     3A2     0.611140  
      19A1     0.670105     9B1     0.735839     9B2     0.735839  
      10B2     0.737472    10B1     0.737472    20A1     0.802488  
      11B2     0.843386    11B1     0.843386     4A2     0.868233  
      21A1     0.868240    22A1     0.921672    12B1     1.044061  
      12B2     1.044061    23A1     1.055417    24A1     1.308163  
      25A1     1.378908     5A2     1.378916    13B1     1.448724  
      13B2     1.448724    26A1     1.456518    14B1     1.603151  
      14B2     1.603151    15B2     1.626861    15B1     1.626861  
      27A1     1.638081     6A2     1.638083    16B1     1.674066  
      16B2     1.674066    28A1     1.714285     7A2     1.714295  
      17B2     1.854182    17B1     1.854182    29A1     1.880953  
      30A1     1.906180     8A2     1.906184    18B1     1.983935  
      18B2     1.983935    31A1     1.985601     9A2     2.000281  
      32A1     2.000296    19B1     2.038845    19B2     2.038845  
      33A1     2.264499    20B1     2.298907    20B2     2.298907  
      34A1     2.312225    10A2     2.439294    35A1     2.439303  
      36A1     2.613661    21B1     2.764697    21B2     2.764697  
      37A1     2.838844    22B1     3.330180    22B2     3.330180  
      11A2     3.405010    38A1     3.405023    39A1     3.432265  
      23B2     3.632704    23B1     3.632704    40A1     4.078744  
      24B1     4.085849    24B2     4.085849    41A1     4.179235  
      12A2     4.179236    25B2     4.316263    25B1     4.316263  
      26B1     4.358860    26B2     4.358860    42A1     4.367233  
      13A2     4.367251    14A2     4.370697    43A1     4.370768  
      44A1     4.449337    45A1     4.495062    15A2     4.495284  
      27B1     4.607922    27B2     4.607922    28B1     4.630897  
      28B2     4.630897    46A1     5.001073    47A1     5.091563  
      16A2     5.146600    48A1     5.146624    29B2     5.250089  
      29B1     5.250089    30B2     5.266121    30B1     5.266121  
      49A1     5.324480    17A2     5.461662    50A1     5.461738  
      18A2     5.553099    51A1     5.553102    31B2     5.646139  
      31B1     5.646139    52A1     5.911317    32B2     6.092290  
      32B1     6.092290    33B2     6.488399    33B1     6.488399  
      53A1     6.499337    54A1     7.821879    19A2    10.779074  
      55A1    10.779122    34B2    10.938405    34B1    10.938405  
      56A1    11.160049    35B1    12.606354    35B2    12.606354  
      57A1    13.200243    20A2    13.201065    36B1    13.233420  
      36B2    13.233420    58A1    13.414006    21A2    13.414157  
      59A1    13.601925    37B1    13.601950    37B2    13.601950  
      60A1    13.843027    38B1    15.312214    38B2    15.312214  
      61A1    15.432349    22A2    15.432556    39B2    15.571720  
      39B1    15.571720    62A1    15.738913    23A2    16.190618  
      63A1    16.190798    40B1    16.664888    40B2    16.664888  
      64A1    16.883536    65A1    24.220564    66A1    53.379542  

    Final Occupation by Irrep:
             A1    A2    B1    B2 
    DOCC [     7,    0,    3,    3 ]

  @DF-RKS Final Energy:  -559.98778198858872

   => Energetics <=

    Nuclear Repulsion Energy =             49.4712178491135646
    One-Electron Energy =                -872.3836183077696660
    Two-Electron Energy =                 292.3290967364247877
    DFT Exchange-Correlation Energy =     -29.5143415144066950
    Empirical Dispersion Energy =           0.0000000000000000
    VV10 Nonlocal Energy =                  0.1098632480491484
    Total Energy =                       -559.9877819885888357

Computation Completed


Properties will be evaluated at   0.000000,   0.000000,   0.000000 [a0]

Properties computed using the SCF density matrix

  Nuclear Dipole Moment: [e a0]
     X:     0.0000      Y:     0.0000      Z:     0.4730

  Electronic Dipole Moment: [e a0]
     X:     0.0000      Y:     0.0000      Z:    -0.1189

  Dipole Moment: [e a0]
     X:     0.0000      Y:     0.0000      Z:     0.3541     Total:     0.3541

  Dipole Moment: [D]
     X:     0.0000      Y:     0.0000      Z:     0.9000     Total:     0.9000


*** tstop() called on bp1-compute00191.data.bp.acrc.priv at Mon Apr 19 15:54:06 2021
Module time:
	user time   =      65.92 seconds =       1.10 minutes
	system time =       1.98 seconds =       0.03 minutes
	total time  =          3 seconds =       0.05 minutes
Total time:
	user time   =     324.64 seconds =       5.41 minutes
	system time =      11.80 seconds =       0.20 minutes
	total time  =         14 seconds =       0.23 minutes

  //>>>>>>>>>>>>>>>>>>>>>>>>>>>>>>>>>>>//
  //    Loading displacement 2 of 3    //
  //<<<<<<<<<<<<<<<<<<<<<<<<<<<<<<<<<<<//

*** tstart() called on bp1-compute00191.data.bp.acrc.priv
*** at Mon Apr 19 15:54:06 2021

   => Loading Basis Set <=

    Name: AUG-CC-PV(Q+D)Z
    Role: ORBITAL
    Keyword: BASIS
    atoms 1 entry CL         line  1246 file /work/zw18965/.conda/envs/p4env/share/psi4/basis/aug-cc-pv_qpd_z.gbs 
    atoms 2 entry F          line   499 file /work/zw18965/.conda/envs/p4env/share/psi4/basis/aug-cc-pv_qpd_z.gbs 


         ---------------------------------------------------------
                                   SCF
               by Justin Turney, Rob Parrish, Andy Simmonett
                          and Daniel G. A. Smith
                              RKS Reference
                       24 Threads, 137329 MiB Core
         ---------------------------------------------------------

  ==> Geometry <==

    Molecular point group: c2v
    Full point group: C_inf_v

    Geometry (in Angstrom), charge = 0, multiplicity = 1:

       Center              X                  Y                   Z               Mass       
    ------------   -----------------  -----------------  -----------------  -----------------
         CL           0.000000000000     0.000000000000     0.575872797354    34.968852682000
         F            0.000000000000     0.000000000000    -1.059963347538    18.998403162730

  Running in c2v symmetry.

  Rotational constants: A = ************  B =      0.51174  C =      0.51174 [cm^-1]
  Rotational constants: A = ************  B =  15341.55749  C =  15341.55749 [MHz]
  Nuclear repulsion =   49.494023888234942

  Charge       = 0
  Multiplicity = 1
  Electrons    = 26
  Nalpha       = 13
  Nbeta        = 13

  ==> Algorithm <==

  SCF Algorithm Type is DF.
  DIIS enabled.
  MOM disabled.
  Fractional occupation disabled.
  Guess Type is READ.
  Energy threshold   = 1.00e-08
  Density threshold  = 1.00e-08
  Integral threshold = 0.00e+00

  ==> Primary Basis <==

  Basis Set: AUG-CC-PV(Q+D)Z
    Blend: AUG-CC-PV(Q+D)Z
    Number of shells: 43
    Number of basis function: 169
    Number of Cartesian functions: 220
    Spherical Harmonics?: true
    Max angular momentum: 4

  ==> DFT Potential <==

   => Composite Functional: WB97M-V <= 

    wB97M-V Hyb-GGA Exchange-Correlation Functional

    N. Mardirossian and M. Head-Gordon, J. Chem. Phys. 144, 214110 (2016)

    Deriv               =              1
    GGA                 =           TRUE
    Meta                =           TRUE

    Exchange Hybrid     =           TRUE
    MP2 Hybrid          =          FALSE

   => Exchange-Correlation Functionals <=

    1.0000   wB97M-V exchange-correlation functional

   => Exact (HF) Exchange <=

    0.8500            HF,LR [omega = 0.3000]
    0.1500               HF 

   => VV10 Non-Local Parameters <=

    VV10 B              =     6.0000E+00
    VV10 C              =     1.0000E-02

   => Molecular Quadrature <=

    Radial Scheme          =       TREUTLER
    Pruning Scheme         =           FLAT
    Nuclear Scheme         =       TREUTLER

    BS radius alpha        =              1
    Pruning alpha          =              1
    Radial Points          =             75
    Spherical Points       =            302
    Total Points           =          45099
    Total Blocks           =            423
    Max Points             =            255
    Max Functions          =            169

   => Loading Basis Set <=

    Name: (AUG-CC-PV(Q+D)Z AUX)
    Role: JKFIT
    Keyword: DF_BASIS_SCF
    atoms 1 entry CL         line   904 file /work/zw18965/.conda/envs/p4env/share/psi4/basis/aug-cc-pvqz-jkfit.gbs 
    atoms 2 entry F          line   388 file /work/zw18965/.conda/envs/p4env/share/psi4/basis/aug-cc-pvqz-jkfit.gbs 

   => Loading Basis Set <=

    Name: AUG-CC-PV(Q+D)Z
    Role: ORBITAL
    Keyword: BASIS
    atoms 1 entry CL         line  1246 file /work/zw18965/.conda/envs/p4env/share/psi4/basis/aug-cc-pv_qpd_z.gbs 
    atoms 2 entry F          line   499 file /work/zw18965/.conda/envs/p4env/share/psi4/basis/aug-cc-pv_qpd_z.gbs 

  Reading orbitals from file 180, no projection.

  ==> Pre-Iterations <==

   -------------------------------------------------------
    Irrep   Nso     Nmo     Nalpha   Nbeta   Ndocc  Nsocc
   -------------------------------------------------------
     A1        66      66       0       0       0       0
     A2        23      23       0       0       0       0
     B1        40      40       0       0       0       0
     B2        40      40       0       0       0       0
   -------------------------------------------------------
    Total     169     169      13      13      13       0
   -------------------------------------------------------

  ==> Integral Setup <==

  ==> DiskDFJK: Density-Fitted J/K Matrices <==

    J tasked:                  Yes
    K tasked:                  Yes
    wK tasked:                 Yes
    Omega:               3.000E-01
    OpenMP threads:             24
    Integrals threads:          24
    Memory [MiB]:           102507
    Algorithm:                Core
    Integral Cache:           NONE
    Schwarz Cutoff:          1E-12
    Fitting Condition:       1E-10

   => Auxiliary Basis Set <=

  Basis Set: (AUG-CC-PV(Q+D)Z AUX)
    Blend: AUG-CC-PVQZ-JKFIT
    Number of shells: 80
    Number of basis function: 326
    Number of Cartesian functions: 445
    Spherical Harmonics?: true
    Max angular momentum: 5

  Cached 100.0% of DFT collocation blocks in 0.478 [GiB].

  Minimum eigenvalue in the overlap matrix is 2.8256910596E-04.
  Using Symmetric Orthogonalization.

  SCF Guess: Orbitals guess was supplied from a previous computation.

  ==> Iterations <==

                           Total Energy        Delta E     RMS |[F,P]|

   @DF-RKS iter   0:  -559.98798184592738   -5.59988e+02   2.20648e-05 
   @DF-RKS iter   1:  -559.98779247793368    1.89368e-04   4.12090e-06 DIIS
   @DF-RKS iter   2:  -559.98779250829193   -3.03583e-08   2.44746e-06 DIIS
   @DF-RKS iter   3:  -559.98779252001395   -1.17220e-08   4.24398e-07 DIIS
   @DF-RKS iter   4:  -559.98779252041732   -4.03361e-10   1.91790e-07 DIIS
   @DF-RKS iter   5:  -559.98779252054271   -1.25397e-10   3.43660e-08 DIIS
   @DF-RKS iter   6:  -559.98779252054794   -5.22959e-12   7.30737e-09 DIIS
  Energy and wave function converged.


  ==> Post-Iterations <==

    Orbital Energies [Eh]
    ---------------------

    Doubly Occupied:                                                      

       1A1  -101.980403     2A1   -24.958643     3A1    -9.731729  
       4A1    -7.442638     1B1    -7.426186     1B2    -7.426186  
       5A1    -1.377717     6A1    -0.961933     7A1    -0.641724  
       2B1    -0.605540     2B2    -0.605540     3B1    -0.437397  
       3B2    -0.437397  

    Virtual:                                                              

       8A1    -0.034030     9A1     0.050464     4B2     0.069643  
       4B1     0.069643    10A1     0.076628    11A1     0.153112  
       5B2     0.171544     5B1     0.171544     1A2     0.209524  
      12A1     0.209524     6B2     0.273734     6B1     0.273734  
      13A1     0.293736    14A1     0.296848     7B1     0.407017  
       7B2     0.407017    15A1     0.412058    16A1     0.520563  
       2A2     0.520566     8B2     0.533251     8B1     0.533251  
      17A1     0.557656    18A1     0.611172     3A2     0.611172  
      19A1     0.670277     9B1     0.735797     9B2     0.735797  
      10B1     0.737481    10B2     0.737481    20A1     0.802603  
      11B1     0.843494    11B2     0.843494     4A2     0.868306  
      21A1     0.868313    22A1     0.921560    12B1     1.043938  
      12B2     1.043938    23A1     1.055445    24A1     1.308228  
      25A1     1.378940     5A2     1.378948    13B1     1.448699  
      13B2     1.448699    26A1     1.456503    14B1     1.603148  
      14B2     1.603148    15B1     1.627148    15B2     1.627148  
      27A1     1.638058     6A2     1.638059    16B1     1.674212  
      16B2     1.674212    28A1     1.714299     7A2     1.714309  
      17B2     1.854203    17B1     1.854203    29A1     1.881153  
      30A1     1.906315     8A2     1.906319    18B1     1.984141  
      18B2     1.984141    31A1     1.985753     9A2     2.000388  
      32A1     2.000403    19B1     2.038989    19B2     2.038989  
      33A1     2.264665    20B1     2.299187    20B2     2.299187  
      34A1     2.312328    10A2     2.439769    35A1     2.439778  
      36A1     2.614623    21B1     2.764210    21B2     2.764210  
      37A1     2.838896    22B1     3.330540    22B2     3.330540  
      11A2     3.405035    38A1     3.405048    39A1     3.432050  
      23B1     3.633635    23B2     3.633635    40A1     4.078696  
      24B1     4.085831    24B2     4.085831    41A1     4.178900  
      12A2     4.178901    25B2     4.316247    25B1     4.316247  
      26B1     4.358690    26B2     4.358690    42A1     4.367449  
      13A2     4.367468    14A2     4.370729    43A1     4.370801  
      44A1     4.450029    45A1     4.494979    15A2     4.495200  
      27B1     4.608313    27B2     4.608313    28B1     4.631412  
      28B2     4.631412    46A1     5.001802    47A1     5.092889  
      16A2     5.147586    48A1     5.147610    29B2     5.250117  
      29B1     5.250117    30B2     5.266156    30B1     5.266156  
      49A1     5.325315    17A2     5.461904    50A1     5.461979  
      18A2     5.553626    51A1     5.553629    31B2     5.646355  
      31B1     5.646355    52A1     5.909958    32B2     6.093152  
      32B1     6.093152    33B2     6.490125    33B1     6.490125  
      53A1     6.501823    54A1     7.822881    19A2    10.779149  
      55A1    10.779197    34B1    10.938572    34B2    10.938572  
      56A1    11.160951    35B1    12.607148    35B2    12.607148  
      57A1    13.200156    20A2    13.200974    36B1    13.233456  
      36B2    13.233456    58A1    13.414350    21A2    13.414500  
      59A1    13.601786    37B2    13.602010    37B1    13.602010  
      60A1    13.845142    38B2    15.312187    38B1    15.312187  
      61A1    15.432462    22A2    15.432669    39B1    15.572015  
      39B2    15.572015    62A1    15.739958    23A2    16.190727  
      63A1    16.190905    40B1    16.665572    40B2    16.665572  
      64A1    16.883553    65A1    24.224724    66A1    53.381377  

    Final Occupation by Irrep:
             A1    A2    B1    B2 
    DOCC [     7,    0,    3,    3 ]

  @DF-RKS Final Energy:  -559.98779252054794

   => Energetics <=

    Nuclear Repulsion Energy =             49.4940238882349419
    One-Electron Energy =                -872.4285552369547077
    Two-Electron Energy =                 292.3515031229439955
    DFT Exchange-Correlation Energy =     -29.5146262726427118
    Empirical Dispersion Energy =           0.0000000000000000
    VV10 Nonlocal Energy =                  0.1098619778707183
    Total Energy =                       -559.9877925205477140

Computation Completed


Properties will be evaluated at   0.000000,   0.000000,   0.000000 [a0]

Properties computed using the SCF density matrix

  Nuclear Dipole Moment: [e a0]
     X:     0.0000      Y:     0.0000      Z:     0.4727

  Electronic Dipole Moment: [e a0]
     X:     0.0000      Y:     0.0000      Z:    -0.1196

  Dipole Moment: [e a0]
     X:     0.0000      Y:     0.0000      Z:     0.3532     Total:     0.3532

  Dipole Moment: [D]
     X:     0.0000      Y:     0.0000      Z:     0.8976     Total:     0.8976


*** tstop() called on bp1-compute00191.data.bp.acrc.priv at Mon Apr 19 15:54:09 2021
Module time:
	user time   =      62.73 seconds =       1.05 minutes
	system time =       2.03 seconds =       0.03 minutes
	total time  =          3 seconds =       0.05 minutes
Total time:
	user time   =     387.50 seconds =       6.46 minutes
	system time =      13.84 seconds =       0.23 minutes
	total time  =         17 seconds =       0.28 minutes

  //>>>>>>>>>>>>>>>>>>>>>>>>>>>>>>>>>>>//
  //    Loading displacement 3 of 3    //
  //<<<<<<<<<<<<<<<<<<<<<<<<<<<<<<<<<<<//

*** tstart() called on bp1-compute00191.data.bp.acrc.priv
*** at Mon Apr 19 15:54:09 2021

   => Loading Basis Set <=

    Name: AUG-CC-PV(Q+D)Z
    Role: ORBITAL
    Keyword: BASIS
    atoms 1 entry CL         line  1246 file /work/zw18965/.conda/envs/p4env/share/psi4/basis/aug-cc-pv_qpd_z.gbs 
    atoms 2 entry F          line   499 file /work/zw18965/.conda/envs/p4env/share/psi4/basis/aug-cc-pv_qpd_z.gbs 


         ---------------------------------------------------------
                                   SCF
               by Justin Turney, Rob Parrish, Andy Simmonett
                          and Daniel G. A. Smith
                              RKS Reference
                       24 Threads, 137329 MiB Core
         ---------------------------------------------------------

  ==> Geometry <==

    Molecular point group: c2v
    Full point group: C_inf_v

    Geometry (in Angstrom), charge = 0, multiplicity = 1:

       Center              X                  Y                   Z               Mass       
    ------------   -----------------  -----------------  -----------------  -----------------
         CL           0.000000000000     0.000000000000     0.576403747596    34.968852682000
         F            0.000000000000     0.000000000000    -1.060940625504    18.998403162730

  Running in c2v symmetry.

  Rotational constants: A = ************  B =      0.51080  C =      0.51080 [cm^-1]
  Rotational constants: A = ************  B =  15313.30697  C =  15313.30697 [MHz]
  Nuclear repulsion =   49.448432817614105

  Charge       = 0
  Multiplicity = 1
  Electrons    = 26
  Nalpha       = 13
  Nbeta        = 13

  ==> Algorithm <==

  SCF Algorithm Type is DF.
  DIIS enabled.
  MOM disabled.
  Fractional occupation disabled.
  Guess Type is READ.
  Energy threshold   = 1.00e-08
  Density threshold  = 1.00e-08
  Integral threshold = 0.00e+00

  ==> Primary Basis <==

  Basis Set: AUG-CC-PV(Q+D)Z
    Blend: AUG-CC-PV(Q+D)Z
    Number of shells: 43
    Number of basis function: 169
    Number of Cartesian functions: 220
    Spherical Harmonics?: true
    Max angular momentum: 4

  ==> DFT Potential <==

   => Composite Functional: WB97M-V <= 

    wB97M-V Hyb-GGA Exchange-Correlation Functional

    N. Mardirossian and M. Head-Gordon, J. Chem. Phys. 144, 214110 (2016)

    Deriv               =              1
    GGA                 =           TRUE
    Meta                =           TRUE

    Exchange Hybrid     =           TRUE
    MP2 Hybrid          =          FALSE

   => Exchange-Correlation Functionals <=

    1.0000   wB97M-V exchange-correlation functional

   => Exact (HF) Exchange <=

    0.8500            HF,LR [omega = 0.3000]
    0.1500               HF 

   => VV10 Non-Local Parameters <=

    VV10 B              =     6.0000E+00
    VV10 C              =     1.0000E-02

   => Molecular Quadrature <=

    Radial Scheme          =       TREUTLER
    Pruning Scheme         =           FLAT
    Nuclear Scheme         =       TREUTLER

    BS radius alpha        =              1
    Pruning alpha          =              1
    Radial Points          =             75
    Spherical Points       =            302
    Total Points           =          45099
    Total Blocks           =            423
    Max Points             =            255
    Max Functions          =            169

   => Loading Basis Set <=

    Name: (AUG-CC-PV(Q+D)Z AUX)
    Role: JKFIT
    Keyword: DF_BASIS_SCF
    atoms 1 entry CL         line   904 file /work/zw18965/.conda/envs/p4env/share/psi4/basis/aug-cc-pvqz-jkfit.gbs 
    atoms 2 entry F          line   388 file /work/zw18965/.conda/envs/p4env/share/psi4/basis/aug-cc-pvqz-jkfit.gbs 

   => Loading Basis Set <=

    Name: AUG-CC-PV(Q+D)Z
    Role: ORBITAL
    Keyword: BASIS
    atoms 1 entry CL         line  1246 file /work/zw18965/.conda/envs/p4env/share/psi4/basis/aug-cc-pv_qpd_z.gbs 
    atoms 2 entry F          line   499 file /work/zw18965/.conda/envs/p4env/share/psi4/basis/aug-cc-pv_qpd_z.gbs 

  Reading orbitals from file 180, no projection.

  ==> Pre-Iterations <==

   -------------------------------------------------------
    Irrep   Nso     Nmo     Nalpha   Nbeta   Ndocc  Nsocc
   -------------------------------------------------------
     A1        66      66       0       0       0       0
     A2        23      23       0       0       0       0
     B1        40      40       0       0       0       0
     B2        40      40       0       0       0       0
   -------------------------------------------------------
    Total     169     169      13      13      13       0
   -------------------------------------------------------

  ==> Integral Setup <==

  ==> DiskDFJK: Density-Fitted J/K Matrices <==

    J tasked:                  Yes
    K tasked:                  Yes
    wK tasked:                 Yes
    Omega:               3.000E-01
    OpenMP threads:             24
    Integrals threads:          24
    Memory [MiB]:           102507
    Algorithm:                Core
    Integral Cache:           NONE
    Schwarz Cutoff:          1E-12
    Fitting Condition:       1E-10

   => Auxiliary Basis Set <=

  Basis Set: (AUG-CC-PV(Q+D)Z AUX)
    Blend: AUG-CC-PVQZ-JKFIT
    Number of shells: 80
    Number of basis function: 326
    Number of Cartesian functions: 445
    Spherical Harmonics?: true
    Max angular momentum: 5

  Cached 100.0% of DFT collocation blocks in 0.478 [GiB].

  Minimum eigenvalue in the overlap matrix is 2.8342176751E-04.
  Using Symmetric Orthogonalization.

  SCF Guess: Orbitals guess was supplied from a previous computation.

  ==> Iterations <==

                           Total Energy        Delta E     RMS |[F,P]|

   @DF-RKS iter   0:  -559.98758250487833   -5.59988e+02   2.20228e-05 
   @DF-RKS iter   1:  -559.98777080718071   -1.88302e-04   4.11857e-06 DIIS
   @DF-RKS iter   2:  -559.98777083749007   -3.03094e-08   2.44736e-06 DIIS
   @DF-RKS iter   3:  -559.98777084921699   -1.17269e-08   4.25120e-07 DIIS
   @DF-RKS iter   4:  -559.98777084962228   -4.05294e-10   1.91634e-07 DIIS
   @DF-RKS iter   5:  -559.98777084974756   -1.25283e-10   3.43438e-08 DIIS
   @DF-RKS iter   6:  -559.98777084975256   -5.00222e-12   7.29854e-09 DIIS
  Energy and wave function converged.


  ==> Post-Iterations <==

    Orbital Energies [Eh]
    ---------------------

    Doubly Occupied:                                                      

       1A1  -101.980526     2A1   -24.958583     3A1    -9.731834  
       4A1    -7.442745     1B2    -7.426292     1B1    -7.426292  
       5A1    -1.377175     6A1    -0.962041     7A1    -0.641445  
       2B1    -0.605206     2B2    -0.605206     3B1    -0.437581  
       3B2    -0.437581  

    Virtual:                                                              

       8A1    -0.034542     9A1     0.050476     4B2     0.069646  
       4B1     0.069646    10A1     0.076527    11A1     0.153085  
       5B2     0.171566     5B1     0.171566     1A2     0.209514  
      12A1     0.209514     6B2     0.273640     6B1     0.273640  
      13A1     0.293790    14A1     0.296729     7B2     0.407072  
       7B1     0.407072    15A1     0.412084    16A1     0.520560  
       2A2     0.520562     8B2     0.533101     8B1     0.533101  
      17A1     0.557570    18A1     0.611107     3A2     0.611108  
      19A1     0.669933     9B1     0.735882     9B2     0.735882  
      10B2     0.737464    10B1     0.737464    20A1     0.802373  
      11B2     0.843278    11B1     0.843278     4A2     0.868160  
      21A1     0.868168    22A1     0.921783    12B1     1.044184  
      12B2     1.044184    23A1     1.055389    24A1     1.308098  
      25A1     1.378875     5A2     1.378883    13B1     1.448749  
      13B2     1.448749    26A1     1.456533    14B2     1.603154  
      14B1     1.603154    15B1     1.626574    15B2     1.626574  
      27A1     1.638104     6A2     1.638105    16B1     1.673921  
      16B2     1.673921    28A1     1.714271     7A2     1.714281  
      17B1     1.854160    17B2     1.854160    29A1     1.880754  
      30A1     1.906045     8A2     1.906049    18B2     1.983729  
      18B1     1.983729    31A1     1.985448     9A2     2.000174  
      32A1     2.000189    19B1     2.038701    19B2     2.038701  
      33A1     2.264320    20B1     2.298628    20B2     2.298628  
      34A1     2.312133    10A2     2.438820    35A1     2.438829  
      36A1     2.612697    21B1     2.765182    21B2     2.765182  
      37A1     2.838796    22B1     3.329819    22B2     3.329819  
      11A2     3.404985    38A1     3.404998    39A1     3.432483  
      23B1     3.631775    23B2     3.631775    40A1     4.078792  
      24B2     4.085868    24B1     4.085868    41A1     4.179570  
      12A2     4.179571    25B1     4.316278    25B2     4.316278  
      26B2     4.359030    26B1     4.359030    42A1     4.367018  
      13A2     4.367036    14A2     4.370664    43A1     4.370736  
      44A1     4.448643    45A1     4.495146    15A2     4.495367  
      27B2     4.607532    27B1     4.607532    28B2     4.630383  
      28B1     4.630383    46A1     5.000333    47A1     5.090248  
      16A2     5.145613    48A1     5.145637    29B2     5.250061  
      29B1     5.250061    30B1     5.266086    30B2     5.266086  
      49A1     5.323647    17A2     5.461423    50A1     5.461499  
      18A2     5.552573    51A1     5.552575    31B1     5.645922  
      31B2     5.645922    52A1     5.912679    32B1     6.091425  
      32B2     6.091425    33B1     6.486676    33B2     6.486676  
      53A1     6.496852    54A1     7.820872    19A2    10.778999  
      55A1    10.779048    34B1    10.938236    34B2    10.938236  
      56A1    11.159152    35B2    12.605564    35B1    12.605564  
      57A1    13.200329    20A2    13.201156    36B1    13.233385  
      36B2    13.233385    58A1    13.413663    21A2    13.413814  
      37B2    13.601888    37B1    13.601888    59A1    13.602062  
      60A1    13.840913    38B1    15.312241    38B2    15.312241  
      61A1    15.432236    22A2    15.432442    39B1    15.571426  
      39B2    15.571426    62A1    15.737873    23A2    16.190510  
      63A1    16.190691    40B1    16.664201    40B2    16.664201  
      64A1    16.883515    65A1    24.216421    66A1    53.377714  

    Final Occupation by Irrep:
             A1    A2    B1    B2 
    DOCC [     7,    0,    3,    3 ]

  @DF-RKS Final Energy:  -559.98777084975256

   => Energetics <=

    Nuclear Repulsion Energy =             49.4484328176141048
    One-Electron Energy =                -872.3387189713544103
    Two-Electron Energy =                 292.3067080228091186
    DFT Exchange-Correlation Energy =     -29.5140572373796175
    Empirical Dispersion Energy =           0.0000000000000000
    VV10 Nonlocal Energy =                  0.1098645185583642
    Total Energy =                       -559.9877708497525646

Computation Completed


Properties will be evaluated at   0.000000,   0.000000,   0.000000 [a0]

Properties computed using the SCF density matrix

  Nuclear Dipole Moment: [e a0]
     X:     0.0000      Y:     0.0000      Z:     0.4732

  Electronic Dipole Moment: [e a0]
     X:     0.0000      Y:     0.0000      Z:    -0.1182

  Dipole Moment: [e a0]
     X:     0.0000      Y:     0.0000      Z:     0.3550     Total:     0.3550

  Dipole Moment: [D]
     X:     0.0000      Y:     0.0000      Z:     0.9024     Total:     0.9024


*** tstop() called on bp1-compute00191.data.bp.acrc.priv at Mon Apr 19 15:54:12 2021
Module time:
	user time   =      56.54 seconds =       0.94 minutes
	system time =       1.52 seconds =       0.03 minutes
	total time  =          3 seconds =       0.05 minutes
Total time:
	user time   =     444.17 seconds =       7.40 minutes
	system time =      15.37 seconds =       0.26 minutes
	total time  =         20 seconds =       0.33 minutes

         ----------------------------------------------------------
                                   FINDIF
                     R. A. King and Jonathon Misiewicz
         ---------------------------------------------------------

  Computing gradient from energies.
    Using 3-point formula.
    Energy without displacement: -559.9877819886
    Check energies below for precision!
[...]
     X:     0.0000      Y:     0.0000      Z:     0.4690

  Electronic Dipole Moment: [e a0]
     X:     0.0000      Y:     0.0000      Z:    -0.1319

  Dipole Moment: [e a0]
     X:     0.0000      Y:     0.0000      Z:     0.3371     Total:     0.3371

  Dipole Moment: [D]
     X:     0.0000      Y:     0.0000      Z:     0.8569     Total:     0.8569


*** tstop() called on bp1-compute00191.data.bp.acrc.priv at Mon Apr 19 15:54:46 2021
Module time:
	user time   =      87.74 seconds =       1.46 minutes
	system time =       1.86 seconds =       0.03 minutes
	total time  =          4 seconds =       0.07 minutes
Total time:
	user time   =    1219.93 seconds =      20.33 minutes
	system time =      35.10 seconds =       0.59 minutes
	total time  =         54 seconds =       0.90 minutes

  //>>>>>>>>>>>>>>>>>>>>>>>>>>>>>>>>>>>//
  //    Loading displacement 3 of 3    //
  //<<<<<<<<<<<<<<<<<<<<<<<<<<<<<<<<<<<//

*** tstart() called on bp1-compute00191.data.bp.acrc.priv
*** at Mon Apr 19 15:54:46 2021

   => Loading Basis Set <=

    Name: AUG-CC-PV(Q+D)Z
    Role: ORBITAL
    Keyword: BASIS
    atoms 1 entry CL         line  1246 file /work/zw18965/.conda/envs/p4env/share/psi4/basis/aug-cc-pv_qpd_z.gbs 
    atoms 2 entry F          line   499 file /work/zw18965/.conda/envs/p4env/share/psi4/basis/aug-cc-pv_qpd_z.gbs 


         ---------------------------------------------------------
                                   SCF
               by Justin Turney, Rob Parrish, Andy Simmonett
                          and Daniel G. A. Smith
                              RKS Reference
                       24 Threads, 137329 MiB Core
         ---------------------------------------------------------

  ==> Geometry <==

    Molecular point group: c2v
    Full point group: C_inf_v

    Geometry (in Angstrom), charge = 0, multiplicity = 1:

       Center              X                  Y                   Z               Mass       
    ------------   -----------------  -----------------  -----------------  -----------------
         CL           0.000000000000     0.000000000000     0.571878448255    34.968852682000
         F            0.000000000000     0.000000000000    -1.052611266208    18.998403162730

  Running in c2v symmetry.

  Rotational constants: A = ************  B =      0.51891  C =      0.51891 [cm^-1]
  Rotational constants: A = ************  B =  15556.61558  C =  15556.61558 [MHz]
  Nuclear repulsion =   49.839720443703520

  Charge       = 0
  Multiplicity = 1
  Electrons    = 26
  Nalpha       = 13
  Nbeta        = 13

  ==> Algorithm <==

  SCF Algorithm Type is DF.
  DIIS enabled.
  MOM disabled.
  Fractional occupation disabled.
  Guess Type is SAD.
  Energy threshold   = 1.00e-10
  Density threshold  = 1.00e-10
  Integral threshold = 0.00e+00

  ==> Primary Basis <==

  Basis Set: AUG-CC-PV(Q+D)Z
    Blend: AUG-CC-PV(Q+D)Z
    Number of shells: 43
    Number of basis function: 169
    Number of Cartesian functions: 220
    Spherical Harmonics?: true
    Max angular momentum: 4

  ==> DFT Potential <==

   => Composite Functional: WB97M-V <= 

    wB97M-V Hyb-GGA Exchange-Correlation Functional

    N. Mardirossian and M. Head-Gordon, J. Chem. Phys. 144, 214110 (2016)

    Deriv               =              1
    GGA                 =           TRUE
    Meta                =           TRUE

    Exchange Hybrid     =           TRUE
    MP2 Hybrid          =          FALSE

   => Exchange-Correlation Functionals <=

    1.0000   wB97M-V exchange-correlation functional

   => Exact (HF) Exchange <=

    0.8500            HF,LR [omega = 0.3000]
    0.1500               HF 

   => VV10 Non-Local Parameters <=

    VV10 B              =     6.0000E+00
    VV10 C              =     1.0000E-02

   => Molecular Quadrature <=

    Radial Scheme          =       TREUTLER
    Pruning Scheme         =           FLAT
    Nuclear Scheme         =       TREUTLER

    BS radius alpha        =              1
    Pruning alpha          =              1
    Radial Points          =             75
    Spherical Points       =            302
    Total Points           =          45099
    Total Blocks           =            423
    Max Points             =            256
    Max Functions          =            169

   => Loading Basis Set <=

    Name: (AUG-CC-PV(Q+D)Z AUX)
    Role: JKFIT
    Keyword: DF_BASIS_SCF
    atoms 1 entry CL         line   904 file /work/zw18965/.conda/envs/p4env/share/psi4/basis/aug-cc-pvqz-jkfit.gbs 
    atoms 2 entry F          line   388 file /work/zw18965/.conda/envs/p4env/share/psi4/basis/aug-cc-pvqz-jkfit.gbs 

  ==> Pre-Iterations <==

   -------------------------------------------------------
    Irrep   Nso     Nmo     Nalpha   Nbeta   Ndocc  Nsocc
   -------------------------------------------------------
     A1        66      66       0       0       0       0
     A2        23      23       0       0       0       0
     B1        40      40       0       0       0       0
     B2        40      40       0       0       0       0
   -------------------------------------------------------
    Total     169     169      13      13      13       0
   -------------------------------------------------------

  ==> Integral Setup <==

  ==> DiskDFJK: Density-Fitted J/K Matrices <==

    J tasked:                  Yes
    K tasked:                  Yes
    wK tasked:                 Yes
    Omega:               3.000E-01
    OpenMP threads:             24
    Integrals threads:          24
    Memory [MiB]:           102507
    Algorithm:                Core
    Integral Cache:           NONE
    Schwarz Cutoff:          1E-12
    Fitting Condition:       1E-10

   => Auxiliary Basis Set <=

  Basis Set: (AUG-CC-PV(Q+D)Z AUX)
    Blend: AUG-CC-PVQZ-JKFIT
    Number of shells: 80
    Number of basis function: 326
    Number of Cartesian functions: 445
    Spherical Harmonics?: true
    Max angular momentum: 5

  Cached 100.0% of DFT collocation blocks in 0.478 [GiB].

  Minimum eigenvalue in the overlap matrix is 2.7621603393E-04.
  Using Symmetric Orthogonalization.

  SCF Guess: Superposition of Atomic Densities via on-the-fly atomic UHF.

  ==> Iterations <==

                           Total Energy        Delta E     RMS |[F,P]|

   @DF-RKS iter SAD:  -559.74840632787937   -5.59748e+02   0.00000e+00 
   @DF-RKS iter   1:  -559.96411669131726   -2.15710e-01   3.12132e-03 DIIS
   @DF-RKS iter   2:  -559.97768677096428   -1.35701e-02   2.25981e-03 DIIS
   @DF-RKS iter   3:  -559.98673344315648   -9.04667e-03   7.01065e-04 DIIS
   @DF-RKS iter   4:  -559.98781825702156   -1.08481e-03   1.11422e-04 DIIS
   @DF-RKS iter   5:  -559.98787087319374   -5.26162e-05   3.45723e-05 DIIS
   @DF-RKS iter   6:  -559.98787586852438   -4.99533e-06   6.26717e-06 DIIS
   @DF-RKS iter   7:  -559.98787624116198   -3.72638e-07   1.59573e-06 DIIS
   @DF-RKS iter   8:  -559.98787625986563   -1.87036e-08   4.67901e-07 DIIS
   @DF-RKS iter   9:  -559.98787626095941   -1.09378e-09   4.29120e-08 DIIS
   @DF-RKS iter  10:  -559.98787626097715   -1.77351e-11   5.56033e-09 DIIS
   @DF-RKS iter  11:  -559.98787626097680    3.41061e-13   9.91777e-10 DIIS
   @DF-RKS iter  12:  -559.98787626097692   -1.13687e-13   7.30550e-11 DIIS
  Energy and wave function converged.


  ==> Post-Iterations <==

    Orbital Energies [Eh]
    ---------------------

    Doubly Occupied:                                                      

       1A1  -101.979475     2A1   -24.959106     3A1    -9.730935  
       4A1    -7.441827     1B1    -7.425383     1B2    -7.425383  
       5A1    -1.381881     6A1    -0.961115     7A1    -0.643821  
       2B1    -0.608092     2B2    -0.608092     3B2    -0.436000  
       3B1    -0.436000  

    Virtual:                                                              

       8A1    -0.030194     9A1     0.050379     4B2     0.069621  
       4B1     0.069621    10A1     0.077413    11A1     0.153318  
       5B2     0.171374     5B1     0.171374    12A1     0.209600  
       1A2     0.209600     6B1     0.274447     6B2     0.274447  
      13A1     0.293326    14A1     0.297761     7B2     0.406592  
       7B1     0.406592    15A1     0.411882    16A1     0.520584  
       2A2     0.520586     8B1     0.534399     8B2     0.534399  
      17A1     0.558295    18A1     0.611660     3A2     0.611661  
      19A1     0.672940     9B2     0.735165     9B1     0.735165  
      10B2     0.737611    10B1     0.737611    20A1     0.804321  
      11B2     0.845104    11B1     0.845104     4A2     0.869394  
      21A1     0.869400    22A1     0.919877    12B1     1.042048  
      12B2     1.042048    23A1     1.055899    24A1     1.309244  
      25A1     1.379424     5A2     1.379431    13B1     1.448323  
      13B2     1.448323    26A1     1.456255    14B2     1.603120  
      14B1     1.603120    15B1     1.631486    15B2     1.631486  
      27A1     1.637680     6A2     1.637682    16B1     1.676471  
      16B2     1.676471    28A1     1.714508     7A2     1.714515  
      17B2     1.854528    17B1     1.854528    29A1     1.884194  
      30A1     1.908348     8A2     1.908356    18B2     1.987244  
      18B1     1.987244    31A1     1.988015     9A2     2.002010  
      32A1     2.002025    19B1     2.041180    19B2     2.041180  
      33A1     2.265757    20B1     2.303423    20B2     2.303423  
      34A1     2.315142    10A2     2.446930    35A1     2.446940  
      36A1     2.628787    21B1     2.756724    21B2     2.756724  
      37A1     2.840145    22B1     3.335929    22B2     3.335929  
      11A2     3.405438    38A1     3.405457    39A1     3.429200  
      23B1     3.647771    23B2     3.647771    40A1     4.078057  
      24B1     4.085782    24B2     4.085782    41A1     4.173950  
      12A2     4.173951    25B2     4.315937    25B1     4.315937  
      26B2     4.356086    26B1     4.356086    42A1     4.370767  
      13A2     4.370792    14A2     4.371229    43A1     4.371304  
      44A1     4.460205    45A1     4.493699    15A2     4.493919  
      27B2     4.614390    27B1     4.614390    28B2     4.639185  
      28B1     4.639185    46A1     5.011517    47A1     5.114098  
      16A2     5.162228    48A1     5.162253    29B1     5.250551  
      29B2     5.250551    30B2     5.266701    30B1     5.266701  
      49A1     5.338059    17A2     5.465798    50A1     5.465868  
      18A2     5.561694    51A1     5.561699    31B2     5.649596  
      31B1     5.649596    52A1     5.889823    32B2     6.105820  
      32B1     6.105820    33B1     6.516449    33B2     6.516449  
      53A1     6.539297    54A1     7.837346    19A2    10.780283  
      55A1    10.780333    34B2    10.940990    34B1    10.940990  
      56A1    11.174978    35B1    12.619439    35B2    12.619439  
      57A1    13.198835    20A2    13.199583    36B1    13.233996  
      36B2    13.233996    58A1    13.419510    21A2    13.419657  
      59A1    13.599492    37B2    13.602731    37B1    13.602731  
      60A1    13.876964    38B1    15.311768    38B2    15.311768  
      61A1    15.434163    22A2    15.434374    39B1    15.576674  
      39B2    15.576674    62A1    15.756152    23A2    16.192418  
      63A1    16.192584    40B2    16.675674    40B1    16.675674  
      64A1    16.883379    65A1    24.289422    66A1    53.409904  

    Final Occupation by Irrep:
             A1    A2    B1    B2 
    DOCC [     7,    0,    3,    3 ]

  @DF-RKS Final Energy:  -559.98787626097692

   => Energetics <=

    Nuclear Repulsion Energy =             49.8397204437035199
    One-Electron Energy =                -873.1094404383270557
    Two-Electron Energy =                 292.6909731066515405
    DFT Exchange-Correlation Energy =     -29.5189722741674814
    Empirical Dispersion Energy =           0.0000000000000000
    VV10 Nonlocal Energy =                  0.1098429011625333
    Total Energy =                       -559.9878762609769183

Computation Completed


Properties will be evaluated at   0.000000,   0.000000,   0.000000 [a0]

Properties computed using the SCF density matrix

  Nuclear Dipole Moment: [e a0]
     X:     0.0000      Y:     0.0000      Z:     0.4695

  Electronic Dipole Moment: [e a0]
     X:     0.0000      Y:     0.0000      Z:    -0.1304

  Dipole Moment: [e a0]
     X:     0.0000      Y:     0.0000      Z:     0.3390     Total:     0.3390

  Dipole Moment: [D]
     X:     0.0000      Y:     0.0000      Z:     0.8617     Total:     0.8617


*** tstop() called on bp1-compute00191.data.bp.acrc.priv at Mon Apr 19 15:54:50 2021
Module time:
	user time   =      89.17 seconds =       1.49 minutes
	system time =       2.02 seconds =       0.03 minutes
	total time  =          4 seconds =       0.07 minutes
Total time:
	user time   =    1309.23 seconds =      21.82 minutes
	system time =      37.12 seconds =       0.62 minutes
	total time  =         58 seconds =       0.97 minutes

         ----------------------------------------------------------
                                   FINDIF
                     R. A. King and Jonathon Misiewicz
         ---------------------------------------------------------

  Computing second-derivative from energies using projected, 
  symmetry-adapted, cartesian coordinates.

  3 energies passed in, including the reference geometry.
    Using 3-point formula.
    Energy without displacement: -559.9878767493
    Check energies below for precision!
    0: -1 :      -559.9878765909
    0: 1  :      -559.9878762610

-------------------------------------------------------------


  ==> Harmonic Vibrational Analysis <==

  non-mass-weighted Hessian:       Symmetric? True   Hermitian? True   Lin Dep Dim?  5 (0)
  projection of translations (True) and rotations (True) removed 5 degrees of freedom (5)
  total projector:                 Symmetric? True   Hermitian? True   Lin Dep Dim?  5 (5)
  mass-weighted Hessian:           Symmetric? True   Hermitian? True   Lin Dep Dim?  5 (0)
  pre-proj  low-frequency mode:    0.0000i [cm^-1]
  pre-proj  low-frequency mode:    0.0000  [cm^-1]
  pre-proj  low-frequency mode:    0.0000  [cm^-1]
  pre-proj  low-frequency mode:    0.0000  [cm^-1]
  pre-proj  low-frequency mode:    0.0000  [cm^-1]
  pre-proj  all modes:['0.0000i' '0.0000' '0.0000' '0.0000' '0.0000' '826.7353']
  projected mass-weighted Hessian: Symmetric? True   Hermitian? True   Lin Dep Dim?  5 (5)
  post-proj low-frequency mode:    0.0000i [cm^-1] (TR)
  post-proj low-frequency mode:    0.0000  [cm^-1] (TR)
  post-proj low-frequency mode:    0.0000  [cm^-1] (TR)
  post-proj low-frequency mode:    0.0000  [cm^-1] (TR)
  post-proj low-frequency mode:    0.0000  [cm^-1] (TR)
  post-proj  all modes:['0.0000i' '0.0000' '0.0000' '0.0000' '0.0000' '826.7353']

  Vibration                       6           
  Freq [cm^-1]                 826.7353       
  Irrep                           A1          
  Reduced mass [u]             22.6381        
  Force const [mDyne/A]         9.1164        
  Turning point v=0 [a0]        0.0802        
  RMS dev v=0 [a0 u^1/2]        0.2698        
  Char temp [K]               1189.4880       
  ----------------------------------------------------------------------------------
      1   CL               0.00  0.00 -0.48   
      2   F                0.00  0.00  0.88   

  ==> Thermochemistry Components <==

  Entropy, S
    Electronic S            0.000 [cal/(mol K)]        0.000 [J/(mol K)]       0.00000000 [mEh/K] (multiplicity = 1)
    Translational S        37.879 [cal/(mol K)]      158.488 [J/(mol K)]       0.06036475 [mEh/K] (mol. weight = 53.9673 [u], P = 101325.00 [Pa])
    Rotational S           13.888 [cal/(mol K)]       58.109 [J/(mol K)]       0.02213250 [mEh/K] (symmetry no. = 1)
    Vibrational S           0.187 [cal/(mol K)]        0.781 [J/(mol K)]       0.00029740 [mEh/K]
  Total S                  51.954 [cal/(mol K)]      217.377 [J/(mol K)]       0.08279465 [mEh/K]
  Correction S              0.000 [cal/(mol K)]        0.000 [J/(mol K)]       0.00000000 [mEh/K]

  Constant volume heat capacity, Cv
    Electronic Cv           0.000 [cal/(mol K)]        0.000 [J/(mol K)]       0.00000000 [mEh/K]
    Translational Cv        2.981 [cal/(mol K)]       12.472 [J/(mol K)]       0.00475022 [mEh/K]
    Rotational Cv           1.987 [cal/(mol K)]        8.314 [J/(mol K)]       0.00316681 [mEh/K]
    Vibrational Cv          0.608 [cal/(mol K)]        2.543 [J/(mol K)]       0.00096840 [mEh/K]
  Total Cv                  5.576 [cal/(mol K)]       23.329 [J/(mol K)]       0.00888542 [mEh/K]
  Correction Cv             0.000 [cal/(mol K)]        0.000 [J/(mol K)]       0.00000000 [mEh/K]

  Constant pressure heat capacity, Cp
    Electronic Cp           0.000 [cal/(mol K)]        0.000 [J/(mol K)]       0.00000000 [mEh/K]
    Translational Cp        4.968 [cal/(mol K)]       20.786 [J/(mol K)]       0.00791703 [mEh/K]
    Rotational Cp           1.987 [cal/(mol K)]        8.314 [J/(mol K)]       0.00316681 [mEh/K]
    Vibrational Cp          0.608 [cal/(mol K)]        2.543 [J/(mol K)]       0.00096840 [mEh/K]
  Total Cp                  7.563 [cal/(mol K)]       31.643 [J/(mol K)]       0.01205223 [mEh/K]
  Correction Cp             0.000 [cal/(mol K)]        0.000 [J/(mol K)]       0.00000000 [mEh/K]

  ==> Thermochemistry Energy Analysis <==

  Raw electronic energy, E0
  Total E0, Electronic energy at well bottom at 0 [K]                 -559.98787675 [Eh]

  Zero-point energy, ZPE_vib = Sum_i nu_i / 2
    Electronic ZPE          0.000 [kcal/mol]        0.000 [kJ/mol]       0.00000000 [Eh]
    Translational ZPE       0.000 [kcal/mol]        0.000 [kJ/mol]       0.00000000 [Eh]
    Rotational ZPE          0.000 [kcal/mol]        0.000 [kJ/mol]       0.00000000 [Eh]
    Vibrational ZPE         1.182 [kcal/mol]        4.945 [kJ/mol]       0.00188344 [Eh]         413.368 [cm^-1]
  Correction ZPE            1.182 [kcal/mol]        4.945 [kJ/mol]       0.00188344 [Eh]         413.368 [cm^-1]
  Total ZPE, Electronic energy at 0 [K]                               -559.98599331 [Eh]

  Thermal Energy, E (includes ZPE)
    Electronic E            0.000 [kcal/mol]        0.000 [kJ/mol]       0.00000000 [Eh]
    Translational E         0.889 [kcal/mol]        3.718 [kJ/mol]       0.00141628 [Eh]
    Rotational E            0.592 [kcal/mol]        2.479 [kJ/mol]       0.00094418 [Eh]
    Vibrational E           1.226 [kcal/mol]        5.131 [kJ/mol]       0.00195447 [Eh]
  Correction E              2.708 [kcal/mol]       11.329 [kJ/mol]       0.00431493 [Eh]
  Total E, Electronic energy at  298.15 [K]                           -559.98356181 [Eh]

  Enthalpy, H_trans = E_trans + k_B * T
    Electronic H            0.000 [kcal/mol]        0.000 [kJ/mol]       0.00000000 [Eh]
    Translational H         1.481 [kcal/mol]        6.197 [kJ/mol]       0.00236046 [Eh]
    Rotational H            0.592 [kcal/mol]        2.479 [kJ/mol]       0.00094418 [Eh]
    Vibrational H           1.226 [kcal/mol]        5.131 [kJ/mol]       0.00195447 [Eh]
  Correction H              3.300 [kcal/mol]       13.808 [kJ/mol]       0.00525912 [Eh]
  Total H, Enthalpy at  298.15 [K]                                    -559.98261763 [Eh]

  Gibbs free energy, G = H - T * S
    Electronic G            0.000 [kcal/mol]        0.000 [kJ/mol]       0.00000000 [Eh]
    Translational G        -9.813 [kcal/mol]      -41.056 [kJ/mol]      -0.01563729 [Eh]
    Rotational G           -3.548 [kcal/mol]      -14.846 [kJ/mol]      -0.00565462 [Eh]
    Vibrational G           1.171 [kcal/mol]        4.899 [kJ/mol]       0.00186580 [Eh]
  Correction G            -12.190 [kcal/mol]      -51.003 [kJ/mol]      -0.01942611 [Eh]
  Total G, Free enthalpy at  298.15 [K]                               -560.00730286 [Eh]

    Psi4 stopped on: Monday, 19 April 2021 03:54PM
    Psi4 wall time for execution: 0:00:59.15

*** Psi4 exiting successfully. Buy a developer a beer!
