
    -----------------------------------------------------------------------
          Psi4: An Open-Source Ab Initio Electronic Structure Package
                               Psi4 1.3.2 release

                         Git: Rev {HEAD} ecbda83 


    R. M. Parrish, L. A. Burns, D. G. A. Smith, A. C. Simmonett,
    A. E. DePrince III, E. G. Hohenstein, U. Bozkaya, A. Yu. Sokolov,
    R. Di Remigio, R. M. Richard, J. F. Gonthier, A. M. James,
    H. R. McAlexander, A. Kumar, M. Saitow, X. Wang, B. P. Pritchard,
    P. Verma, H. F. Schaefer III, K. Patkowski, R. A. King, E. F. Valeev,
    F. A. Evangelista, J. M. Turney, T. D. Crawford, and C. D. Sherrill,
    J. Chem. Theory Comput. 13(7) pp 3185--3197 (2017).
    (doi: 10.1021/acs.jctc.7b00174)


                         Additional Contributions by
    P. Kraus, H. Kruse, M. H. Lechner, M. C. Schieber, R. A. Shaw,
    A. Alenaizan, R. Galvelis, Z. L. Glick, S. Lehtola, and J. P. Misiewicz

    -----------------------------------------------------------------------


    Psi4 started on: Tuesday, 27 April 2021 04:46PM

    Process ID: 64360
    Host:       bp1-compute00065.data.bp.acrc.priv
    PSIDATADIR: /work/zw18965/.conda/envs/p4env/share/psi4
    Memory:     500.0 MiB
    Threads:    24
    
  ==> Input File <==

--------------------------------------------------------------------------
memory 144 GB

molecule {
0 1
C 0.0000000000 0.0000000000 0.0000000000
O 0.0000000000 0.0000000000 1.1626000000
O 0.0000000000 0.0000000000 -1.1626000000
}

set dynamic_level 1
set basis aug-cc-pV(Q+d)Z
 
optimize("wB97M-V")
frequencies("wB97M-V")
--------------------------------------------------------------------------

  Memory set to 134.110 GiB by Python driver.
gradient() will perform gradient computation by finite difference of analytic energies.

         ----------------------------------------------------------
                                   FINDIF
                     R. A. King and Jonathon Misiewicz
         ---------------------------------------------------------

  Using finite-differences of energies to determine gradients.
    Generating geometries for use with 3-point formula.
    Displacement size will be 5.00e-03.
    Number of atoms is 3.
    Number of symmetric SALCs is 1.
    Translations projected? 1. Rotations projected? 1.
    Number of geometries (including reference) is 3.

  //>>>>>>>>>>>>>>>>>>>>>>>>>>>>>>>>>>>//
  //    Loading displacement 1 of 3    //
  //<<<<<<<<<<<<<<<<<<<<<<<<<<<<<<<<<<<//

*** tstart() called on bp1-compute00065.data.bp.acrc.priv
*** at Tue Apr 27 16:46:30 2021

   => Loading Basis Set <=

    Name: AUG-CC-PV(Q+D)Z
    Role: ORBITAL
    Keyword: BASIS
    atoms 1   entry C          line   319 file /work/zw18965/.conda/envs/p4env/share/psi4/basis/aug-cc-pv_qpd_z.gbs 
    atoms 2-3 entry O          line   439 file /work/zw18965/.conda/envs/p4env/share/psi4/basis/aug-cc-pv_qpd_z.gbs 


         ---------------------------------------------------------
                                   SCF
               by Justin Turney, Rob Parrish, Andy Simmonett
                          and Daniel G. A. Smith
                              RKS Reference
                       24 Threads, 137329 MiB Core
         ---------------------------------------------------------

  ==> Geometry <==

    Molecular point group: d2h
    Full point group: D_inf_h

    Geometry (in Angstrom), charge = 0, multiplicity = 1:

       Center              X                  Y                   Z               Mass       
    ------------   -----------------  -----------------  -----------------  -----------------
         C            0.000000000000     0.000000000000     0.000000000000    12.000000000000
         O            0.000000000000     0.000000000000     1.162600000000    15.994914619570
         O            0.000000000000     0.000000000000    -1.162600000000    15.994914619570

  Running in d2h symmetry.

  Rotational constants: A = ************  B =      0.38987  C =      0.38987 [cm^-1]
  Rotational constants: A = ************  B =  11688.11942  C =  11688.11942 [MHz]
  Nuclear repulsion =   58.261382217237241

  Charge       = 0
  Multiplicity = 1
  Electrons    = 22
  Nalpha       = 11
  Nbeta        = 11

  ==> Algorithm <==

  SCF Algorithm Type is DF.
  DIIS enabled.
  MOM disabled.
  Fractional occupation disabled.
  Guess Type is SAD.
  Energy threshold   = 1.00e-08
  Density threshold  = 1.00e-08
  Integral threshold = 0.00e+00

  ==> Primary Basis <==

  Basis Set: AUG-CC-PV(Q+D)Z
    Blend: AUG-CC-PV(Q+D)Z
    Number of shells: 60
    Number of basis function: 240
    Number of Cartesian functions: 315
    Spherical Harmonics?: true
    Max angular momentum: 4

  ==> DFT Potential <==

   => Composite Functional: WB97M-V <= 

    wB97M-V Hyb-GGA Exchange-Correlation Functional

    N. Mardirossian and M. Head-Gordon, J. Chem. Phys. 144, 214110 (2016)

    Deriv               =              1
    GGA                 =           TRUE
    Meta                =           TRUE

    Exchange Hybrid     =           TRUE
    MP2 Hybrid          =          FALSE

   => Exchange-Correlation Functionals <=

    1.0000   wB97M-V exchange-correlation functional

   => Exact (HF) Exchange <=

    0.8500            HF,LR [omega = 0.3000]
    0.1500               HF 

   => VV10 Non-Local Parameters <=

    VV10 B              =     6.0000E+00
    VV10 C              =     1.0000E-02

   => Molecular Quadrature <=

    Radial Scheme          =       TREUTLER
    Pruning Scheme         =           FLAT
    Nuclear Scheme         =       TREUTLER

    BS radius alpha        =              1
    Pruning alpha          =              1
    Radial Points          =             75
    Spherical Points       =            302
    Total Points           =          67950
    Total Blocks           =            594
    Max Points             =            256
    Max Functions          =            240

   => Loading Basis Set <=

    Name: (AUG-CC-PV(Q+D)Z AUX)
    Role: JKFIT
    Keyword: DF_BASIS_SCF
    atoms 1   entry C          line   178 file /work/zw18965/.conda/envs/p4env/share/psi4/basis/aug-cc-pvqz-jkfit.gbs 
    atoms 2-3 entry O          line   318 file /work/zw18965/.conda/envs/p4env/share/psi4/basis/aug-cc-pvqz-jkfit.gbs 

  ==> Pre-Iterations <==

   -------------------------------------------------------
    Irrep   Nso     Nmo     Nalpha   Nbeta   Ndocc  Nsocc
   -------------------------------------------------------
     Ag        51      51       0       0       0       0
     B1g       19      19       0       0       0       0
     B2g       27      27       0       0       0       0
     B3g       27      27       0       0       0       0
     Au        14      14       0       0       0       0
     B1u       42      42       0       0       0       0
     B2u       30      30       0       0       0       0
     B3u       30      30       0       0       0       0
   -------------------------------------------------------
    Total     240     240      11      11      11       0
   -------------------------------------------------------

  ==> Integral Setup <==

  ==> DiskDFJK: Density-Fitted J/K Matrices <==

    J tasked:                  Yes
    K tasked:                  Yes
    wK tasked:                 Yes
    Omega:               3.000E-01
    OpenMP threads:             24
    Integrals threads:          24
    Memory [MiB]:           101963
    Algorithm:                Core
    Integral Cache:           NONE
    Schwarz Cutoff:          1E-12
    Fitting Condition:       1E-10

   => Auxiliary Basis Set <=

  Basis Set: (AUG-CC-PV(Q+D)Z AUX)
    Blend: AUG-CC-PVQZ-JKFIT
    Number of shells: 102
    Number of basis function: 426
    Number of Cartesian functions: 594
    Spherical Harmonics?: true
    Max angular momentum: 5

  Cached 100.0% of DFT collocation blocks in 1.009 [GiB].

  Minimum eigenvalue in the overlap matrix is 4.8517860641E-05.
  Using Symmetric Orthogonalization.

  SCF Guess: Superposition of Atomic Densities via on-the-fly atomic UHF.

  ==> Iterations <==

                           Total Energy        Delta E     RMS |[F,P]|

   @DF-RKS iter SAD:  -187.92513167857641   -1.87925e+02   0.00000e+00 
   @DF-RKS iter   1:  -188.51342432490043   -5.88293e-01   6.73289e-03 DIIS
   @DF-RKS iter   2:  -188.47437458821062    3.90497e-02   7.88374e-03 DIIS
   @DF-RKS iter   3:  -188.62954596574917   -1.55171e-01   3.40260e-04 DIIS
   @DF-RKS iter   4:  -188.62989916132580   -3.53196e-04   8.80659e-05 DIIS
   @DF-RKS iter   5:  -188.62992211844832   -2.29571e-05   6.70910e-06 DIIS
   @DF-RKS iter   6:  -188.62992236103051   -2.42582e-07   1.30342e-06 DIIS
   @DF-RKS iter   7:  -188.62992237090629   -9.87578e-09   2.06342e-07 DIIS
   @DF-RKS iter   8:  -188.62992237119877   -2.92488e-10   2.52066e-08 DIIS
   @DF-RKS iter   9:  -188.62992237120307   -4.29168e-12   3.78298e-09 DIIS
  Energy and wave function converged.


  ==> Post-Iterations <==

    Orbital Energies [Eh]
    ---------------------

    Doubly Occupied:                                                      

       1B1u  -19.415885     1Ag   -19.415851     2Ag   -10.539620  
       3Ag    -1.296644     2B1u   -1.253712     4Ag    -0.685948  
       3B1u   -0.637532     1B3u   -0.636330     1B2u   -0.636330  
       1B2g   -0.480261     1B3g   -0.480261  

    Virtual:                                                              

       5Ag     0.017110     2B3u    0.048879     2B2u    0.048879  
       4B1u    0.052833     6Ag     0.107163     2B3g    0.113916  
       2B2g    0.113916     3B2u    0.120123     3B3u    0.120123  
       7Ag     0.145154     5B1u    0.171511     4B3u    0.181596  
       4B2u    0.181596     1B1g    0.182398     8Ag     0.182401  
       6B1u    0.226371     5B2u    0.310334     5B3u    0.310334  
       9Ag     0.313629     3B3g    0.346302     3B2g    0.346302  
      10Ag     0.347522     1Au     0.422704     7B1u    0.422705  
       8B1u    0.462167    11Ag     0.517108     2B1g    0.532064  
      12Ag     0.532065     4B3g    0.550139     4B2g    0.550139  
       6B2u    0.581173     6B3u    0.581173     9B1u    0.597308  
      13Ag     0.631664     7B3u    0.673638     7B2u    0.673638  
      14Ag     0.725521     3B1g    0.725524    10B1u    0.759378  
       8B3u    0.781134     8B2u    0.781134    15Ag     0.824104  
       5B3g    0.841897     5B2g    0.841897     2Au     0.891775  
      11B1u    0.891778    12B1u    0.954494    13B1u    1.036498  
       9B2u    1.043396     9B3u    1.043396     6B3g    1.082373  
       6B2g    1.082373    16Ag     1.225563     7B2g    1.247588  
       7B3g    1.247588    17Ag     1.397804     3Au     1.400196  
      14B1u    1.400197    10B2u    1.450014    10B3u    1.450014  
      18Ag     1.457472     4B1g    1.457477    11B3u    1.480011  
      11B2u    1.480011    19Ag     1.536773     5B1g    1.536780  
       8B3g    1.552353     8B2g    1.552353    20Ag     1.552861  
      15B1u    1.568740    16B1u    1.589133    21Ag     1.773413  
       9B3g    1.794439     9B2g    1.794439     4Au     1.798538  
      17B1u    1.798548    12B2u    1.814182    12B3u    1.814182  
      18B1u    1.818738     6B1g    1.956069    22Ag     1.956072  
      23Ag     2.076957     7B1g    2.076961    13B3u    2.078946  
      13B2u    2.078946    14B2u    2.102007    14B3u    2.102007  
      10B2g    2.371176    10B3g    2.371176    11B3g    2.386498  
      11B2g    2.386498    15B2u    2.504352    15B3u    2.504352  
      19B1u    2.547665    24Ag     2.615231     5Au     2.744230  
      20B1u    2.744239    25Ag     2.874460    26Ag     2.979609  
       8B1g    2.979638    12B3g    2.994587    12B2g    2.994587  
      21B1u    3.251154    27Ag     3.317192    22B1u    3.436890  
       6Au     3.436904    13B3g    3.513664    13B2g    3.513664  
      28Ag     3.639639     9B1g    3.639654    29Ag     3.784250  
      14B3g    3.792555    14B2g    3.792555    23B1u    3.801438  
      16B2u    3.834531    16B3u    3.834531     7Au     3.892138  
      24B1u    3.892143    17B2u    3.909052    17B3u    3.909052  
      18B2u    3.993428    18B3u    3.993428    19B2u    4.012568  
      19B3u    4.012568    30Ag     4.036739    10B1g    4.036742  
      15B3g    4.097837    15B2g    4.097837    31Ag     4.100716  
       8Au     4.336630    25B1u    4.336631    11B1g    4.341141  
      32Ag     4.341149    26B1u    4.390840    20B2u    4.445014  
      20B3u    4.445014    33Ag     4.481674    16B3g    4.520520  
      16B2g    4.520520    17B3g    4.644215    17B2g    4.644215  
      27B1u    4.654931    34Ag     4.687493    12B1g    4.687498  
       9Au     5.213712    28B1u    5.213729    21B2u    5.324480  
      21B3u    5.324480    35Ag     5.603335    13B1g    5.603355  
      36Ag     5.609534    29B1u    5.626151    18B3g    5.701016  
      18B2g    5.701016    37Ag     5.907697    19B3g    5.945534  
      19B2g    5.945534    30B1u    6.006317    22B2u    6.096959  
      22B3u    6.096959    23B2u    6.199550    23B3u    6.199550  
      14B1g    6.364330    38Ag     6.364355    10Au     6.671322  
      31B1u    6.671330    32B1u    6.774576    20B3g    6.896823  
      20B2g    6.896823    39Ag     7.341567    40Ag     7.624634  
      15B1g    7.624635    24B2u    8.188553    24B3u    8.188553  
      41Ag     8.657789    21B3g    8.887450    21B2g    8.887450  
      33B1u    9.979690    34B1u   10.198341    11Au    10.198385  
      42Ag    10.280480    16B1g   10.280527    25B2u   10.394028  
      25B3u   10.394028    22B3g   10.596447    22B2g   10.596447  
      12Au    10.691839    35B1u   10.691851    23B3g   10.708392  
      23B2g   10.708392    26B2u   10.905797    26B3u   10.905797  
      24B3g   10.924251    24B2g   10.924251    17B1g   10.977119  
      43Ag    10.977142    36B1u   10.978541    27B3u   11.140863  
      27B2u   11.140863    44Ag    11.268713    25B3g   11.459551  
      25B2g   11.459551    28B2u   11.462932    28B3u   11.462932  
      37B1u   11.649863    13Au    11.955392    38B1u   11.955443  
      45Ag    12.027954    18B1g   12.046211    46Ag    12.046234  
      29B2u   12.133146    29B3u   12.133146    14Au    12.577210  
      39B1u   12.577220    19B1g   12.618705    47Ag    12.618734  
      26B3g   12.667632    26B2g   12.667632    40B1u   13.354725  
      30B3u   13.670654    30B2u   13.670654    48Ag    13.687743  
      49Ag    14.381373    27B3g   15.477709    27B2g   15.477709  
      41B1u   16.213913    50Ag    26.073728    42B1u   42.571723  
      51Ag    43.127155  

    Final Occupation by Irrep:
             Ag   B1g   B2g   B3g    Au   B1u   B2u   B3u 
    DOCC [     4,    0,    1,    1,    0,    3,    1,    1 ]

  @DF-RKS Final Energy:  -188.62992237120307

   => Energetics <=

    Nuclear Repulsion Energy =             58.2613822172372409
    One-Electron Energy =                -372.5402268952094005
    Two-Electron Energy =                 141.9531991535357918
    DFT Exchange-Correlation Energy =     -16.3960294414000280
    Empirical Dispersion Energy =           0.0000000000000000
    VV10 Nonlocal Energy =                  0.0917525946333398
    Total Energy =                       -188.6299223712030937

Computation Completed


Properties will be evaluated at   0.000000,   0.000000,   0.000000 [a0]

Properties computed using the SCF density matrix

  Nuclear Dipole Moment: [e a0]
     X:     0.0000      Y:     0.0000      Z:     0.0000

  Electronic Dipole Moment: [e a0]
     X:     0.0000      Y:     0.0000      Z:     0.0000

  Dipole Moment: [e a0]
     X:     0.0000      Y:     0.0000      Z:     0.0000     Total:     0.0000

  Dipole Moment: [D]
     X:     0.0000      Y:     0.0000      Z:     0.0000     Total:     0.0000


*** tstop() called on bp1-compute00065.data.bp.acrc.priv at Tue Apr 27 16:46:36 2021
Module time:
	user time   =     122.30 seconds =       2.04 minutes
	system time =      10.29 seconds =       0.17 minutes
	total time  =          6 seconds =       0.10 minutes
Total time:
	user time   =     122.30 seconds =       2.04 minutes
	system time =      10.29 seconds =       0.17 minutes
	total time  =          6 seconds =       0.10 minutes

  //>>>>>>>>>>>>>>>>>>>>>>>>>>>>>>>>>>>//
  //    Loading displacement 2 of 3    //
  //<<<<<<<<<<<<<<<<<<<<<<<<<<<<<<<<<<<//

*** tstart() called on bp1-compute00065.data.bp.acrc.priv
*** at Tue Apr 27 16:46:36 2021

   => Loading Basis Set <=

    Name: AUG-CC-PV(Q+D)Z
    Role: ORBITAL
    Keyword: BASIS
    atoms 1   entry C          line   319 file /work/zw18965/.conda/envs/p4env/share/psi4/basis/aug-cc-pv_qpd_z.gbs 
    atoms 2-3 entry O          line   439 file /work/zw18965/.conda/envs/p4env/share/psi4/basis/aug-cc-pv_qpd_z.gbs 


         ---------------------------------------------------------
                                   SCF
               by Justin Turney, Rob Parrish, Andy Simmonett
                          and Daniel G. A. Smith
                              RKS Reference
                       24 Threads, 137329 MiB Core
         ---------------------------------------------------------

  ==> Geometry <==

    Molecular point group: d2h
    Full point group: D_inf_h

    Geometry (in Angstrom), charge = 0, multiplicity = 1:

       Center              X                  Y                   Z               Mass       
    ------------   -----------------  -----------------  -----------------  -----------------
         C            0.000000000000     0.000000000000     0.000000000000    12.000000000000
         O            0.000000000000     0.000000000000     1.162132194659    15.994914619570
         O            0.000000000000     0.000000000000    -1.162132194659    15.994914619570

  Running in d2h symmetry.

  Rotational constants: A = ************  B =      0.39019  C =      0.39019 [cm^-1]
  Rotational constants: A = ************  B =  11697.53120  C =  11697.53120 [MHz]
  Nuclear repulsion =   58.284834786504561

  Charge       = 0
  Multiplicity = 1
  Electrons    = 22
  Nalpha       = 11
  Nbeta        = 11

  ==> Algorithm <==

  SCF Algorithm Type is DF.
  DIIS enabled.
  MOM disabled.
  Fractional occupation disabled.
  Guess Type is SAD.
  Energy threshold   = 1.00e-08
  Density threshold  = 1.00e-08
  Integral threshold = 0.00e+00

  ==> Primary Basis <==

  Basis Set: AUG-CC-PV(Q+D)Z
    Blend: AUG-CC-PV(Q+D)Z
    Number of shells: 60
    Number of basis function: 240
    Number of Cartesian functions: 315
    Spherical Harmonics?: true
    Max angular momentum: 4

  ==> DFT Potential <==

   => Composite Functional: WB97M-V <= 

    wB97M-V Hyb-GGA Exchange-Correlation Functional

    N. Mardirossian and M. Head-Gordon, J. Chem. Phys. 144, 214110 (2016)

    Deriv               =              1
    GGA                 =           TRUE
    Meta                =           TRUE

    Exchange Hybrid     =           TRUE
    MP2 Hybrid          =          FALSE

   => Exchange-Correlation Functionals <=

    1.0000   wB97M-V exchange-correlation functional

   => Exact (HF) Exchange <=

    0.8500            HF,LR [omega = 0.3000]
    0.1500               HF 

   => VV10 Non-Local Parameters <=

    VV10 B              =     6.0000E+00
    VV10 C              =     1.0000E-02

   => Molecular Quadrature <=

    Radial Scheme          =       TREUTLER
    Pruning Scheme         =           FLAT
    Nuclear Scheme         =       TREUTLER

    BS radius alpha        =              1
    Pruning alpha          =              1
    Radial Points          =             75
    Spherical Points       =            302
    Total Points           =          67950
    Total Blocks           =            594
    Max Points             =            256
    Max Functions          =            240

   => Loading Basis Set <=

    Name: (AUG-CC-PV(Q+D)Z AUX)
    Role: JKFIT
    Keyword: DF_BASIS_SCF
    atoms 1   entry C          line   178 file /work/zw18965/.conda/envs/p4env/share/psi4/basis/aug-cc-pvqz-jkfit.gbs 
    atoms 2-3 entry O          line   318 file /work/zw18965/.conda/envs/p4env/share/psi4/basis/aug-cc-pvqz-jkfit.gbs 

  ==> Pre-Iterations <==

   -------------------------------------------------------
    Irrep   Nso     Nmo     Nalpha   Nbeta   Ndocc  Nsocc
   -------------------------------------------------------
     Ag        51      51       0       0       0       0
     B1g       19      19       0       0       0       0
     B2g       27      27       0       0       0       0
     B3g       27      27       0       0       0       0
     Au        14      14       0       0       0       0
     B1u       42      42       0       0       0       0
     B2u       30      30       0       0       0       0
     B3u       30      30       0       0       0       0
   -------------------------------------------------------
    Total     240     240      11      11      11       0
   -------------------------------------------------------

  ==> Integral Setup <==

  ==> DiskDFJK: Density-Fitted J/K Matrices <==

    J tasked:                  Yes
    K tasked:                  Yes
    wK tasked:                 Yes
    Omega:               3.000E-01
    OpenMP threads:             24
    Integrals threads:          24
    Memory [MiB]:           101963
    Algorithm:                Core
    Integral Cache:           NONE
    Schwarz Cutoff:          1E-12
    Fitting Condition:       1E-10

   => Auxiliary Basis Set <=

  Basis Set: (AUG-CC-PV(Q+D)Z AUX)
    Blend: AUG-CC-PVQZ-JKFIT
    Number of shells: 102
    Number of basis function: 426
    Number of Cartesian functions: 594
    Spherical Harmonics?: true
    Max angular momentum: 5

  Cached 100.0% of DFT collocation blocks in 1.009 [GiB].

  Minimum eigenvalue in the overlap matrix is 4.8426462643E-05.
  Using Symmetric Orthogonalization.

  SCF Guess: Superposition of Atomic Densities via on-the-fly atomic UHF.

  ==> Iterations <==

                           Total Energy        Delta E     RMS |[F,P]|

   @DF-RKS iter SAD:  -187.92676621793828   -1.87927e+02   0.00000e+00 
   @DF-RKS iter   1:  -188.51350136191400   -5.86735e-01   6.73248e-03 DIIS
   @DF-RKS iter   2:  -188.47479506581621    3.87063e-02   7.87503e-03 DIIS
   @DF-RKS iter   3:  -188.62956403993206   -1.54769e-01   3.40568e-04 DIIS
   @DF-RKS iter   4:  -188.62991782360416   -3.53784e-04   8.80587e-05 DIIS
   @DF-RKS iter   5:  -188.62994076500249   -2.29414e-05   6.69457e-06 DIIS
   @DF-RKS iter   6:  -188.62994100665171   -2.41649e-07   1.29663e-06 DIIS
   @DF-RKS iter   7:  -188.62994101643946   -9.78775e-09   2.04547e-07 DIIS
   @DF-RKS iter   8:  -188.62994101672726   -2.87798e-10   2.49793e-08 DIIS
   @DF-RKS iter   9:  -188.62994101673158   -4.32010e-12   3.76062e-09 DIIS
  Energy and wave function converged.


  ==> Post-Iterations <==

    Orbital Energies [Eh]
    ---------------------

    Doubly Occupied:                                                      

       1B1u  -19.415774     1Ag   -19.415740     2Ag   -10.539399  
       3Ag    -1.296856     2B1u   -1.253926     4Ag    -0.685862  
       3B1u   -0.637561     1B2u   -0.636494     1B3u   -0.636494  
       1B3g   -0.480280     1B2g   -0.480280  

    Virtual:                                                              

       5Ag     0.017130     2B2u    0.048876     2B3u    0.048876  
       4B1u    0.052835     6Ag     0.107172     2B3g    0.113918  
       2B2g    0.113918     3B2u    0.120429     3B3u    0.120429  
       7Ag     0.145235     5B1u    0.171522     4B2u    0.181592  
       4B3u    0.181592     1B1g    0.182393     8Ag     0.182396  
       6B1u    0.226363     5B2u    0.310380     5B3u    0.310380  
       9Ag     0.313800     3B3g    0.346299     3B2g    0.346299  
      10Ag     0.347687     1Au     0.422683     7B1u    0.422683  
       8B1u    0.462183    11Ag     0.517225     2B1g    0.532042  
      12Ag     0.532043     4B3g    0.550221     4B2g    0.550221  
       6B2u    0.581088     6B3u    0.581088     9B1u    0.597283  
      13Ag     0.631812     7B3u    0.673634     7B2u    0.673634  
      14Ag     0.725543     3B1g    0.725545    10B1u    0.759500  
       8B2u    0.781159     8B3u    0.781159    15Ag     0.824140  
       5B3g    0.841848     5B2g    0.841848     2Au     0.891809  
      11B1u    0.891812    12B1u    0.954426    13B1u    1.037644  
       9B2u    1.043430     9B3u    1.043430     6B2g    1.082767  
       6B3g    1.082767    16Ag     1.225570     7B3g    1.247591  
       7B2g    1.247591    17Ag     1.398036     3Au     1.400209  
      14B1u    1.400210    10B2u    1.450054    10B3u    1.450054  
      18Ag     1.457506     4B1g    1.457510    11B2u    1.480153  
      11B3u    1.480153    19Ag     1.536608     5B1g    1.536615  
       8B3g    1.552349     8B2g    1.552349    20Ag     1.552980  
      15B1u    1.569118    16B1u    1.588878    21Ag     1.773364  
       9B2g    1.794501     9B3g    1.794501     4Au     1.798590  
      17B1u    1.798600    12B2u    1.813853    12B3u    1.813853  
      18B1u    1.818755     6B1g    1.956091    22Ag     1.956094  
      23Ag     2.077408     7B1g    2.077411    13B3u    2.079033  
      13B2u    2.079033    14B2u    2.102642    14B3u    2.102642  
      10B2g    2.371385    10B3g    2.371385    11B3g    2.386249  
      11B2g    2.386249    15B2u    2.504953    15B3u    2.504953  
      19B1u    2.547864    24Ag     2.615946     5Au     2.744718  
      20B1u    2.744727    25Ag     2.874665    26Ag     2.979757  
       8B1g    2.979786    12B3g    2.995204    12B2g    2.995204  
      21B1u    3.250564    27Ag     3.317872    22B1u    3.436879  
       6Au     3.436893    13B2g    3.513772    13B3g    3.513772  
      28Ag     3.639927     9B1g    3.639942    29Ag     3.784274  
      14B3g    3.792531    14B2g    3.792531    23B1u    3.801954  
      16B2u    3.834839    16B3u    3.834839     7Au     3.892190  
      24B1u    3.892195    17B2u    3.909583    17B3u    3.909583  
      18B2u    3.993746    18B3u    3.993746    19B2u    4.012761  
      19B3u    4.012761    30Ag     4.036818    10B1g    4.036821  
      15B3g    4.098445    15B2g    4.098445    31Ag     4.101307  
       8Au     4.336773    25B1u    4.336774    11B1g    4.341704  
      32Ag     4.341711    26B1u    4.391137    20B2u    4.444740  
      20B3u    4.444740    33Ag     4.482596    16B3g    4.521200  
      16B2g    4.521200    17B3g    4.643190    17B2g    4.643190  
      27B1u    4.656526    34Ag     4.687568    12B1g    4.687573  
       9Au     5.214203    28B1u    5.214220    21B2u    5.325984  
      21B3u    5.325984    35Ag     5.603378    13B1g    5.603398  
      36Ag     5.610696    29B1u    5.624396    18B3g    5.702082  
      18B2g    5.702082    37Ag     5.906693    19B2g    5.946371  
      19B3g    5.946371    30B1u    6.008087    22B3u    6.097028  
      22B2u    6.097028    23B2u    6.200396    23B3u    6.200396  
      14B1g    6.365246    38Ag     6.365271    10Au     6.673092  
      31B1u    6.673101    32B1u    6.776052    20B3g    6.898432  
      20B2g    6.898432    39Ag     7.344373    40Ag     7.626514  
      15B1g    7.626515    24B2u    8.191064    24B3u    8.191064  
      41Ag     8.660603    21B3g    8.886751    21B2g    8.886751  
      33B1u    9.981897    34B1u   10.198336    11Au    10.198380  
      42Ag    10.280613    16B1g   10.280660    25B2u   10.394325  
      25B3u   10.394325    22B3g   10.596731    22B2g   10.596731  
      12Au    10.692327    35B1u   10.692339    23B3g   10.708850  
      23B2g   10.708850    26B2u   10.906309    26B3u   10.906309  
      24B2g   10.924530    24B3g   10.924530    36B1u   10.977675  
      17B1g   10.978279    43Ag    10.978302    27B2u   11.141794  
      27B3u   11.141794    44Ag    11.270341    25B3g   11.459904  
      25B2g   11.459904    28B2u   11.463040    28B3u   11.463040  
      37B1u   11.649951    13Au    11.956407    38B1u   11.956458  
      45Ag    12.029046    18B1g   12.045811    46Ag    12.045833  
      29B2u   12.132567    29B3u   12.132567    14Au    12.577656  
      39B1u   12.577666    19B1g   12.620526    47Ag    12.620555  
      26B3g   12.670076    26B2g   12.670076    40B1u   13.357242  
      30B2u   13.674578    30B3u   13.674578    48Ag    13.688967  
      49Ag    14.381376    27B3g   15.481790    27B2g   15.481790  
      41B1u   16.220641    50Ag    26.080012    42B1u   42.572106  
      51Ag    43.136015  

    Final Occupation by Irrep:
             Ag   B1g   B2g   B3g    Au   B1u   B2u   B3u 
    DOCC [     4,    0,    1,    1,    0,    3,    1,    1 ]

  @DF-RKS Final Energy:  -188.62994101673158

   => Energetics <=

    Nuclear Repulsion Energy =             58.2848347865045611
    One-Electron Energy =                -372.5861271229997556
    Two-Electron Energy =                 141.9764059502140299
    DFT Exchange-Correlation Energy =     -16.3968070506719172
    Empirical Dispersion Energy =           0.0000000000000000
    VV10 Nonlocal Energy =                  0.0917524202215059
    Total Energy =                       -188.6299410167315784

Computation Completed


Properties will be evaluated at   0.000000,   0.000000,   0.000000 [a0]

Properties computed using the SCF density matrix

  Nuclear Dipole Moment: [e a0]
     X:     0.0000      Y:     0.0000      Z:     0.0000

  Electronic Dipole Moment: [e a0]
     X:     0.0000      Y:     0.0000      Z:     0.0000

  Dipole Moment: [e a0]
     X:     0.0000      Y:     0.0000      Z:     0.0000     Total:     0.0000

  Dipole Moment: [D]
     X:     0.0000      Y:     0.0000      Z:     0.0000     Total:     0.0000


*** tstop() called on bp1-compute00065.data.bp.acrc.priv at Tue Apr 27 16:46:42 2021
Module time:
	user time   =     128.13 seconds =       2.14 minutes
	system time =       7.29 seconds =       0.12 minutes
	total time  =          6 seconds =       0.10 minutes
Total time:
	user time   =     250.58 seconds =       4.18 minutes
	system time =      17.59 seconds =       0.29 minutes
	total time  =         12 seconds =       0.20 minutes

  //>>>>>>>>>>>>>>>>>>>>>>>>>>>>>>>>>>>//
  //    Loading displacement 3 of 3    //
  //<<<<<<<<<<<<<<<<<<<<<<<<<<<<<<<<<<<//

*** tstart() called on bp1-compute00065.data.bp.acrc.priv
*** at Tue Apr 27 16:46:42 2021

   => Loading Basis Set <=

    Name: AUG-CC-PV(Q+D)Z
    Role: ORBITAL
    Keyword: BASIS
    atoms 1   entry C          line   319 file /work/zw18965/.conda/envs/p4env/share/psi4/basis/aug-cc-pv_qpd_z.gbs 
    atoms 2-3 entry O          line   439 file /work/zw18965/.conda/envs/p4env/share/psi4/basis/aug-cc-pv_qpd_z.gbs 


         ---------------------------------------------------------
                                   SCF
               by Justin Turney, Rob Parrish, Andy Simmonett
                          and Daniel G. A. Smith
                              RKS Reference
                       24 Threads, 137329 MiB Core
         ---------------------------------------------------------

  ==> Geometry <==

    Molecular point group: d2h
    Full point group: D_inf_h

    Geometry (in Angstrom), charge = 0, multiplicity = 1:

       Center              X                  Y                   Z               Mass       
    ------------   -----------------  -----------------  -----------------  -----------------
         C            0.000000000000     0.000000000000     0.000000000000    12.000000000000
         O            0.000000000000     0.000000000000     1.163067805341    15.994914619570
         O            0.000000000000     0.000000000000    -1.163067805341    15.994914619570

  Running in d2h symmetry.

  Rotational constants: A = ************  B =      0.38956  C =      0.38956 [cm^-1]
  Rotational constants: A = ************  B =  11678.71900  C =  11678.71900 [MHz]
  Nuclear repulsion =   58.237948514001836

  Charge       = 0
  Multiplicity = 1
  Electrons    = 22
  Nalpha       = 11
  Nbeta        = 11

  ==> Algorithm <==

  SCF Algorithm Type is DF.
  DIIS enabled.
  MOM disabled.
  Fractional occupation disabled.
  Guess Type is SAD.
  Energy threshold   = 1.00e-08
  Density threshold  = 1.00e-08
  Integral threshold = 0.00e+00

  ==> Primary Basis <==

  Basis Set: AUG-CC-PV(Q+D)Z
    Blend: AUG-CC-PV(Q+D)Z
    Number of shells: 60
    Number of basis function: 240
    Number of Cartesian functions: 315
    Spherical Harmonics?: true
    Max angular momentum: 4

  ==> DFT Potential <==

   => Composite Functional: WB97M-V <= 

    wB97M-V Hyb-GGA Exchange-Correlation Functional

    N. Mardirossian and M. Head-Gordon, J. Chem. Phys. 144, 214110 (2016)

    Deriv               =              1
    GGA                 =           TRUE
    Meta                =           TRUE

    Exchange Hybrid     =           TRUE
    MP2 Hybrid          =          FALSE

   => Exchange-Correlation Functionals <=

    1.0000   wB97M-V exchange-correlation functional

   => Exact (HF) Exchange <=

    0.8500            HF,LR [omega = 0.3000]
    0.1500               HF 

   => VV10 Non-Local Parameters <=

    VV10 B              =     6.0000E+00
    VV10 C              =     1.0000E-02

   => Molecular Quadrature <=

    Radial Scheme          =       TREUTLER
    Pruning Scheme         =           FLAT
    Nuclear Scheme         =       TREUTLER

    BS radius alpha        =              1
    Pruning alpha          =              1
    Radial Points          =             75
    Spherical Points       =            302
    Total Points           =          67950
    Total Blocks           =            595
    Max Points             =            256
    Max Functions          =            240

   => Loading Basis Set <=

    Name: (AUG-CC-PV(Q+D)Z AUX)
    Role: JKFIT
    Keyword: DF_BASIS_SCF
    atoms 1   entry C          line   178 file /work/zw18965/.conda/envs/p4env/share/psi4/basis/aug-cc-pvqz-jkfit.gbs 
    atoms 2-3 entry O          line   318 file /work/zw18965/.conda/envs/p4env/share/psi4/basis/aug-cc-pvqz-jkfit.gbs 

  ==> Pre-Iterations <==

   -------------------------------------------------------
    Irrep   Nso     Nmo     Nalpha   Nbeta   Ndocc  Nsocc
   -------------------------------------------------------
     Ag        51      51       0       0       0       0
     B1g       19      19       0       0       0       0
     B2g       27      27       0       0       0       0
     B3g       27      27       0       0       0       0
     Au        14      14       0       0       0       0
     B1u       42      42       0       0       0       0
     B2u       30      30       0       0       0       0
     B3u       30      30       0       0       0       0
   -------------------------------------------------------
    Total     240     240      11      11      11       0
   -------------------------------------------------------

  ==> Integral Setup <==

  ==> DiskDFJK: Density-Fitted J/K Matrices <==

    J tasked:                  Yes
    K tasked:                  Yes
    wK tasked:                 Yes
    Omega:               3.000E-01
    OpenMP threads:             24
    Integrals threads:          24
    Memory [MiB]:           101963
    Algorithm:                Core
    Integral Cache:           NONE
    Schwarz Cutoff:          1E-12
    Fitting Condition:       1E-10

   => Auxiliary Basis Set <=

  Basis Set: (AUG-CC-PV(Q+D)Z AUX)
    Blend: AUG-CC-PVQZ-JKFIT
    Number of shells: 102
    Number of basis function: 426
    Number of Cartesian functions: 594
    Spherical Harmonics?: true
    Max angular momentum: 5

  Cached 100.0% of DFT collocation blocks in 1.009 [GiB].

  Minimum eigenvalue in the overlap matrix is 4.8609481461E-05.
  Using Symmetric Orthogonalization.

  SCF Guess: Superposition of Atomic Densities via on-the-fly atomic UHF.

  ==> Iterations <==

                           Total Energy        Delta E     RMS |[F,P]|

   @DF-RKS iter SAD:  -187.92349790166213   -1.87923e+02   0.00000e+00 
   @DF-RKS iter   1:  -188.51334506148524   -5.89847e-01   6.73331e-03 DIIS
   @DF-RKS iter   2:  -188.47395093211964    3.93941e-02   7.89246e-03 DIIS
   @DF-RKS iter   3:  -188.62952612543918   -1.55575e-01   3.39954e-04 DIIS
   @DF-RKS iter   4:  -188.62987873432672   -3.52609e-04   8.80735e-05 DIIS
   @DF-RKS iter   5:  -188.62990170741401   -2.29731e-05   6.72374e-06 DIIS
   @DF-RKS iter   6:  -188.62990195094264   -2.43529e-07   1.31027e-06 DIIS
   @DF-RKS iter   7:  -188.62990196090868   -9.96604e-09   2.08153e-07 DIIS
   @DF-RKS iter   8:  -188.62990196120535   -2.96666e-10   2.54336e-08 DIIS
   @DF-RKS iter   9:  -188.62990196121001   -4.66116e-12   3.80491e-09 DIIS
  Energy and wave function converged.


  ==> Post-Iterations <==

    Orbital Energies [Eh]
    ---------------------

    Doubly Occupied:                                                      

       1B1u  -19.415996     1Ag   -19.415962     2Ag   -10.539840  
       3Ag    -1.296432     2B1u   -1.253498     4Ag    -0.686033  
       3B1u   -0.637504     1B3u   -0.636166     1B2u   -0.636166  
       1B2g   -0.480241     1B3g   -0.480241  

    Virtual:                                                              

       5Ag     0.017089     2B3u    0.048883     2B2u    0.048883  
       4B1u    0.052830     6Ag     0.107154     2B2g    0.113913  
       2B3g    0.113913     3B2u    0.119817     3B3u    0.119817  
       7Ag     0.145072     5B1u    0.171501     4B3u    0.181600  
       4B2u    0.181600     1B1g    0.182403     8Ag     0.182406  
       6B1u    0.226378     5B3u    0.310289     5B2u    0.310289  
       9Ag     0.313457     3B3g    0.346305     3B2g    0.346305  
      10Ag     0.347357     1Au     0.422725     7B1u    0.422726  
       8B1u    0.462150    11Ag     0.516990     2B1g    0.532086  
      12Ag     0.532087     4B3g    0.550057     4B2g    0.550057  
       6B3u    0.581258     6B2u    0.581258     9B1u    0.597333  
      13Ag     0.631516     7B3u    0.673641     7B2u    0.673641  
      14Ag     0.725500     3B1g    0.725502    10B1u    0.759255  
       8B3u    0.781110     8B2u    0.781110    15Ag     0.824068  
       5B3g    0.841945     5B2g    0.841945     2Au     0.891742  
      11B1u    0.891744    12B1u    0.954560    13B1u    1.035353  
       9B2u    1.043361     9B3u    1.043361     6B3g    1.081981  
       6B2g    1.081981    16Ag     1.225556     7B2g    1.247585  
       7B3g    1.247585    17Ag     1.397571     3Au     1.400183  
      14B1u    1.400184    10B2u    1.449974    10B3u    1.449974  
      18Ag     1.457439     4B1g    1.457444    11B3u    1.479869  
      11B2u    1.479869    19Ag     1.536937     5B1g    1.536945  
       8B3g    1.552357     8B2g    1.552357    20Ag     1.552742  
      15B1u    1.568363    16B1u    1.589390    21Ag     1.773462  
       9B3g    1.794377     9B2g    1.794377     4Au     1.798486  
      17B1u    1.798496    12B2u    1.814510    12B3u    1.814510  
      18B1u    1.818721     6B1g    1.956048    22Ag     1.956050  
      23Ag     2.076508     7B1g    2.076511    13B2u    2.078858  
      13B3u    2.078858    14B2u    2.101373    14B3u    2.101373  
      10B3g    2.370967    10B2g    2.370967    11B2g    2.386746  
      11B3g    2.386746    15B2u    2.503752    15B3u    2.503752  
      19B1u    2.547464    24Ag     2.614515     5Au     2.743742  
      20B1u    2.743750    25Ag     2.874256    26Ag     2.979461  
       8B1g    2.979491    12B3g    2.993971    12B2g    2.993971  
      21B1u    3.251746    27Ag     3.316514    22B1u    3.436901  
       6Au     3.436915    13B3g    3.513555    13B2g    3.513555  
      28Ag     3.639351     9B1g    3.639366    29Ag     3.784227  
      14B3g    3.792579    14B2g    3.792579    23B1u    3.800920  
      16B2u    3.834221    16B3u    3.834221     7Au     3.892086  
      24B1u    3.892091    17B2u    3.908520    17B3u    3.908520  
      18B2u    3.993113    18B3u    3.993113    19B2u    4.012370  
      19B3u    4.012370    30Ag     4.036658    10B1g    4.036661  
      15B3g    4.097230    15B2g    4.097230    31Ag     4.100128  
       8Au     4.336486    25B1u    4.336488    11B1g    4.340578  
      32Ag     4.340586    26B1u    4.390543    20B2u    4.445296  
      20B3u    4.445296    33Ag     4.480754    16B3g    4.519840  
      16B2g    4.519840    17B3g    4.645237    17B2g    4.645237  
      27B1u    4.653336    34Ag     4.687420    12B1g    4.687426  
       9Au     5.213219    28B1u    5.213236    21B2u    5.322976  
      21B3u    5.322976    35Ag     5.603291    13B1g    5.603312  
      36Ag     5.608372    29B1u    5.627877    18B3g    5.699950  
      18B2g    5.699950    37Ag     5.908698    19B2g    5.944699  
      19B3g    5.944699    30B1u    6.004582    22B2u    6.096890  
      22B3u    6.096890    23B2u    6.198704    23B3u    6.198704  
      14B1g    6.363414    38Ag     6.363439    10Au     6.669556  
      31B1u    6.669564    32B1u    6.773102    20B3g    6.895217  
      20B2g    6.895217    39Ag     7.338761    40Ag     7.622753  
      15B1g    7.622755    24B2u    8.186044    24B3u    8.186044  
      41Ag     8.654986    21B3g    8.888130    21B2g    8.888130  
      33B1u    9.977472    34B1u   10.198346    11Au    10.198390  
      42Ag    10.280347    16B1g   10.280394    25B2u   10.393732  
      25B3u   10.393732    22B3g   10.596169    22B2g   10.596169  
      12Au    10.691353    35B1u   10.691365    23B3g   10.707934  
      23B2g   10.707934    26B2u   10.905285    26B3u   10.905285  
      24B3g   10.923983    24B2g   10.923983    17B1g   10.975958  
      43Ag    10.975981    36B1u   10.979399    27B2u   11.139924  
      27B3u   11.139924    44Ag    11.267085    25B3g   11.459199  
      25B2g   11.459199    28B3u   11.462824    28B2u   11.462824  
      37B1u   11.649781    13Au    11.954378    38B1u   11.954429  
      45Ag    12.026860    18B1g   12.046609    46Ag    12.046632  
      29B2u   12.133734    29B3u   12.133734    14Au    12.576764  
      39B1u   12.576774    19B1g   12.616893    47Ag    12.616921  
      26B3g   12.665192    26B2g   12.665192    40B1u   13.352219  
      30B2u   13.666735    30B3u   13.666735    48Ag    13.686486  
      49Ag    14.381406    27B3g   15.473614    27B2g   15.473614  
      41B1u   16.207179    50Ag    26.067443    42B1u   42.571344  
      51Ag    43.118316  

    Final Occupation by Irrep:
             Ag   B1g   B2g   B3g    Au   B1u   B2u   B3u 
    DOCC [     4,    0,    1,    1,    0,    3,    1,    1 ]

  @DF-RKS Final Energy:  -188.62990196121001

   => Energetics <=

    Nuclear Repulsion Energy =             58.2379485140018360
    One-Electron Energy =                -372.4943605292154984
    Two-Electron Energy =                 141.9300100027139706
    DFT Exchange-Correlation Energy =     -16.3952527183675372
    Empirical Dispersion Energy =           0.0000000000000000
    VV10 Nonlocal Energy =                  0.0917527696571776
    Total Energy =                       -188.6299019612100381

Computation Completed


Properties will be evaluated at   0.000000,   0.000000,   0.000000 [a0]

Properties computed using the SCF density matrix

  Nuclear Dipole Moment: [e a0]
     X:     0.0000      Y:     0.0000      Z:     0.0000

  Electronic Dipole Moment: [e a0]
     X:     0.0000      Y:     0.0000      Z:     0.0000

  Dipole Moment: [e a0]
     X:     0.0000      Y:     0.0000      Z:     0.0000     Total:     0.0000

  Dipole Moment: [D]
     X:     0.0000      Y:     0.0000      Z:     0.0000     Total:     0.0000


*** tstop() called on bp1-compute00065.data.bp.acrc.priv at Tue Apr 27 16:46:48 2021
Module time:
	user time   =     119.79 seconds =       2.00 minutes
	system time =       6.88 seconds =       0.11 minutes
	total time  =          6 seconds =       0.10 minutes
Total time:
	user time   =     370.51 seconds =       6.18 minutes
	system time =      24.47 seconds =       0.41 minutes
	total time  =         18 seconds =       0.30 minutes

         ----------------------------------------------------------
                                   FINDIF
                     R. A. King and Jonathon Misiewicz
         ---------------------------------------------------------

  Computing gradient from energies.
    Using 3-point formula.
    Energy without displacement: -188.6299223712
    Check energies below for precision!
    Forces are for mass-weighted, symmetry-adapted cartesians (in au).

     Coord      Energy(-1)        Energy(+1)            Force
        0   -188.6299410167   -188.6299019612      0.0039055522


-------------------------------------------------------------
  ## New Matrix (Symmetry 0) ##
  Irrep: 1 Size: 3 x 3

                 1                   2                   3

    1     0.00000000000000     0.00000000000000     0.00000000000000
    2     0.00000000000000     0.00000000000000     0.01104481401783
    3     0.00000000000000     0.00000000000000    -0.01104481401783




			-----------------------------------------
			 OPTKING 2.0: for geometry optimizations 
			  - R.A. King,  Bethel University        
			-----------------------------------------
	At level 1: Red. Int., RFO, no backsteps, dynamic trust

	Internal coordinates to be generated automatically.
	Detected frag 1 with atoms:  1 2 3
	---Fragment 1 Bond Connectivity---
	 1 : 2 3
	 2 : 1
	 3 : 1

	---Fragment 1 Geometry and Gradient---
	 C           0.0000000000        0.0000000000        0.0000000000
	 O           0.0000000000        0.0000000000        2.1969955935
	 O           0.0000000000        0.0000000000       -2.1969955935
	             0.0000000000        0.0000000000        0.0000000000
	             0.0000000000        0.0000000000        0.0110448140
	             0.0000000000        0.0000000000       -0.0110448140

	Previous optimization step data not found.  Starting new optimization.

	---Fragment 1 Intrafragment Coordinates---
	 - Coordinate -           - BOHR/RAD -       - ANG/DEG -
	 R(1,2)           =         2.196996	       1.162600
	 R(1,3)           =         2.196996	       1.162600
	 L(2,1,3)         =         3.141593	     180.000000
	 l(2,1,3)         =         3.141593	     180.000000

	Current energy   :      -188.6299223712

	Generating empirical Hessian (Schlegel '84) for each fragment.
	Taking RFO optimization step.
	Going to follow RFO solution 1.
	Using RFO vector 1.
	Norm of target step-size    0.01238
	Projected energy change by RFO approximation:        -0.0001934077

	Back-transformation to cartesian coordinates...
	Successfully converged to displaced geometry.

	--- Internal Coordinate Step in ANG or DEG, aJ/ANG or AJ/DEG ---
	 ---------------------------------------------------------------------------
	   Coordinate                Previous        Force       Change         New 
	   ----------                --------       ------       ------       ------
	    1 R(1,2)          =      1.162600    -0.090995    -0.004634     1.157966
	    2 R(1,3)          =      1.162600    -0.090995    -0.004634     1.157966
	    3 L(2,1,3)        =    180.000000     0.000000     0.000000   180.000000
	    4 l(2,1,3)        =    180.000000     0.000000     0.000000   180.000000
	 ---------------------------------------------------------------------------
	Successfully symmetrized geometry.

  ==> Convergence Check <==

  Measures of convergence in internal coordinates in au.
  Criteria marked as inactive (o), active & met (*), and active & unmet ( ).
  --------------------------------------------------------------------------------------------- ~
   Step     Total Energy     Delta E     MAX Force     RMS Force      MAX Disp      RMS Disp    ~
  --------------------------------------------------------------------------------------------- ~
    Convergence Criteria    1.00e-06 *    3.00e-04 *             o    1.20e-03 *             o  ~
  --------------------------------------------------------------------------------------------- ~
      1    -188.62992237   -1.89e+02      1.10e-02      7.81e-03 o    8.76e-03      6.19e-03 o  ~
  ---------------------------------------------------------------------------------------------

	Writing optimization data to binary file.
	Structure for next step:
	Cartesian Geometry (in Angstrom)
	    C    -0.0000000000   0.0000000000   0.0000000000
	    O     0.0000000000  -0.0000000000   1.1579660274
	    O     0.0000000000  -0.0000000000  -1.1579660274
			--------------------------
			 OPTKING Finished Execution 
			--------------------------

    Structure for next step:
    Molecular point group: d2h
    Full point group: D_inf_h

    Geometry (in Angstrom), charge = 0, multiplicity = 1:

    C            0.000000000000     0.000000000000     0.000000000000
    O           -0.000000000000    -0.000000000000     1.157966031964
    O           -0.000000000000    -0.000000000000    -1.157966031964

gradient() will perform gradient computation by finite difference of analytic energies.

         ----------------------------------------------------------
                                   FINDIF
                     R. A. King and Jonathon Misiewicz
         ---------------------------------------------------------

  Using finite-differences of energies to determine gradients.
    Generating geometries for use with 3-point formula.
    Displacement size will be 5.00e-03.
    Number of atoms is 3.
    Number of symmetric SALCs is 1.
    Translations projected? 1. Rotations projected? 1.
    Number of geometries (including reference) is 3.

  //>>>>>>>>>>>>>>>>>>>>>>>>>>>>>>>>>>>//
  //    Loading displacement 1 of 3    //
  //<<<<<<<<<<<<<<<<<<<<<<<<<<<<<<<<<<<//

*** tstart() called on bp1-compute00065.data.bp.acrc.priv
*** at Tue Apr 27 16:46:48 2021

   => Loading Basis Set <=

    Name: AUG-CC-PV(Q+D)Z
    Role: ORBITAL
    Keyword: BASIS
    atoms 1   entry C          line   319 file /work/zw18965/.conda/envs/p4env/share/psi4/basis/aug-cc-pv_qpd_z.gbs 
    atoms 2-3 entry O          line   439 file /work/zw18965/.conda/envs/p4env/share/psi4/basis/aug-cc-pv_qpd_z.gbs 


         ---------------------------------------------------------
                                   SCF
               by Justin Turney, Rob Parrish, Andy Simmonett
                          and Daniel G. A. Smith
                              RKS Reference
                       24 Threads, 137329 MiB Core
         ---------------------------------------------------------

  ==> Geometry <==

    Molecular point group: d2h
    Full point group: D_inf_h

    Geometry (in Angstrom), charge = 0, multiplicity = 1:

       Center              X                  Y                   Z               Mass       
    ------------   -----------------  -----------------  -----------------  -----------------
         C           -0.000000000000    -0.000000000000     0.000000000000    12.000000000000
         O            0.000000000000     0.000000000000     1.157966031964    15.994914619570
         O            0.000000000000     0.000000000000    -1.157966031964    15.994914619570

  Running in d2h symmetry.

  Rotational constants: A = ************  B =      0.39300  C =      0.39300 [cm^-1]
  Rotational constants: A = ************  B =  11781.85403  C =  11781.85403 [MHz]
  Nuclear repulsion =   58.494533601192003

  Charge       = 0
  Multiplicity = 1
  Electrons    = 22
  Nalpha       = 11
  Nbeta        = 11

  ==> Algorithm <==

  SCF Algorithm Type is DF.
  DIIS enabled.
  MOM disabled.
  Fractional occupation disabled.
  Guess Type is READ.
  Energy threshold   = 1.00e-08
  Density threshold  = 1.00e-08
  Integral threshold = 0.00e+00

  ==> Primary Basis <==

  Basis Set: AUG-CC-PV(Q+D)Z
    Blend: AUG-CC-PV(Q+D)Z
    Number of shells: 60
    Number of basis function: 240
    Number of Cartesian functions: 315
    Spherical Harmonics?: true
    Max angular momentum: 4

  ==> DFT Potential <==

   => Composite Functional: WB97M-V <= 

    wB97M-V Hyb-GGA Exchange-Correlation Functional

    N. Mardirossian and M. Head-Gordon, J. Chem. Phys. 144, 214110 (2016)

    Deriv               =              1
    GGA                 =           TRUE
    Meta                =           TRUE

    Exchange Hybrid     =           TRUE
    MP2 Hybrid          =          FALSE

   => Exchange-Correlation Functionals <=

    1.0000   wB97M-V exchange-correlation functional

   => Exact (HF) Exchange <=

    0.8500            HF,LR [omega = 0.3000]
    0.1500               HF 

   => VV10 Non-Local Parameters <=

    VV10 B              =     6.0000E+00
    VV10 C              =     1.0000E-02

   => Molecular Quadrature <=

    Radial Scheme          =       TREUTLER
    Pruning Scheme         =           FLAT
    Nuclear Scheme         =       TREUTLER

    BS radius alpha        =              1
    Pruning alpha          =              1
    Radial Points          =             75
    Spherical Points       =            302
    Total Points           =          67950
    Total Blocks           =            593
    Max Points             =            256
    Max Functions          =            240

   => Loading Basis Set <=

    Name: (AUG-CC-PV(Q+D)Z AUX)
    Role: JKFIT
    Keyword: DF_BASIS_SCF
    atoms 1   entry C          line   178 file /work/zw18965/.conda/envs/p4env/share/psi4/basis/aug-cc-pvqz-jkfit.gbs 
    atoms 2-3 entry O          line   318 file /work/zw18965/.conda/envs/p4env/share/psi4/basis/aug-cc-pvqz-jkfit.gbs 

   => Loading Basis Set <=

    Name: AUG-CC-PV(Q+D)Z
    Role: ORBITAL
    Keyword: BASIS
    atoms 1   entry C          line   319 file /work/zw18965/.conda/envs/p4env/share/psi4/basis/aug-cc-pv_qpd_z.gbs 
    atoms 2-3 entry O          line   439 file /work/zw18965/.conda/envs/p4env/share/psi4/basis/aug-cc-pv_qpd_z.gbs 

  Reading orbitals from file 180, no projection.

  ==> Pre-Iterations <==

   -------------------------------------------------------
    Irrep   Nso     Nmo     Nalpha   Nbeta   Ndocc  Nsocc
   -------------------------------------------------------
     Ag        51      51       0       0       0       0
     B1g       19      19       0       0       0       0
     B2g       27      27       0       0       0       0
     B3g       27      27       0       0       0       0
     Au        14      14       0       0       0       0
     B1u       42      42       0       0       0       0
     B2u       30      30       0       0       0       0
     B3u       30      30       0       0       0       0
   -------------------------------------------------------
    Total     240     240      11      11      11       0
   -------------------------------------------------------

  ==> Integral Setup <==

  ==> DiskDFJK: Density-Fitted J/K Matrices <==

    J tasked:                  Yes
    K tasked:                  Yes
    wK tasked:                 Yes
    Omega:               3.000E-01
    OpenMP threads:             24
    Integrals threads:          24
    Memory [MiB]:           101961
    Algorithm:                Core
    Integral Cache:           NONE
    Schwarz Cutoff:          1E-12
    Fitting Condition:       1E-10

   => Auxiliary Basis Set <=

  Basis Set: (AUG-CC-PV(Q+D)Z AUX)
    Blend: AUG-CC-PVQZ-JKFIT
    Number of shells: 102
    Number of basis function: 426
    Number of Cartesian functions: 594
    Spherical Harmonics?: true
    Max angular momentum: 5

  Cached 100.0% of DFT collocation blocks in 1.011 [GiB].

  Minimum eigenvalue in the overlap matrix is 4.7622214512E-05.
  Using Symmetric Orthogonalization.

  SCF Guess: Orbitals guess was supplied from a previous computation.

  ==> Iterations <==

                           Total Energy        Delta E     RMS |[F,P]|

   @DF-RKS iter   0:  -188.63376019146006   -1.88634e+02   2.73593e-04 
   @DF-RKS iter   1:  -188.63002231392966    3.73788e-03   4.55829e-05 DIIS
   @DF-RKS iter   2:  -188.63002265236588   -3.38436e-07   4.69291e-05 DIIS
   @DF-RKS iter   3:  -188.63002821980001   -5.56743e-06   5.37083e-06 DIIS
   @DF-RKS iter   4:  -188.63002829714614   -7.73461e-08   1.05254e-06 DIIS
   @DF-RKS iter   5:  -188.63002830343493   -6.28879e-09   2.90528e-07 DIIS
   @DF-RKS iter   6:  -188.63002830400262   -5.67695e-10   3.58645e-08 DIIS
   @DF-RKS iter   7:  -188.63002830401226   -9.63496e-12   5.88168e-09 DIIS
  Energy and wave function converged.


  ==> Post-Iterations <==

    Orbital Energies [Eh]
    ---------------------

    Doubly Occupied:                                                      

       1B1u  -19.414783     1Ag   -19.414748     2Ag   -10.537428  
       3Ag    -1.298744     2B1u   -1.255842     4Ag    -0.685102  
       1B2u   -0.637962     1B3u   -0.637962     3B1u   -0.637810  
       1B2g   -0.480454     1B3g   -0.480454  

    Virtual:                                                              

       5Ag     0.017312     2B3u    0.048845     2B2u    0.048845  
       4B1u    0.052859     6Ag     0.107251     2B2g    0.113939  
       2B3g    0.113939     3B2u    0.123160     3B3u    0.123160  
       7Ag     0.145950     5B1u    0.171612     4B2u    0.181561  
       4B3u    0.181561     1B1g    0.182350     8Ag     0.182353  
       6B1u    0.226297     5B2u    0.310793     5B3u    0.310793  
       9Ag     0.315258     3B2g    0.346269     3B3g    0.346269  
      10Ag     0.349226     1Au     0.422494     7B1u    0.422494  
       8B1u    0.462333    11Ag     0.518282     2B1g    0.531844  
      12Ag     0.531845     4B2g    0.550954     4B3g    0.550954  
       6B2u    0.580329     6B3u    0.580329     9B1u    0.597043  
      13Ag     0.633156     7B2u    0.673603     7B3u    0.673603  
      14Ag     0.725734     3B1g    0.725736    10B1u    0.760585  
       8B3u    0.781376     8B2u    0.781376    15Ag     0.824475  
       5B2g    0.841405     5B3g    0.841405     2Au     0.892116  
      11B1u    0.892119    12B1u    0.953788     9B2u    1.043748  
       9B3u    1.043748    13B1u    1.047935     6B3g    1.086288  
       6B2g    1.086288    16Ag     1.225638     7B2g    1.247614  
       7B3g    1.247614    17Ag     1.400118     3Au     1.400326  
      14B1u    1.400327    10B3u    1.450435    10B2u    1.450435  
      18Ag     1.457808     4B1g    1.457813    11B3u    1.481416  
      11B2u    1.481416    19Ag     1.535129     5B1g    1.535136  
       8B3g    1.552317     8B2g    1.552317    20Ag     1.554042  
      15B1u    1.572483    16B1u    1.586647    21Ag     1.772954  
       9B3g    1.795020     9B2g    1.795020     4Au     1.799061  
      17B1u    1.799071    12B3u    1.810897    12B2u    1.810897  
      18B1u    1.818911     6B1g    1.956286    22Ag     1.956288  
      13B3u    2.079822    13B2u    2.079822    23Ag     2.081444  
       7B1g    2.081448    14B2u    2.108314    14B3u    2.108314  
      10B3g    2.373239    10B2g    2.373239    11B2g    2.384030  
      11B3g    2.384030    15B3u    2.510366    15B2u    2.510366  
      19B1u    2.549547    24Ag     2.622238     5Au     2.749041  
      20B1u    2.749050    25Ag     2.876522    26Ag     2.981053  
       8B1g    2.981081    12B3g    3.000706    12B2g    3.000706  
      21B1u    3.245405    27Ag     3.323973    22B1u    3.436784  
       6Au     3.436798    13B3g    3.514683    13B2g    3.514683  
      28Ag     3.642507     9B1g    3.642522    29Ag     3.784509  
      14B2g    3.792323    14B3g    3.792323    23B1u    3.806488  
      16B3u    3.837514    16B2u    3.837514     7Au     3.892704  
      24B1u    3.892708    17B3u    3.914246    17B2u    3.914246  
      18B3u    3.996669    18B2u    3.996669    19B3u    4.014228  
      19B2u    4.014228    30Ag     4.037475    10B1g    4.037480  
      15B3g    4.103945    15B2g    4.103945    31Ag     4.106685  
       8Au     4.338047    25B1u    4.338049    11B1g    4.346684  
      32Ag     4.346690    26B1u    4.393742    20B3u    4.442674  
      20B2u    4.442674    33Ag     4.490901    16B3g    4.527230  
      16B2g    4.527230    17B2g    4.633928    17B3g    4.633928  
      27B1u    4.670649    34Ag     4.688395    12B1g    4.688399  
       9Au     5.218496    28B1u    5.218514    21B3u    5.339410  
      21B2u    5.339410    35Ag     5.603765    13B1g    5.603786  
      29B1u    5.607699    36Ag     5.621026    18B3g    5.711610  
      18B2g    5.711610    37Ag     5.897684    19B2g    5.953913  
      19B3g    5.953913    30B1u    6.025216    22B2u    6.097652  
      22B3u    6.097652    23B2u    6.207956    23B3u    6.207956  
      14B1g    6.373426    38Ag     6.373451    10Au     6.689027  
      31B1u    6.689036    32B1u    6.789285    20B3g    6.912893  
      20B2g    6.912893    39Ag     7.369431    40Ag     7.643236  
      15B1g    7.643238    24B3u    8.213541    24B2u    8.213541  
      41Ag     8.686137    21B3g    8.879710    21B2g    8.879710  
      33B1u   10.001059    34B1u   10.198295    11Au    10.198336  
      42Ag    10.281809    16B1g   10.281853    25B2u   10.396980  
      25B3u   10.396980    22B3g   10.599528    22B2g   10.599528  
      12Au    10.696803    35B1u   10.696813    23B3g   10.712929  
      23B2g   10.712929    26B3u   10.910822    26B2u   10.910822  
      24B3g   10.927522    24B2g   10.927522    36B1u   10.969664  
      17B1g   10.988561    43Ag    10.988583    27B3u   11.149701  
      27B2u   11.149701    44Ag    11.284795    25B2g   11.463099  
      25B3g   11.463099    28B3u   11.464007    28B2u   11.464007  
      37B1u   11.650979    13Au    11.965479    38B1u   11.965529  
      45Ag    12.038658    18B1g   12.042120    46Ag    12.042139  
      29B3u   12.127845    29B2u   12.127845    14Au    12.581607  
      39B1u   12.581618    19B1g   12.637143    47Ag    12.637174  
      26B3g   12.692020    26B2g   12.692020    40B1u   13.380117  
      48Ag    13.698368    30B3u   13.709764    30B2u   13.709764  
      49Ag    14.383000    27B3g   15.517480    27B2g   15.517480  
      41B1u   16.280350    50Ag    26.135878    42B1u   42.575675  
      51Ag    43.215870  

    Final Occupation by Irrep:
             Ag   B1g   B2g   B3g    Au   B1u   B2u   B3u 
    DOCC [     4,    0,    1,    1,    0,    3,    1,    1 ]

  @DF-RKS Final Energy:  -188.63002830401226

   => Energetics <=

    Nuclear Repulsion Energy =             58.4945336011920034
    One-Electron Energy =                -372.9964023787060796
    Two-Electron Energy =                 142.1838609483495759
    DFT Exchange-Correlation Energy =     -16.4037713684338868
    Empirical Dispersion Energy =           0.0000000000000000
    VV10 Nonlocal Energy =                  0.0917508935860999
    Total Energy =                       -188.6300283040122849

Computation Completed


Properties will be evaluated at   0.000000,   0.000000,   0.000000 [a0]

Properties computed using the SCF density matrix

  Nuclear Dipole Moment: [e a0]
     X:     0.0000      Y:    -0.0000      Z:     0.0000

  Electronic Dipole Moment: [e a0]
     X:     0.0000      Y:     0.0000      Z:     0.0000

  Dipole Moment: [e a0]
     X:     0.0000      Y:    -0.0000      Z:     0.0000     Total:     0.0000

  Dipole Moment: [D]
     X:     0.0000      Y:    -0.0000      Z:     0.0000     Total:     0.0000


*** tstop() called on bp1-compute00065.data.bp.acrc.priv at Tue Apr 27 16:46:53 2021
Module time:
	user time   =      97.36 seconds =       1.62 minutes
	system time =       4.12 seconds =       0.07 minutes
	total time  =          5 seconds =       0.08 minutes
Total time:
	user time   =     468.28 seconds =       7.80 minutes
	system time =      28.61 seconds =       0.48 minutes
	total time  =         23 seconds =       0.38 minutes

  //>>>>>>>>>>>>>>>>>>>>>>>>>>>>>>>>>>>//
  //    Loading displacement 2 of 3    //
  //<<<<<<<<<<<<<<<<<<<<<<<<<<<<<<<<<<<//

*** tstart() called on bp1-compute00065.data.bp.acrc.priv
*** at Tue Apr 27 16:46:53 2021

   => Loading Basis Set <=

    Name: AUG-CC-PV(Q+D)Z
    Role: ORBITAL
    Keyword: BASIS
    atoms 1   entry C          line   319 file /work/zw18965/.conda/envs/p4env/share/psi4/basis/aug-cc-pv_qpd_z.gbs 
    atoms 2-3 entry O          line   439 file /work/zw18965/.conda/envs/p4env/share/psi4/basis/aug-cc-pv_qpd_z.gbs 


         ---------------------------------------------------------
                                   SCF
               by Justin Turney, Rob Parrish, Andy Simmonett
                          and Daniel G. A. Smith
                              RKS Reference
                       24 Threads, 137329 MiB Core
         ---------------------------------------------------------

  ==> Geometry <==

    Molecular point group: d2h
    Full point group: D_inf_h

    Geometry (in Angstrom), charge = 0, multiplicity = 1:

       Center              X                  Y                   Z               Mass       
    ------------   -----------------  -----------------  -----------------  -----------------
         C           -0.000000000000    -0.000000000000     0.000000000000    12.000000000000
         O            0.000000000000     0.000000000000     1.157498226623    15.994914619570
         O            0.000000000000     0.000000000000    -1.157498226623    15.994914619570

  Running in d2h symmetry.

  Rotational constants: A = ************  B =      0.39332  C =      0.39332 [cm^-1]
  Rotational constants: A = ************  B =  11791.37927  C =  11791.37927 [MHz]
  Nuclear repulsion =   58.518174289900116

  Charge       = 0
  Multiplicity = 1
  Electrons    = 22
  Nalpha       = 11
  Nbeta        = 11

  ==> Algorithm <==

  SCF Algorithm Type is DF.
  DIIS enabled.
  MOM disabled.
  Fractional occupation disabled.
  Guess Type is READ.
  Energy threshold   = 1.00e-08
  Density threshold  = 1.00e-08
  Integral threshold = 0.00e+00

  ==> Primary Basis <==

  Basis Set: AUG-CC-PV(Q+D)Z
    Blend: AUG-CC-PV(Q+D)Z
    Number of shells: 60
    Number of basis function: 240
    Number of Cartesian functions: 315
    Spherical Harmonics?: true
    Max angular momentum: 4

  ==> DFT Potential <==

   => Composite Functional: WB97M-V <= 

    wB97M-V Hyb-GGA Exchange-Correlation Functional

    N. Mardirossian and M. Head-Gordon, J. Chem. Phys. 144, 214110 (2016)

    Deriv               =              1
    GGA                 =           TRUE
    Meta                =           TRUE

    Exchange Hybrid     =           TRUE
    MP2 Hybrid          =          FALSE

   => Exchange-Correlation Functionals <=

    1.0000   wB97M-V exchange-correlation functional

   => Exact (HF) Exchange <=

    0.8500            HF,LR [omega = 0.3000]
    0.1500               HF 

   => VV10 Non-Local Parameters <=

    VV10 B              =     6.0000E+00
    VV10 C              =     1.0000E-02

   => Molecular Quadrature <=

    Radial Scheme          =       TREUTLER
    Pruning Scheme         =           FLAT
    Nuclear Scheme         =       TREUTLER

    BS radius alpha        =              1
    Pruning alpha          =              1
    Radial Points          =             75
    Spherical Points       =            302
    Total Points           =          67950
    Total Blocks           =            593
    Max Points             =            256
    Max Functions          =            240

   => Loading Basis Set <=

    Name: (AUG-CC-PV(Q+D)Z AUX)
    Role: JKFIT
    Keyword: DF_BASIS_SCF
    atoms 1   entry C          line   178 file /work/zw18965/.conda/envs/p4env/share/psi4/basis/aug-cc-pvqz-jkfit.gbs 
    atoms 2-3 entry O          line   318 file /work/zw18965/.conda/envs/p4env/share/psi4/basis/aug-cc-pvqz-jkfit.gbs 

   => Loading Basis Set <=

    Name: AUG-CC-PV(Q+D)Z
    Role: ORBITAL
    Keyword: BASIS
    atoms 1   entry C          line   319 file /work/zw18965/.conda/envs/p4env/share/psi4/basis/aug-cc-pv_qpd_z.gbs 
    atoms 2-3 entry O          line   439 file /work/zw18965/.conda/envs/p4env/share/psi4/basis/aug-cc-pv_qpd_z.gbs 

  Reading orbitals from file 180, no projection.

  ==> Pre-Iterations <==

   -------------------------------------------------------
    Irrep   Nso     Nmo     Nalpha   Nbeta   Ndocc  Nsocc
   -------------------------------------------------------
     Ag        51      51       0       0       0       0
     B1g       19      19       0       0       0       0
     B2g       27      27       0       0       0       0
     B3g       27      27       0       0       0       0
     Au        14      14       0       0       0       0
     B1u       42      42       0       0       0       0
     B2u       30      30       0       0       0       0
     B3u       30      30       0       0       0       0
   -------------------------------------------------------
    Total     240     240      11      11      11       0
   -------------------------------------------------------

  ==> Integral Setup <==

  ==> DiskDFJK: Density-Fitted J/K Matrices <==

    J tasked:                  Yes
    K tasked:                  Yes
    wK tasked:                 Yes
    Omega:               3.000E-01
    OpenMP threads:             24
    Integrals threads:          24
    Memory [MiB]:           101959
    Algorithm:                Core
    Integral Cache:           NONE
    Schwarz Cutoff:          1E-12
    Fitting Condition:       1E-10

   => Auxiliary Basis Set <=

  Basis Set: (AUG-CC-PV(Q+D)Z AUX)
    Blend: AUG-CC-PVQZ-JKFIT
    Number of shells: 102
    Number of basis function: 426
    Number of Cartesian functions: 594
    Spherical Harmonics?: true
    Max angular momentum: 5

  Cached 100.0% of DFT collocation blocks in 1.013 [GiB].

  Minimum eigenvalue in the overlap matrix is 4.7532987369E-05.
  Using Symmetric Orthogonalization.

  SCF Guess: Orbitals guess was supplied from a previous computation.

  ==> Iterations <==

                           Total Energy        Delta E     RMS |[F,P]|

   @DF-RKS iter   0:  -188.63038978050855   -1.88630e+02   2.78517e-05 
   @DF-RKS iter   1:  -188.63002909322446    3.60687e-04   4.58101e-06 DIIS
   @DF-RKS iter   2:  -188.63002909667284   -3.44838e-09   4.70379e-06 DIIS
   @DF-RKS iter   3:  -188.63002915251494   -5.58421e-08   5.39228e-07 DIIS
   @DF-RKS iter   4:  -188.63002915329699   -7.82052e-10   1.04667e-07 DIIS
   @DF-RKS iter   5:  -188.63002915335932   -6.23288e-11   2.93537e-08 DIIS
   @DF-RKS iter   6:  -188.63002915336531   -5.99698e-12   3.61453e-09 DIIS
  Energy and wave function converged.


  ==> Post-Iterations <==

    Orbital Energies [Eh]
    ---------------------

    Doubly Occupied:                                                      

       1B1u  -19.414671     1Ag   -19.414636     2Ag   -10.537206  
       3Ag    -1.298956     2B1u   -1.256058     4Ag    -0.685016  
       1B3u   -0.638128     1B2u   -0.638128     3B1u   -0.637837  
       1B2g   -0.480473     1B3g   -0.480473  

    Virtual:                                                              

       5Ag     0.017333     2B3u    0.048842     2B2u    0.048842  
       4B1u    0.052862     6Ag     0.107260     2B2g    0.113941  
       2B3g    0.113941     3B3u    0.123467     3B2u    0.123467  
       7Ag     0.146029     5B1u    0.171622     4B3u    0.181558  
       4B2u    0.181558     1B1g    0.182345     8Ag     0.182348  
       6B1u    0.226290     5B3u    0.310840     5B2u    0.310840  
       9Ag     0.315414     3B2g    0.346265     3B3g    0.346265  
      10Ag     0.349406     1Au     0.422472     7B1u    0.422473  
       8B1u    0.462349    11Ag     0.518402     2B1g    0.531821  
      12Ag     0.531823     4B3g    0.551036     4B2g    0.551036  
       6B3u    0.580244     6B2u    0.580244     9B1u    0.597014  
      13Ag     0.633310     7B2u    0.673600     7B3u    0.673600  
      14Ag     0.725755     3B1g    0.725757    10B1u    0.760707  
       8B3u    0.781400     8B2u    0.781400    15Ag     0.824514  
       5B3g    0.841355     5B2g    0.841355     2Au     0.892151  
      11B1u    0.892154    12B1u    0.953712     9B3u    1.043784  
       9B2u    1.043784    13B1u    1.049098     6B3g    1.086686  
       6B2g    1.086686    16Ag     1.225645     7B2g    1.247616  
       7B3g    1.247616     3Au     1.400340    14B1u    1.400340  
      17Ag     1.400352    10B3u    1.450480    10B2u    1.450480  
      18Ag     1.457843     4B1g    1.457847    11B2u    1.481558  
      11B3u    1.481558    19Ag     1.534961     5B1g    1.534969  
       8B3g    1.552314     8B2g    1.552314    20Ag     1.554161  
      15B1u    1.572861    16B1u    1.586402    21Ag     1.772911  
       9B3g    1.795075     9B2g    1.795075     4Au     1.799114  
      17B1u    1.799124    12B3u    1.810562    12B2u    1.810562  
      18B1u    1.818928     6B1g    1.956308    22Ag     1.956310  
      13B2u    2.079911    13B3u    2.079911    23Ag     2.081900  
       7B1g    2.081904    14B3u    2.108953    14B2u    2.108953  
      10B2g    2.373447    10B3g    2.373447    11B3g    2.383780  
      11B2g    2.383780    15B3u    2.510980    15B2u    2.510980  
      19B1u    2.549726    24Ag     2.622936     5Au     2.749524  
      20B1u    2.749533    25Ag     2.876734    26Ag     2.981197  
       8B1g    2.981224    12B2g    3.001325    12B3g    3.001325  
      21B1u    3.244836    27Ag     3.324663    22B1u    3.436774  
       6Au     3.436788    13B3g    3.514779    13B2g    3.514779  
      28Ag     3.642799     9B1g    3.642814    29Ag     3.784538  
      14B3g    3.792300    14B2g    3.792300    23B1u    3.806990  
      16B3u    3.837807    16B2u    3.837807     7Au     3.892767  
      24B1u    3.892770    17B2u    3.914762    17B3u    3.914762  
      18B2u    3.997008    18B3u    3.997008    19B3u    4.014364  
      19B2u    4.014364    30Ag     4.037543    10B1g    4.037548  
      15B3g    4.104571    15B2g    4.104571    31Ag     4.107302  
       8Au     4.338190    25B1u    4.338192    11B1g    4.347239  
      32Ag     4.347245    26B1u    4.394031    20B3u    4.442485  
      20B2u    4.442485    33Ag     4.491844    16B3g    4.527905  
      16B2g    4.527905    17B3g    4.632873    17B2g    4.632873  
      27B1u    4.672226    34Ag     4.688506    12B1g    4.688510  
       9Au     5.218969    28B1u    5.218987    21B3u    5.340921  
      21B2u    5.340921    35Ag     5.603808    13B1g    5.603830  
      29B1u    5.605719    36Ag     5.622183    18B3g    5.712684  
      18B2g    5.712684    37Ag     5.896665    19B2g    5.954770  
      19B3g    5.954770    30B1u    6.027279    22B3u    6.097723  
      22B2u    6.097723    23B3u    6.208807    23B2u    6.208807  
      14B1g    6.374346    38Ag     6.374371    10Au     6.690835  
      31B1u    6.690844    32B1u    6.790781    20B3g    6.914532  
      20B2g    6.914532    39Ag     7.372252    40Ag     7.645111  
      15B1g    7.645114    24B3u    8.216078    24B2u    8.216078  
      41Ag     8.689057    21B3g    8.878828    21B2g    8.878828  
      33B1u   10.003153    34B1u   10.198290    11Au    10.198331  
      42Ag    10.281944    16B1g   10.281988    25B2u   10.397280  
      25B3u   10.397280    22B2g   10.599873    22B3g   10.599873  
      12Au    10.697319    35B1u   10.697329    23B3g   10.713387  
      23B2g   10.713387    26B3u   10.911324    26B2u   10.911324  
      24B3g   10.927915    24B2g   10.927915    36B1u   10.968732  
      17B1g   10.989709    43Ag    10.989731    27B3u   11.150544  
      27B2u   11.150544    44Ag    11.286412    25B2g   11.463463  
      25B3g   11.463463    28B3u   11.464117    28B2u   11.464117  
      37B1u   11.651124    13Au    11.966502    38B1u   11.966552  
      45Ag    12.039725    18B1g   12.041692    46Ag    12.041711  
      29B3u   12.127365    29B2u   12.127365    14Au    12.582048  
      39B1u   12.582060    19B1g   12.639053    47Ag    12.639085  
      26B3g   12.694504    26B2g   12.694504    40B1u   13.382738  
      48Ag    13.699252    30B3u   13.713741    30B2u   13.713741  
      49Ag    14.383367    27B2g   15.521413    27B3g   15.521413  
      41B1u   16.287029    50Ag    26.142140    42B1u   42.576094  
      51Ag    43.224941  

    Final Occupation by Irrep:
             Ag   B1g   B2g   B3g    Au   B1u   B2u   B3u 
    DOCC [     4,    0,    1,    1,    0,    3,    1,    1 ]

  @DF-RKS Final Energy:  -188.63002915336531

   => Energetics <=

    Nuclear Repulsion Energy =             58.5181742899001165
    One-Electron Energy =                -373.0426387392298011
    Two-Electron Energy =                 142.2072423503816481
    DFT Exchange-Correlation Energy =     -16.4045577796022854
    Empirical Dispersion Energy =           0.0000000000000000
    VV10 Nonlocal Energy =                  0.0917507251850390
    Total Energy =                       -188.6300291533652569

Computation Completed


Properties will be evaluated at   0.000000,   0.000000,   0.000000 [a0]

Properties computed using the SCF density matrix

  Nuclear Dipole Moment: [e a0]
     X:     0.0000      Y:    -0.0000      Z:     0.0000

  Electronic Dipole Moment: [e a0]
     X:     0.0000      Y:     0.0000      Z:     0.0000

  Dipole Moment: [e a0]
     X:     0.0000      Y:    -0.0000      Z:     0.0000     Total:     0.0000

  Dipole Moment: [D]
     X:     0.0000      Y:    -0.0000      Z:     0.0000     Total:     0.0000


*** tstop() called on bp1-compute00065.data.bp.acrc.priv at Tue Apr 27 16:46:57 2021
Module time:
	user time   =      92.88 seconds =       1.55 minutes
	system time =       3.42 seconds =       0.06 minutes
	total time  =          4 seconds =       0.07 minutes
Total time:
	user time   =     561.31 seconds =       9.36 minutes
	system time =      32.04 seconds =       0.53 minutes
	total time  =         27 seconds =       0.45 minutes

  //>>>>>>>>>>>>>>>>>>>>>>>>>>>>>>>>>>>//
  //    Loading displacement 3 of 3    //
  //<<<<<<<<<<<<<<<<<<<<<<<<<<<<<<<<<<<//

*** tstart() called on bp1-compute00065.data.bp.acrc.priv
*** at Tue Apr 27 16:46:57 2021

   => Loading Basis Set <=

    Name: AUG-CC-PV(Q+D)Z
    Role: ORBITAL
    Keyword: BASIS
    atoms 1   entry C          line   319 file /work/zw18965/.conda/envs/p4env/share/psi4/basis/aug-cc-pv_qpd_z.gbs 
    atoms 2-3 entry O          line   439 file /work/zw18965/.conda/envs/p4env/share/psi4/basis/aug-cc-pv_qpd_z.gbs 


         ---------------------------------------------------------
                                   SCF
               by Justin Turney, Rob Parrish, Andy Simmonett
                          and Daniel G. A. Smith
                              RKS Reference
                       24 Threads, 137329 MiB Core
         ---------------------------------------------------------

  ==> Geometry <==

    Molecular point group: d2h
    Full point group: D_inf_h

    Geometry (in Angstrom), charge = 0, multiplicity = 1:

       Center              X                  Y                   Z               Mass       
    ------------   -----------------  -----------------  -----------------  -----------------
         C           -0.000000000000    -0.000000000000     0.000000000000    12.000000000000
         O            0.000000000000     0.000000000000     1.158433837305    15.994914619570
         O            0.000000000000     0.000000000000    -1.158433837305    15.994914619570

  Running in d2h symmetry.

  Rotational constants: A = ************  B =      0.39268  C =      0.39268 [cm^-1]
  Rotational constants: A = ************  B =  11772.34032  C =  11772.34032 [MHz]
  Nuclear repulsion =   58.470912005918656

  Charge       = 0
  Multiplicity = 1
  Electrons    = 22
  Nalpha       = 11
  Nbeta        = 11

  ==> Algorithm <==

  SCF Algorithm Type is DF.
  DIIS enabled.
  MOM disabled.
  Fractional occupation disabled.
  Guess Type is READ.
  Energy threshold   = 1.00e-08
[...]

  ==> Primary Basis <==

  Basis Set: AUG-CC-PV(Q+D)Z
    Blend: AUG-CC-PV(Q+D)Z
    Number of shells: 60
    Number of basis function: 240
    Number of Cartesian functions: 315
    Spherical Harmonics?: true
    Max angular momentum: 4

  ==> DFT Potential <==

   => Composite Functional: WB97M-V <= 

    wB97M-V Hyb-GGA Exchange-Correlation Functional

    N. Mardirossian and M. Head-Gordon, J. Chem. Phys. 144, 214110 (2016)

    Deriv               =              1
    GGA                 =           TRUE
    Meta                =           TRUE

    Exchange Hybrid     =           TRUE
    MP2 Hybrid          =          FALSE

   => Exchange-Correlation Functionals <=

    1.0000   wB97M-V exchange-correlation functional

   => Exact (HF) Exchange <=

    0.8500            HF,LR [omega = 0.3000]
    0.1500               HF 

   => VV10 Non-Local Parameters <=

    VV10 B              =     6.0000E+00
    VV10 C              =     1.0000E-02

   => Molecular Quadrature <=

    Radial Scheme          =       TREUTLER
    Pruning Scheme         =           FLAT
    Nuclear Scheme         =       TREUTLER

    BS radius alpha        =              1
    Pruning alpha          =              1
    Radial Points          =             75
    Spherical Points       =            302
    Total Points           =          67950
    Total Blocks           =            595
    Max Points             =            255
    Max Functions          =            240

   => Loading Basis Set <=

    Name: (AUG-CC-PV(Q+D)Z AUX)
    Role: JKFIT
    Keyword: DF_BASIS_SCF
    atoms 1   entry C          line   178 file /work/zw18965/.conda/envs/p4env/share/psi4/basis/aug-cc-pvqz-jkfit.gbs 
    atoms 2-3 entry O          line   318 file /work/zw18965/.conda/envs/p4env/share/psi4/basis/aug-cc-pvqz-jkfit.gbs 

  ==> Pre-Iterations <==

   -------------------------------------------------------
    Irrep   Nso     Nmo     Nalpha   Nbeta   Ndocc  Nsocc
   -------------------------------------------------------
     A1        81      81       0       0       0       0
     A2        41      41       0       0       0       0
     B1        49      49       0       0       0       0
     B2        69      69       0       0       0       0
   -------------------------------------------------------
    Total     240     240      11      11      11       0
   -------------------------------------------------------

  ==> Integral Setup <==

  ==> DiskDFJK: Density-Fitted J/K Matrices <==

    J tasked:                  Yes
    K tasked:                  Yes
    wK tasked:                 Yes
    Omega:               3.000E-01
    OpenMP threads:             24
    Integrals threads:          24
    Memory [MiB]:           101959
    Algorithm:                Core
    Integral Cache:           NONE
    Schwarz Cutoff:          1E-12
    Fitting Condition:       1E-10

   => Auxiliary Basis Set <=

  Basis Set: (AUG-CC-PV(Q+D)Z AUX)
    Blend: AUG-CC-PVQZ-JKFIT
    Number of shells: 102
    Number of basis function: 426
    Number of Cartesian functions: 594
    Spherical Harmonics?: true
    Max angular momentum: 5

  Cached 100.0% of DFT collocation blocks in 1.013 [GiB].

  Minimum eigenvalue in the overlap matrix is 4.7534733345E-05.
  Using Symmetric Orthogonalization.

  SCF Guess: Superposition of Atomic Densities via on-the-fly atomic UHF.

  ==> Iterations <==

                           Total Energy        Delta E     RMS |[F,P]|

   @DF-RKS iter SAD:  -187.94297125618723   -1.87943e+02   0.00000e+00 
   @DF-RKS iter   1:  -188.51414155802010   -5.71170e-01   4.90357e-03 DIIS
   @DF-RKS iter   2:  -188.47878113819678    3.53604e-02   5.67670e-03 DIIS
   @DF-RKS iter   3:  -188.62964620957641   -1.50865e-01   2.50424e-04 DIIS
   @DF-RKS iter   4:  -188.63000588223105   -3.59673e-04   6.41299e-05 DIIS
   @DF-RKS iter   5:  -188.63002868102473   -2.27988e-05   4.77780e-06 DIIS
   @DF-RKS iter   6:  -188.63002891417509   -2.33150e-07   8.98616e-07 DIIS
   @DF-RKS iter   7:  -188.63002892317263   -8.99755e-09   1.36795e-07 DIIS
   @DF-RKS iter   8:  -188.63002892342121   -2.48576e-10   1.65659e-08 DIIS
   @DF-RKS iter   9:  -188.63002892342504   -3.83693e-12   2.56348e-09 DIIS
   @DF-RKS iter  10:  -188.63002892342507   -2.84217e-14   1.75914e-10 DIIS
   @DF-RKS iter  11:  -188.63002892342487    1.98952e-13   3.25441e-11 DIIS
  Energy and wave function converged.


  ==> Post-Iterations <==

    Orbital Energies [Eh]
    ---------------------

    Doubly Occupied:                                                      

       1B2   -19.414672     1A1   -19.414638     2A1   -10.537210  
       3A1    -1.298952     2B2    -1.256054     4A1    -0.685017  
       1B1    -0.638125     5A1    -0.638125     3B2    -0.637837  
       1A2    -0.480473     4B2    -0.480473  

    Virtual:                                                              

       6A1     0.017332     2B1     0.048842     7A1     0.048842  
       5B2     0.052862     8A1     0.107260     6B2     0.113941  
       2A2     0.113941     9A1     0.123461     3B1     0.123462  
      10A1     0.146030     7B2     0.171622     4B1     0.181558  
      11A1     0.181558     5B1     0.182345    12A1     0.182349  
       8B2     0.226290    13A1     0.310839     6B1     0.310840  
      14A1     0.315413     9B2     0.346264     3A2     0.346265  
      15A1     0.349403     4A2     0.422473    10B2     0.422474  
      11B2     0.462349    16A1     0.518400     7B1     0.531821  
      17A1     0.531823    12B2     0.551035     5A2     0.551035  
       8B1     0.580245    18A1     0.580245    13B2     0.597015  
      19A1     0.633307     9B1     0.673600    20A1     0.673600  
      21A1     0.725755    10B1     0.725757    14B2     0.760705  
      22A1     0.781399    11B1     0.781400    23A1     0.824513  
      15B2     0.841353     6A2     0.841354     7A2     0.892151  
      16B2     0.892154    17B2     0.953715    24A1     1.043783  
      12B1     1.043784    18B2     1.049068     8A2     1.086680  
      19B2     1.086691    25A1     1.225646    20B2     1.247617  
       9A2     1.247617    10A2     1.400340    21B2     1.400340  
      26A1     1.400349    13B1     1.450479    27A1     1.450479  
      28A1     1.457841    14B1     1.457846    29A1     1.481554  
      15B1     1.481554    30A1     1.534968    16B1     1.534976  
      22B2     1.552314    11A2     1.552314    31A1     1.554161  
      23B2     1.572854    24B2     1.586406    32A1     1.772912  
      25B2     1.795071    12A2     1.795072    13A2     1.799114  
      26B2     1.799124    17B1     1.810568    33A1     1.810568  
      27B2     1.818928    18B1     1.956308    34A1     1.956310  
      35A1     2.079869    19B1     2.079869    36A1     2.081909  
      20B1     2.081913    37A1     2.108966    21B1     2.108967  
      28B2     2.373442    14A2     2.373442    15A2     2.383785  
      29B2     2.383787    38A1     2.510963    22B1     2.510969  
      30B2     2.549723    39A1     2.622932    16A2     2.749516  
      31B2     2.749525    40A1     2.876731    41A1     2.981193  
      23B1     2.981220    32B2     3.001314    17A2     3.001315  
      33B2     3.244847    42A1     3.324651    34B2     3.436774  
      18A2     3.436788    19A2     3.514778    35B2     3.514779  
      43A1     3.642794    24B1     3.642808    44A1     3.784537  
      36B2     3.792301    20A2     3.792301    37B2     3.806982  
      25B1     3.837802    45A1     3.837802    21A2     3.892766  
      38B2     3.892769    46A1     3.914755    26B1     3.914755  
      47A1     3.997002    27B1     3.997002    28B1     4.014360  
      48A1     4.014362    49A1     4.037543    29B1     4.037547  
      22A2     4.104562    39B2     4.104563    50A1     4.107292  
      23A2     4.338186    40B2     4.338188    30B1     4.347231  
      51A1     4.347238    41B2     4.394026    52A1     4.442472  
      31B1     4.442488    53A1     4.491845    24A2     4.527889  
      42B2     4.527889    43B2     4.632883    25A2     4.632891  
      44B2     4.672207    54A1     4.688506    32B1     4.688511  
      26A2     5.218963    45B2     5.218980    55A1     5.340894  
      33B1     5.340896    56A1     5.603808    34B1     5.603829  
      46B2     5.605744    57A1     5.622168    47B2     5.712662  
      27A2     5.712663    58A1     5.896683    28A2     5.954756  
      48B2     5.954756    49B2     6.027246    59A1     6.097722  
      35B1     6.097722    60A1     6.208791    36B1     6.208791  
      37B1     6.374331    61A1     6.374356    29A2     6.690804  
      50B2     6.690813    51B2     6.790760    30A2     6.914509  
      52B2     6.914512    62A1     7.372204    63A1     7.645077  
      38B1     7.645079    64A1     8.216033    39B1     8.216036  
      65A1     8.689011    53B2     8.878836    31A2     8.878839  
      54B2    10.003113    55B2    10.198290    32A2    10.198331  
      66A1    10.281941    40B1    10.281985    67A1    10.397278  
      41B1    10.397278    33A2    10.599869    56B2    10.599872  
      34A2    10.697312    57B2    10.697321    58B2    10.713377  
      35A2    10.713377    42B1    10.911312    68A1    10.911312  
      59B2    10.927902    36A2    10.927907    60B2    10.968758  
      43B1    10.989690    69A1    10.989712    44B1    11.150530  
      70A1    11.150532    71A1    11.286385    37A2    11.463457  
      61B2    11.463457    45B1    11.464115    72A1    11.464115  
      62B2    11.651119    38A2    11.966489    63B2    11.966538  
      73A1    12.039690    46B1    12.041689    74A1    12.041708  
      47B1    12.127381    75A1    12.127396    39A2    12.582040  
      64B2    12.582052    48B1    12.639019    76A1    12.639051  
      65B2    12.694461    40A2    12.694463    66B2    13.382702  
      77A1    13.699153    49B1    13.713679    78A1    13.713767  
      79A1    14.383360    67B2    15.521318    41A2    15.521335  
      68B2    16.286907    80A1    26.142038    69B2    42.576092  
      81A1    43.224786  

    Final Occupation by Irrep:
             A1    A2    B1    B2 
    DOCC [     5,    1,    1,    4 ]

  @DF-RKS Final Energy:  -188.63002892342487

   => Energetics <=

    Nuclear Repulsion Energy =             58.5177877472769552
    One-Electron Energy =                -373.0418843970711578
    Two-Electron Energy =                 142.2068618837781457
    DFT Exchange-Correlation Energy =     -16.4045448848094892
    Empirical Dispersion Energy =           0.0000000000000000
    VV10 Nonlocal Energy =                  0.0917507274007033
    Total Energy =                       -188.6300289234248737

Computation Completed


Properties will be evaluated at   0.000000,   0.000000,   0.000000 [a0]

Properties computed using the SCF density matrix

  Nuclear Dipole Moment: [e a0]
     X:     0.0000      Y:     0.0000      Z:     0.0000

  Electronic Dipole Moment: [e a0]
     X:    -0.0009      Y:     0.0000      Z:     0.0000

  Dipole Moment: [e a0]
     X:    -0.0009      Y:     0.0000      Z:     0.0000     Total:     0.0009

  Dipole Moment: [D]
     X:    -0.0023      Y:     0.0000      Z:     0.0000     Total:     0.0023


*** tstop() called on bp1-compute00065.data.bp.acrc.priv at Tue Apr 27 16:48:08 2021
Module time:
	user time   =     127.95 seconds =       2.13 minutes
	system time =       3.06 seconds =       0.05 minutes
	total time  =          5 seconds =       0.08 minutes
Total time:
	user time   =    2092.01 seconds =      34.87 minutes
	system time =      81.40 seconds =       1.36 minutes
	total time  =         98 seconds =       1.63 minutes

         ----------------------------------------------------------
                                   FINDIF
                     R. A. King and Jonathon Misiewicz
         ---------------------------------------------------------

  Computing second-derivative from energies using projected, 
  symmetry-adapted, cartesian coordinates.

  6 energies passed in, including the reference geometry.
    Using 3-point formula.
    Energy without displacement: -188.6300291616
    Check energies below for precision!
    0: -1 :      -188.6300282112
    0: 1  :      -188.6300282735
    1: -1 :      -188.6300263921
    2: -1 :      -188.6300289255
    3: -1 :      -188.6300289234

-------------------------------------------------------------


  ==> Harmonic Vibrational Analysis <==

  non-mass-weighted Hessian:       Symmetric? True   Hermitian? True   Lin Dep Dim?  5 (0)
  projection of translations (True) and rotations (True) removed 5 degrees of freedom (5)
  total projector:                 Symmetric? True   Hermitian? True   Lin Dep Dim?  5 (5)
  mass-weighted Hessian:           Symmetric? True   Hermitian? True   Lin Dep Dim?  5 (0)
  pre-proj  low-frequency mode:    0.0000i [cm^-1]
  pre-proj  low-frequency mode:    0.0000i [cm^-1]
  pre-proj  low-frequency mode:    0.0000  [cm^-1]
  pre-proj  low-frequency mode:    0.0000  [cm^-1]
  pre-proj  low-frequency mode:    0.0000  [cm^-1]
  pre-proj  all modes:['0.0000i' '0.0000i' '0.0000' '0.0000' '0.0000' '706.4412' '709.5208'
 '1393.9991' '2419.6244']
  projected mass-weighted Hessian: Symmetric? True   Hermitian? True   Lin Dep Dim?  5 (5)
  post-proj low-frequency mode:    0.0000i [cm^-1] (TR)
  post-proj low-frequency mode:    0.0000i [cm^-1] (TR)
  post-proj low-frequency mode:    0.0000  [cm^-1] (TR)
  post-proj low-frequency mode:    0.0000  [cm^-1] (TR)
  post-proj low-frequency mode:    0.0000  [cm^-1] (TR)
  post-proj  all modes:['0.0000i' '0.0000i' '0.0000' '0.0000' '0.0000' '706.4412' '709.5208'
 '1393.9991' '2419.6244']

  Vibration                       6                   7                   8           
  Freq [cm^-1]                 706.4412            709.5208           1393.9991       
  Irrep                          B2u                 B3u                  Ag          
  Reduced mass [u]             12.8774             12.8774             15.9949        
  Force const [mDyne/A]         3.7864              3.8195             18.3129        
  Turning point v=0 [a0]        0.1150              0.1148              0.0735        
  RMS dev v=0 [a0 u^1/2]        0.2919              0.2913              0.2078        
  Char temp [K]               1016.4116           1020.8425           2005.6543       
  ----------------------------------------------------------------------------------
      1   C                0.00  0.88 -0.00    0.88  0.00 -0.00    0.00 -0.00  0.00   
      2   O                0.00 -0.33 -0.00   -0.33  0.00  0.00   -0.00 -0.00  0.71   
      3   O               -0.00 -0.33 -0.00   -0.33  0.00  0.00    0.00  0.00 -0.71   

  Vibration                       9           
  Freq [cm^-1]                2419.6244       
  Irrep                          B1u          
  Reduced mass [u]             12.8774        
  Force const [mDyne/A]        44.4195        
  Turning point v=0 [a0]        0.0622        
  RMS dev v=0 [a0 u^1/2]        0.1577        
  Char temp [K]               3481.3007       
  ----------------------------------------------------------------------------------
      1   C               -0.00  0.00  0.88   
      2   O                0.00 -0.00 -0.33   
      3   O               -0.00 -0.00 -0.33   

  ==> Thermochemistry Components <==

  Entropy, S
    Electronic S            0.000 [cal/(mol K)]        0.000 [J/(mol K)]       0.00000000 [mEh/K] (multiplicity = 1)
    Translational S        37.270 [cal/(mol K)]      155.938 [J/(mol K)]       0.05939371 [mEh/K] (mol. weight = 43.9898 [u], P = 101325.00 [Pa])
    Rotational S           13.063 [cal/(mol K)]       54.658 [J/(mol K)]       0.02081800 [mEh/K] (symmetry no. = 2)
    Vibrational S           0.612 [cal/(mol K)]        2.561 [J/(mol K)]       0.00097557 [mEh/K]
  Total S                  50.946 [cal/(mol K)]      213.157 [J/(mol K)]       0.08118728 [mEh/K]
  Correction S              0.000 [cal/(mol K)]        0.000 [J/(mol K)]       0.00000000 [mEh/K]

  Constant volume heat capacity, Cv
    Electronic Cv           0.000 [cal/(mol K)]        0.000 [J/(mol K)]       0.00000000 [mEh/K]
    Translational Cv        2.981 [cal/(mol K)]       12.472 [J/(mol K)]       0.00475022 [mEh/K]
    Rotational Cv           1.987 [cal/(mol K)]        8.314 [J/(mol K)]       0.00316681 [mEh/K]
    Vibrational Cv          1.738 [cal/(mol K)]        7.273 [J/(mol K)]       0.00277021 [mEh/K]
  Total Cv                  6.706 [cal/(mol K)]       28.059 [J/(mol K)]       0.01068724 [mEh/K]
  Correction Cv             0.000 [cal/(mol K)]        0.000 [J/(mol K)]       0.00000000 [mEh/K]

  Constant pressure heat capacity, Cp
    Electronic Cp           0.000 [cal/(mol K)]        0.000 [J/(mol K)]       0.00000000 [mEh/K]
    Translational Cp        4.968 [cal/(mol K)]       20.786 [J/(mol K)]       0.00791703 [mEh/K]
    Rotational Cp           1.987 [cal/(mol K)]        8.314 [J/(mol K)]       0.00316681 [mEh/K]
    Vibrational Cp          1.738 [cal/(mol K)]        7.273 [J/(mol K)]       0.00277021 [mEh/K]
  Total Cp                  8.694 [cal/(mol K)]       36.374 [J/(mol K)]       0.01385405 [mEh/K]
  Correction Cp             0.000 [cal/(mol K)]        0.000 [J/(mol K)]       0.00000000 [mEh/K]

  ==> Thermochemistry Energy Analysis <==

  Raw electronic energy, E0
  Total E0, Electronic energy at well bottom at 0 [K]                 -188.63002916 [Eh]

  Zero-point energy, ZPE_vib = Sum_i nu_i / 2
    Electronic ZPE          0.000 [kcal/mol]        0.000 [kJ/mol]       0.00000000 [Eh]
    Translational ZPE       0.000 [kcal/mol]        0.000 [kJ/mol]       0.00000000 [Eh]
    Rotational ZPE          0.000 [kcal/mol]        0.000 [kJ/mol]       0.00000000 [Eh]
    Vibrational ZPE         7.476 [kcal/mol]       31.280 [kJ/mol]       0.01191387 [Eh]        2614.793 [cm^-1]
  Correction ZPE            7.476 [kcal/mol]       31.280 [kJ/mol]       0.01191387 [Eh]        2614.793 [cm^-1]
  Total ZPE, Electronic energy at 0 [K]                               -188.61811529 [Eh]

  Thermal Energy, E (includes ZPE)
    Electronic E            0.000 [kcal/mol]        0.000 [kJ/mol]       0.00000000 [Eh]
    Translational E         0.889 [kcal/mol]        3.718 [kJ/mol]       0.00141628 [Eh]
    Rotational E            0.592 [kcal/mol]        2.479 [kJ/mol]       0.00094418 [Eh]
    Vibrational E           7.618 [kcal/mol]       31.875 [kJ/mol]       0.01214057 [Eh]
  Correction E              9.100 [kcal/mol]       38.072 [kJ/mol]       0.01450103 [Eh]
  Total E, Electronic energy at  298.15 [K]                           -188.61552813 [Eh]

  Enthalpy, H_trans = E_trans + k_B * T
    Electronic H            0.000 [kcal/mol]        0.000 [kJ/mol]       0.00000000 [Eh]
    Translational H         1.481 [kcal/mol]        6.197 [kJ/mol]       0.00236046 [Eh]
    Rotational H            0.592 [kcal/mol]        2.479 [kJ/mol]       0.00094418 [Eh]
    Vibrational H           7.618 [kcal/mol]       31.875 [kJ/mol]       0.01214057 [Eh]
  Correction H              9.692 [kcal/mol]       40.551 [kJ/mol]       0.01544521 [Eh]
  Total H, Enthalpy at  298.15 [K]                                    -188.61458395 [Eh]

  Gibbs free energy, G = H - T * S
    Electronic G            0.000 [kcal/mol]        0.000 [kJ/mol]       0.00000000 [Eh]
    Translational G        -9.631 [kcal/mol]      -40.296 [kJ/mol]      -0.01534777 [Eh]
    Rotational G           -3.302 [kcal/mol]      -13.817 [kJ/mol]      -0.00526270 [Eh]
    Vibrational G           7.436 [kcal/mol]       31.111 [kJ/mol]       0.01184970 [Eh]
  Correction G             -5.497 [kcal/mol]      -23.001 [kJ/mol]      -0.00876078 [Eh]
  Total G, Free enthalpy at  298.15 [K]                               -188.63878994 [Eh]

    Psi4 stopped on: Tuesday, 27 April 2021 04:48PM
    Psi4 wall time for execution: 0:01:39.26

*** Psi4 exiting successfully. Buy a developer a beer!
