
    -----------------------------------------------------------------------
          Psi4: An Open-Source Ab Initio Electronic Structure Package
                               Psi4 1.3.2 release

                         Git: Rev {HEAD} ecbda83 


    R. M. Parrish, L. A. Burns, D. G. A. Smith, A. C. Simmonett,
    A. E. DePrince III, E. G. Hohenstein, U. Bozkaya, A. Yu. Sokolov,
    R. Di Remigio, R. M. Richard, J. F. Gonthier, A. M. James,
    H. R. McAlexander, A. Kumar, M. Saitow, X. Wang, B. P. Pritchard,
    P. Verma, H. F. Schaefer III, K. Patkowski, R. A. King, E. F. Valeev,
    F. A. Evangelista, J. M. Turney, T. D. Crawford, and C. D. Sherrill,
    J. Chem. Theory Comput. 13(7) pp 3185--3197 (2017).
    (doi: 10.1021/acs.jctc.7b00174)


                         Additional Contributions by
    P. Kraus, H. Kruse, M. H. Lechner, M. C. Schieber, R. A. Shaw,
    A. Alenaizan, R. Galvelis, Z. L. Glick, S. Lehtola, and J. P. Misiewicz

    -----------------------------------------------------------------------


    Psi4 started on: Tuesday, 27 April 2021 04:46PM

    Process ID: 251460
    Host:       bp1-compute00048.data.bp.acrc.priv
    PSIDATADIR: /work/zw18965/.conda/envs/p4env/share/psi4
    Memory:     500.0 MiB
    Threads:    24
    
  ==> Input File <==

--------------------------------------------------------------------------
memory 144 GB

molecule {
0 1
C 0.0000000000 0.0000000000 0.0000000000
O 0.0000000000 0.0000000000 1.1314000000
}

set dynamic_level 1
set basis aug-cc-pV(Q+d)Z
 
optimize("wB97M-V")
frequencies("wB97M-V")
--------------------------------------------------------------------------

  Memory set to 134.110 GiB by Python driver.
gradient() will perform gradient computation by finite difference of analytic energies.

         ----------------------------------------------------------
                                   FINDIF
                     R. A. King and Jonathon Misiewicz
         ---------------------------------------------------------

  Using finite-differences of energies to determine gradients.
    Generating geometries for use with 3-point formula.
    Displacement size will be 5.00e-03.
    Number of atoms is 2.
    Number of symmetric SALCs is 1.
    Translations projected? 1. Rotations projected? 1.
    Number of geometries (including reference) is 3.

  //>>>>>>>>>>>>>>>>>>>>>>>>>>>>>>>>>>>//
  //    Loading displacement 1 of 3    //
  //<<<<<<<<<<<<<<<<<<<<<<<<<<<<<<<<<<<//

*** tstart() called on bp1-compute00048.data.bp.acrc.priv
*** at Tue Apr 27 16:46:53 2021

   => Loading Basis Set <=

    Name: AUG-CC-PV(Q+D)Z
    Role: ORBITAL
    Keyword: BASIS
    atoms 1 entry C          line   319 file /work/zw18965/.conda/envs/p4env/share/psi4/basis/aug-cc-pv_qpd_z.gbs 
    atoms 2 entry O          line   439 file /work/zw18965/.conda/envs/p4env/share/psi4/basis/aug-cc-pv_qpd_z.gbs 


         ---------------------------------------------------------
                                   SCF
               by Justin Turney, Rob Parrish, Andy Simmonett
                          and Daniel G. A. Smith
                              RKS Reference
                       24 Threads, 137329 MiB Core
         ---------------------------------------------------------

  ==> Geometry <==

    Molecular point group: c2v
    Full point group: C_inf_v

    Geometry (in Angstrom), charge = 0, multiplicity = 1:

       Center              X                  Y                   Z               Mass       
    ------------   -----------------  -----------------  -----------------  -----------------
         C            0.000000000000     0.000000000000    -0.646426204420    12.000000000000
         O            0.000000000000     0.000000000000     0.484973795580    15.994914619570

  Running in c2v symmetry.

  Rotational constants: A = ************  B =      1.92079  C =      1.92079 [cm^-1]
  Rotational constants: A = ************  B =  57583.86692  C =  57583.86692 [MHz]
  Nuclear repulsion =   22.450509202899067

  Charge       = 0
  Multiplicity = 1
  Electrons    = 14
  Nalpha       = 7
  Nbeta        = 7

  ==> Algorithm <==

  SCF Algorithm Type is DF.
  DIIS enabled.
  MOM disabled.
  Fractional occupation disabled.
  Guess Type is SAD.
  Energy threshold   = 1.00e-08
  Density threshold  = 1.00e-08
  Integral threshold = 0.00e+00

  ==> Primary Basis <==

  Basis Set: AUG-CC-PV(Q+D)Z
    Blend: AUG-CC-PV(Q+D)Z
    Number of shells: 40
    Number of basis function: 160
    Number of Cartesian functions: 210
    Spherical Harmonics?: true
    Max angular momentum: 4

  ==> DFT Potential <==

   => Composite Functional: WB97M-V <= 

    wB97M-V Hyb-GGA Exchange-Correlation Functional

    N. Mardirossian and M. Head-Gordon, J. Chem. Phys. 144, 214110 (2016)

    Deriv               =              1
    GGA                 =           TRUE
    Meta                =           TRUE

    Exchange Hybrid     =           TRUE
    MP2 Hybrid          =          FALSE

   => Exchange-Correlation Functionals <=

    1.0000   wB97M-V exchange-correlation functional

   => Exact (HF) Exchange <=

    0.8500            HF,LR [omega = 0.3000]
    0.1500               HF 

   => VV10 Non-Local Parameters <=

    VV10 B              =     6.0000E+00
    VV10 C              =     1.0000E-02

   => Molecular Quadrature <=

    Radial Scheme          =       TREUTLER
    Pruning Scheme         =           FLAT
    Nuclear Scheme         =       TREUTLER

    BS radius alpha        =              1
    Pruning alpha          =              1
    Radial Points          =             75
    Spherical Points       =            302
    Total Points           =          45300
    Total Blocks           =            420
    Max Points             =            256
    Max Functions          =            160

   => Loading Basis Set <=

    Name: (AUG-CC-PV(Q+D)Z AUX)
    Role: JKFIT
    Keyword: DF_BASIS_SCF
    atoms 1 entry C          line   178 file /work/zw18965/.conda/envs/p4env/share/psi4/basis/aug-cc-pvqz-jkfit.gbs 
    atoms 2 entry O          line   318 file /work/zw18965/.conda/envs/p4env/share/psi4/basis/aug-cc-pvqz-jkfit.gbs 

  ==> Pre-Iterations <==

   -------------------------------------------------------
    Irrep   Nso     Nmo     Nalpha   Nbeta   Ndocc  Nsocc
   -------------------------------------------------------
     A1        62      62       0       0       0       0
     A2        22      22       0       0       0       0
     B1        38      38       0       0       0       0
     B2        38      38       0       0       0       0
   -------------------------------------------------------
    Total     160     160       7       7       7       0
   -------------------------------------------------------

  ==> Integral Setup <==

  ==> DiskDFJK: Density-Fitted J/K Matrices <==

    J tasked:                  Yes
    K tasked:                  Yes
    wK tasked:                 Yes
    Omega:               3.000E-01
    OpenMP threads:             24
    Integrals threads:          24
    Memory [MiB]:           102505
    Algorithm:                Core
    Integral Cache:           NONE
    Schwarz Cutoff:          1E-12
    Fitting Condition:       1E-10

   => Auxiliary Basis Set <=

  Basis Set: (AUG-CC-PV(Q+D)Z AUX)
    Blend: AUG-CC-PVQZ-JKFIT
    Number of shells: 68
    Number of basis function: 284
    Number of Cartesian functions: 396
    Spherical Harmonics?: true
    Max angular momentum: 5

  Cached 100.0% of DFT collocation blocks in 0.480 [GiB].

  Minimum eigenvalue in the overlap matrix is 9.9225385960E-05.
  Using Symmetric Orthogonalization.

  SCF Guess: Superposition of Atomic Densities via on-the-fly atomic UHF.

  ==> Iterations <==

                           Total Energy        Delta E     RMS |[F,P]|

   @DF-RKS iter SAD:  -112.59257214735017   -1.12593e+02   0.00000e+00 
   @DF-RKS iter   1:  -113.30371866943435   -7.11147e-01   4.15151e-03 DIIS
   @DF-RKS iter   2:  -113.28456802800339    1.91506e-02   5.05380e-03 DIIS
   @DF-RKS iter   3:  -113.34152313790941   -5.69551e-02   6.50510e-04 DIIS
   @DF-RKS iter   4:  -113.34272865956267   -1.20552e-03   7.91825e-05 DIIS
   @DF-RKS iter   5:  -113.34275148206824   -2.28225e-05   1.32112e-05 DIIS
   @DF-RKS iter   6:  -113.34275243698299   -9.54915e-07   2.72122e-06 DIIS
   @DF-RKS iter   7:  -113.34275250507019   -6.80872e-08   3.03717e-07 DIIS
   @DF-RKS iter   8:  -113.34275250617598   -1.10579e-09   6.15084e-08 DIIS
   @DF-RKS iter   9:  -113.34275250619216   -1.61720e-11   6.83487e-09 DIIS
  Energy and wave function converged.


  ==> Post-Iterations <==

    Orbital Energies [Eh]
    ---------------------

    Doubly Occupied:                                                      

       1A1   -19.438790     2A1   -10.462971     3A1    -1.293706  
       4A1    -0.694434     1B2    -0.585234     1B1    -0.585234  
       5A1    -0.488294  

    Virtual:                                                              

       2B1     0.038007     2B2     0.038007     6A1     0.040301  
       7A1     0.057802     3B2     0.081990     3B1     0.081990  
       8A1     0.132109     4B1     0.139933     4B2     0.139933  
       9A1     0.196687     1A2     0.196687    10A1     0.201991  
      11A1     0.272547     5B1     0.282527     5B2     0.282527  
       6B1     0.347077     6B2     0.347077    12A1     0.357931  
      13A1     0.462686     2A2     0.484433    14A1     0.484434  
       7B2     0.559886     7B1     0.559886    15A1     0.572172  
       8B1     0.693353     8B2     0.693353     3A2     0.697618  
      16A1     0.697619    17A1     0.707162     9B1     0.752480  
       9B2     0.752480    18A1     0.807721    10B1     0.808366  
      10B2     0.808366    19A1     0.826216    20A1     0.827016  
       4A2     0.827017    11B1     0.977509    11B2     0.977509  
      21A1     1.053184    12B1     1.344777    12B2     1.344777  
      22A1     1.345888     5A2     1.394037    23A1     1.394039  
      13B2     1.419952    13B1     1.419952    24A1     1.550745  
       6A2     1.643463    25A1     1.643467    26A1     1.653644  
      14B2     1.667133    14B1     1.667133    15B2     1.825790  
      15B1     1.825790     7A2     1.983887    27A1     1.983890  
      28A1     1.993461     8A2     2.027741    29A1     2.027745  
      16B2     2.104208    16B1     2.104208    30A1     2.157907  
      17B1     2.177996    17B2     2.177996    31A1     2.220058  
       9A2     2.220060    18B2     2.225545    18B1     2.225545  
      32A1     2.320779    19B2     2.386361    19B1     2.386361  
      20B2     2.643093    20B1     2.643093    33A1     2.773576  
      34A1     2.828457    10A2     2.828462    35A1     3.293061  
      36A1     3.528876    11A2     3.528889    21B2     3.532182  
      21B1     3.532182    37A1     3.736001    22B1     3.839638  
      22B2     3.839638    38A1     3.940112    12A2     3.940114  
      23B2     3.984579    23B1     3.984579    24B2     4.067881  
      24B1     4.067881    39A1     4.070414    13A2     4.114358  
      40A1     4.114360    41A1     4.273042    25B2     4.495906  
      25B1     4.495906    42A1     4.853187    26B2     4.856700  
      26B1     4.856700    43A1     4.877491    14A2     4.877496  
      44A1     5.612643    45A1     5.643013    15A2     5.643019  
      27B1     5.847471    27B2     5.847471    28B2     5.900350  
      28B1     5.900350    16A2     5.985389    46A1     5.985413  
      29B2     6.020713    29B1     6.020713    47A1     6.078744  
      30B1     6.140596    30B2     6.140596    48A1     6.289964  
      17A2     6.289969    49A1     6.894689    18A2     7.014578  
      50A1     7.014583    31B2     7.159505    31B1     7.159505  
      51A1     7.864833    52A1     8.135814    32B2     8.232569  
      32B1     8.232569    53A1    10.213599    19A2    10.213626  
      33B2    10.481216    33B1    10.481216    34B2    10.611191  
      34B1    10.611191    20A2    10.726896    54A1    10.726899  
      55A1    10.949159    35B2    10.976351    35B1    10.976351  
      36B1    11.401542    36B2    11.401542    56A1    11.571825  
      21A2    11.834511    57A1    11.834541    37B2    12.271417  
      37B1    12.271417    22A2    12.439160    58A1    12.439185  
      59A1    13.297763    38B2    13.729304    38B1    13.729304  
      60A1    14.040761    61A1    24.342439    62A1    42.240237  

    Final Occupation by Irrep:
             A1    A2    B1    B2 
    DOCC [     5,    0,    1,    1 ]

  @DF-RKS Final Energy:  -113.34275250619216

   => Energetics <=

    Nuclear Repulsion Energy =             22.4505092028990667
    One-Electron Energy =                -198.1820034545914950
    Two-Electron Energy =                  72.3790204968049125
    DFT Exchange-Correlation Energy =     -10.0493994057948264
    Empirical Dispersion Energy =           0.0000000000000000
    VV10 Nonlocal Energy =                  0.0591206544901910
    Total Energy =                       -113.3427525061921557

Computation Completed


Properties will be evaluated at   0.000000,   0.000000,   0.000000 [a0]

Properties computed using the SCF density matrix

  Nuclear Dipole Moment: [e a0]
     X:     0.0000      Y:     0.0000      Z:     0.0023

  Electronic Dipole Moment: [e a0]
     X:     0.0000      Y:     0.0000      Z:     0.0162

  Dipole Moment: [e a0]
     X:     0.0000      Y:     0.0000      Z:     0.0186     Total:     0.0186

  Dipole Moment: [D]
     X:     0.0000      Y:     0.0000      Z:     0.0472     Total:     0.0472


*** tstop() called on bp1-compute00048.data.bp.acrc.priv at Tue Apr 27 16:46:56 2021
Module time:
	user time   =      79.50 seconds =       1.32 minutes
	system time =       4.30 seconds =       0.07 minutes
	total time  =          3 seconds =       0.05 minutes
Total time:
	user time   =      79.50 seconds =       1.32 minutes
	system time =       4.30 seconds =       0.07 minutes
	total time  =          3 seconds =       0.05 minutes

  //>>>>>>>>>>>>>>>>>>>>>>>>>>>>>>>>>>>//
  //    Loading displacement 2 of 3    //
  //<<<<<<<<<<<<<<<<<<<<<<<<<<<<<<<<<<<//

*** tstart() called on bp1-compute00048.data.bp.acrc.priv
*** at Tue Apr 27 16:46:57 2021

   => Loading Basis Set <=

    Name: AUG-CC-PV(Q+D)Z
    Role: ORBITAL
    Keyword: BASIS
    atoms 1 entry C          line   319 file /work/zw18965/.conda/envs/p4env/share/psi4/basis/aug-cc-pv_qpd_z.gbs 
    atoms 2 entry O          line   439 file /work/zw18965/.conda/envs/p4env/share/psi4/basis/aug-cc-pv_qpd_z.gbs 


         ---------------------------------------------------------
                                   SCF
               by Justin Turney, Rob Parrish, Andy Simmonett
                          and Daniel G. A. Smith
                              RKS Reference
                       24 Threads, 137329 MiB Core
         ---------------------------------------------------------

  ==> Geometry <==

    Molecular point group: c2v
    Full point group: C_inf_v

    Geometry (in Angstrom), charge = 0, multiplicity = 1:

       Center              X                  Y                   Z               Mass       
    ------------   -----------------  -----------------  -----------------  -----------------
         C            0.000000000000     0.000000000000    -0.647003544760    12.000000000000
         O            0.000000000000     0.000000000000     0.485406938504    15.994914619570

  Running in c2v symmetry.

  Rotational constants: A = ************  B =      1.91736  C =      1.91736 [cm^-1]
  Rotational constants: A = ************  B =  57481.14520  C =  57481.14520 [MHz]
  Nuclear repulsion =   22.430475951585748

  Charge       = 0
  Multiplicity = 1
  Electrons    = 14
  Nalpha       = 7
  Nbeta        = 7

  ==> Algorithm <==

  SCF Algorithm Type is DF.
  DIIS enabled.
  MOM disabled.
  Fractional occupation disabled.
  Guess Type is SAD.
  Energy threshold   = 1.00e-08
  Density threshold  = 1.00e-08
  Integral threshold = 0.00e+00

  ==> Primary Basis <==

  Basis Set: AUG-CC-PV(Q+D)Z
    Blend: AUG-CC-PV(Q+D)Z
    Number of shells: 40
    Number of basis function: 160
    Number of Cartesian functions: 210
    Spherical Harmonics?: true
    Max angular momentum: 4

  ==> DFT Potential <==

   => Composite Functional: WB97M-V <= 

    wB97M-V Hyb-GGA Exchange-Correlation Functional

    N. Mardirossian and M. Head-Gordon, J. Chem. Phys. 144, 214110 (2016)

    Deriv               =              1
    GGA                 =           TRUE
    Meta                =           TRUE

    Exchange Hybrid     =           TRUE
    MP2 Hybrid          =          FALSE

   => Exchange-Correlation Functionals <=

    1.0000   wB97M-V exchange-correlation functional

   => Exact (HF) Exchange <=

    0.8500            HF,LR [omega = 0.3000]
    0.1500               HF 

   => VV10 Non-Local Parameters <=

    VV10 B              =     6.0000E+00
    VV10 C              =     1.0000E-02

   => Molecular Quadrature <=

    Radial Scheme          =       TREUTLER
    Pruning Scheme         =           FLAT
    Nuclear Scheme         =       TREUTLER

    BS radius alpha        =              1
    Pruning alpha          =              1
    Radial Points          =             75
    Spherical Points       =            302
    Total Points           =          45300
    Total Blocks           =            421
    Max Points             =            256
    Max Functions          =            160

   => Loading Basis Set <=

    Name: (AUG-CC-PV(Q+D)Z AUX)
    Role: JKFIT
    Keyword: DF_BASIS_SCF
    atoms 1 entry C          line   178 file /work/zw18965/.conda/envs/p4env/share/psi4/basis/aug-cc-pvqz-jkfit.gbs 
    atoms 2 entry O          line   318 file /work/zw18965/.conda/envs/p4env/share/psi4/basis/aug-cc-pvqz-jkfit.gbs 

  ==> Pre-Iterations <==

   -------------------------------------------------------
    Irrep   Nso     Nmo     Nalpha   Nbeta   Ndocc  Nsocc
   -------------------------------------------------------
     A1        62      62       0       0       0       0
     A2        22      22       0       0       0       0
     B1        38      38       0       0       0       0
     B2        38      38       0       0       0       0
   -------------------------------------------------------
    Total     160     160       7       7       7       0
   -------------------------------------------------------

  ==> Integral Setup <==

  ==> DiskDFJK: Density-Fitted J/K Matrices <==

    J tasked:                  Yes
    K tasked:                  Yes
    wK tasked:                 Yes
    Omega:               3.000E-01
    OpenMP threads:             24
    Integrals threads:          24
    Memory [MiB]:           102505
    Algorithm:                Core
    Integral Cache:           NONE
    Schwarz Cutoff:          1E-12
    Fitting Condition:       1E-10

   => Auxiliary Basis Set <=

  Basis Set: (AUG-CC-PV(Q+D)Z AUX)
    Blend: AUG-CC-PVQZ-JKFIT
    Number of shells: 68
    Number of basis function: 284
    Number of Cartesian functions: 396
    Spherical Harmonics?: true
    Max angular momentum: 5

  Cached 100.0% of DFT collocation blocks in 0.480 [GiB].

  Minimum eigenvalue in the overlap matrix is 9.9424095497E-05.
  Using Symmetric Orthogonalization.

  SCF Guess: Superposition of Atomic Densities via on-the-fly atomic UHF.

  ==> Iterations <==

                           Total Energy        Delta E     RMS |[F,P]|

   @DF-RKS iter SAD:  -112.59085722659876   -1.12591e+02   0.00000e+00 
   @DF-RKS iter   1:  -113.30366723929770   -7.12810e-01   4.15083e-03 DIIS
   @DF-RKS iter   2:  -113.28415061164702    1.95166e-02   5.06840e-03 DIIS
   @DF-RKS iter   3:  -113.34149021776847   -5.73396e-02   6.48373e-04 DIIS
   @DF-RKS iter   4:  -113.34268935446850   -1.19914e-03   7.91913e-05 DIIS
   @DF-RKS iter   5:  -113.34271216963241   -2.28152e-05   1.32242e-05 DIIS
   @DF-RKS iter   6:  -113.34271312506455   -9.55432e-07   2.72442e-06 DIIS
   @DF-RKS iter   7:  -113.34271319323079   -6.81662e-08   3.04383e-07 DIIS
   @DF-RKS iter   8:  -113.34271319434137   -1.11058e-09   6.18774e-08 DIIS
   @DF-RKS iter   9:  -113.34271319435770   -1.63283e-11   6.87422e-09 DIIS
  Energy and wave function converged.


  ==> Post-Iterations <==

    Orbital Energies [Eh]
    ---------------------

    Doubly Occupied:                                                      

       1A1   -19.438837     2A1   -10.463350     3A1    -1.293133  
       4A1    -0.694421     1B2    -0.584873     1B1    -0.584873  
       5A1    -0.488382  

    Virtual:                                                              

       2B2     0.037874     2B1     0.037874     6A1     0.040310  
       7A1     0.057786     3B2     0.081777     3B1     0.081777  
       8A1     0.132102     4B2     0.139937     4B1     0.139937  
       9A1     0.196688     1A2     0.196688    10A1     0.201990  
      11A1     0.272530     5B1     0.282452     5B2     0.282452  
       6B1     0.347072     6B2     0.347072    12A1     0.357885  
      13A1     0.462685     2A2     0.484484    14A1     0.484484  
       7B1     0.559920     7B2     0.559920    15A1     0.571726  
       8B2     0.693342     8B1     0.693342     3A2     0.697593  
      16A1     0.697594    17A1     0.707065     9B2     0.752334  
       9B1     0.752334    18A1     0.807525    10B2     0.808411  
      10B1     0.808411    19A1     0.825827    20A1     0.826956  
       4A2     0.826957    11B1     0.977345    11B2     0.977345  
      21A1     1.052606    12B1     1.344678    12B2     1.344678  
      22A1     1.345550     5A2     1.394134    23A1     1.394136  
      13B2     1.420022    13B1     1.420022    24A1     1.550764  
       6A2     1.643364    25A1     1.643368    26A1     1.653851  
      14B1     1.666354    14B2     1.666354    15B1     1.826273  
      15B2     1.826273     7A2     1.983844    27A1     1.983847  
      28A1     1.992955     8A2     2.027539    29A1     2.027543  
      16B1     2.104148    16B2     2.104148    30A1     2.157812  
      17B2     2.177785    17B1     2.177785    31A1     2.219903  
       9A2     2.219906    18B2     2.225197    18B1     2.225197  
      32A1     2.320633    19B1     2.386054    19B2     2.386054  
      20B1     2.642280    20B2     2.642280    33A1     2.772126  
      34A1     2.827658    10A2     2.827664    35A1     3.293166  
      36A1     3.528668    11A2     3.528681    21B1     3.531819  
      21B2     3.531819    37A1     3.735491    22B1     3.839657  
      22B2     3.839657    38A1     3.940110    12A2     3.940112  
      23B1     3.984476    23B2     3.984476    24B2     4.066824  
      24B1     4.066824    39A1     4.070116    13A2     4.113906  
      40A1     4.113909    41A1     4.271381    25B1     4.496217  
      25B2     4.496217    42A1     4.854760    26B1     4.855115  
      26B2     4.855115    43A1     4.876917    14A2     4.876921  
      44A1     5.608836    45A1     5.642896    15A2     5.642902  
      27B1     5.846541    27B2     5.846541    28B1     5.899593  
      28B2     5.899593    16A2     5.985146    46A1     5.985170  
      29B1     6.020118    29B2     6.020118    47A1     6.079252  
      30B1     6.140435    30B2     6.140435    48A1     6.289416  
      17A2     6.289421    49A1     6.890634    18A2     7.010808  
      50A1     7.010814    31B1     7.157241    31B2     7.157241  
      51A1     7.861172    52A1     8.136625    32B1     8.229010  
      32B2     8.229010    53A1    10.213597    19A2    10.213624  
      33B2    10.480492    33B1    10.480492    34B1    10.610986  
      34B2    10.610986    20A2    10.725932    54A1    10.725935  
      55A1    10.948786    35B1    10.975718    35B2    10.975718  
      36B1    11.401493    36B2    11.401493    56A1    11.570083  
      21A2    11.833438    57A1    11.833469    37B1    12.269642  
      37B2    12.269642    22A2    12.438392    58A1    12.438417  
      59A1    13.292447    38B1    13.723711    38B2    13.723711  
      60A1    14.039317    61A1    24.329661    62A1    42.235344  

    Final Occupation by Irrep:
             A1    A2    B1    B2 
    DOCC [     5,    0,    1,    1 ]

  @DF-RKS Final Energy:  -113.34271319435770

   => Energetics <=

    Nuclear Repulsion Energy =             22.4304759515857484
    One-Electron Energy =                -198.1439433229902534
    Two-Electron Energy =                  72.3601788695164174
    DFT Exchange-Correlation Energy =     -10.0485452428497695
    Empirical Dispersion Energy =           0.0000000000000000
    VV10 Nonlocal Energy =                  0.0591205503801649
    Total Energy =                       -113.3427131943576853

Computation Completed


Properties will be evaluated at   0.000000,   0.000000,   0.000000 [a0]

Properties computed using the SCF density matrix

  Nuclear Dipole Moment: [e a0]
     X:     0.0000      Y:     0.0000      Z:     0.0023

  Electronic Dipole Moment: [e a0]
     X:     0.0000      Y:     0.0000      Z:     0.0147

  Dipole Moment: [e a0]
     X:     0.0000      Y:     0.0000      Z:     0.0171     Total:     0.0171

  Dipole Moment: [D]
     X:     0.0000      Y:     0.0000      Z:     0.0434     Total:     0.0434


*** tstop() called on bp1-compute00048.data.bp.acrc.priv at Tue Apr 27 16:47:01 2021
Module time:
	user time   =      86.07 seconds =       1.43 minutes
	system time =       4.93 seconds =       0.08 minutes
	total time  =          4 seconds =       0.07 minutes
Total time:
	user time   =     165.73 seconds =       2.76 minutes
	system time =       9.24 seconds =       0.15 minutes
	total time  =          8 seconds =       0.13 minutes

  //>>>>>>>>>>>>>>>>>>>>>>>>>>>>>>>>>>>//
  //    Loading displacement 3 of 3    //
  //<<<<<<<<<<<<<<<<<<<<<<<<<<<<<<<<<<<//

*** tstart() called on bp1-compute00048.data.bp.acrc.priv
*** at Tue Apr 27 16:47:01 2021

   => Loading Basis Set <=

    Name: AUG-CC-PV(Q+D)Z
    Role: ORBITAL
    Keyword: BASIS
    atoms 1 entry C          line   319 file /work/zw18965/.conda/envs/p4env/share/psi4/basis/aug-cc-pv_qpd_z.gbs 
    atoms 2 entry O          line   439 file /work/zw18965/.conda/envs/p4env/share/psi4/basis/aug-cc-pv_qpd_z.gbs 


         ---------------------------------------------------------
                                   SCF
               by Justin Turney, Rob Parrish, Andy Simmonett
                          and Daniel G. A. Smith
                              RKS Reference
                       24 Threads, 137329 MiB Core
         ---------------------------------------------------------

  ==> Geometry <==

    Molecular point group: c2v
    Full point group: C_inf_v

    Geometry (in Angstrom), charge = 0, multiplicity = 1:

       Center              X                  Y                   Z               Mass       
    ------------   -----------------  -----------------  -----------------  -----------------
         C            0.000000000000     0.000000000000    -0.645848864080    12.000000000000
         O            0.000000000000     0.000000000000     0.484540652657    15.994914619570

  Running in c2v symmetry.

  Rotational constants: A = ************  B =      1.92423  C =      1.92423 [cm^-1]
  Rotational constants: A = ************  B =  57686.86423  C =  57686.86423 [MHz]
  Nuclear repulsion =   22.470578270654173

  Charge       = 0
  Multiplicity = 1
  Electrons    = 14
  Nalpha       = 7
  Nbeta        = 7

  ==> Algorithm <==

  SCF Algorithm Type is DF.
  DIIS enabled.
  MOM disabled.
  Fractional occupation disabled.
  Guess Type is SAD.
  Energy threshold   = 1.00e-08
  Density threshold  = 1.00e-08
  Integral threshold = 0.00e+00

  ==> Primary Basis <==

  Basis Set: AUG-CC-PV(Q+D)Z
    Blend: AUG-CC-PV(Q+D)Z
    Number of shells: 40
    Number of basis function: 160
    Number of Cartesian functions: 210
    Spherical Harmonics?: true
    Max angular momentum: 4

  ==> DFT Potential <==

   => Composite Functional: WB97M-V <= 

    wB97M-V Hyb-GGA Exchange-Correlation Functional

    N. Mardirossian and M. Head-Gordon, J. Chem. Phys. 144, 214110 (2016)

    Deriv               =              1
    GGA                 =           TRUE
    Meta                =           TRUE

    Exchange Hybrid     =           TRUE
    MP2 Hybrid          =          FALSE

   => Exchange-Correlation Functionals <=

    1.0000   wB97M-V exchange-correlation functional

   => Exact (HF) Exchange <=

    0.8500            HF,LR [omega = 0.3000]
    0.1500               HF 

   => VV10 Non-Local Parameters <=

    VV10 B              =     6.0000E+00
    VV10 C              =     1.0000E-02

   => Molecular Quadrature <=

    Radial Scheme          =       TREUTLER
    Pruning Scheme         =           FLAT
    Nuclear Scheme         =       TREUTLER

    BS radius alpha        =              1
    Pruning alpha          =              1
    Radial Points          =             75
    Spherical Points       =            302
    Total Points           =          45300
    Total Blocks           =            420
    Max Points             =            256
    Max Functions          =            160

   => Loading Basis Set <=

    Name: (AUG-CC-PV(Q+D)Z AUX)
    Role: JKFIT
    Keyword: DF_BASIS_SCF
    atoms 1 entry C          line   178 file /work/zw18965/.conda/envs/p4env/share/psi4/basis/aug-cc-pvqz-jkfit.gbs 
    atoms 2 entry O          line   318 file /work/zw18965/.conda/envs/p4env/share/psi4/basis/aug-cc-pvqz-jkfit.gbs 

  ==> Pre-Iterations <==

   -------------------------------------------------------
    Irrep   Nso     Nmo     Nalpha   Nbeta   Ndocc  Nsocc
   -------------------------------------------------------
     A1        62      62       0       0       0       0
     A2        22      22       0       0       0       0
     B1        38      38       0       0       0       0
     B2        38      38       0       0       0       0
   -------------------------------------------------------
    Total     160     160       7       7       7       0
   -------------------------------------------------------

  ==> Integral Setup <==

  ==> DiskDFJK: Density-Fitted J/K Matrices <==

    J tasked:                  Yes
    K tasked:                  Yes
    wK tasked:                 Yes
    Omega:               3.000E-01
    OpenMP threads:             24
    Integrals threads:          24
    Memory [MiB]:           102505
    Algorithm:                Core
    Integral Cache:           NONE
    Schwarz Cutoff:          1E-12
    Fitting Condition:       1E-10

   => Auxiliary Basis Set <=

  Basis Set: (AUG-CC-PV(Q+D)Z AUX)
    Blend: AUG-CC-PVQZ-JKFIT
    Number of shells: 68
    Number of basis function: 284
    Number of Cartesian functions: 396
    Spherical Harmonics?: true
    Max angular momentum: 5

  Cached 100.0% of DFT collocation blocks in 0.480 [GiB].

  Minimum eigenvalue in the overlap matrix is 9.9027007209E-05.
  Using Symmetric Orthogonalization.

  SCF Guess: Superposition of Atomic Densities via on-the-fly atomic UHF.

  ==> Iterations <==

                           Total Energy        Delta E     RMS |[F,P]|

   @DF-RKS iter SAD:  -112.59428788467490   -1.12594e+02   0.00000e+00 
   @DF-RKS iter   1:  -113.30376428399860   -7.09476e-01   4.15226e-03 DIIS
   @DF-RKS iter   2:  -113.28497715430917    1.87871e-02   5.03930e-03 DIIS
   @DF-RKS iter   3:  -113.34155155678478   -5.65744e-02   6.52650e-04 DIIS
   @DF-RKS iter   4:  -113.34276348266253   -1.21193e-03   7.91743e-05 DIIS
   @DF-RKS iter   5:  -113.34278631282595   -2.28302e-05   1.31981e-05 DIIS
   @DF-RKS iter   6:  -113.34278726720436   -9.54378e-07   2.71804e-06 DIIS
   @DF-RKS iter   7:  -113.34278733521286   -6.80085e-08   3.03056e-07 DIIS
   @DF-RKS iter   8:  -113.34278733631409   -1.10123e-09   6.11432e-08 DIIS
   @DF-RKS iter   9:  -113.34278733633003   -1.59446e-11   6.79592e-09 DIIS
  Energy and wave function converged.


  ==> Post-Iterations <==

    Orbital Energies [Eh]
    ---------------------

    Doubly Occupied:                                                      

       1A1   -19.438743     2A1   -10.462591     3A1    -1.294279  
       4A1    -0.694448     1B2    -0.585596     1B1    -0.585596  
       5A1    -0.488205  

    Virtual:                                                              

       2B2     0.038138     2B1     0.038138     6A1     0.040293  
       7A1     0.057818     3B1     0.082205     3B2     0.082205  
       8A1     0.132116     4B2     0.139930     4B1     0.139930  
       9A1     0.196686     1A2     0.196686    10A1     0.201992  
      11A1     0.272565     5B2     0.282603     5B1     0.282603  
       6B1     0.347083     6B2     0.347083    12A1     0.357977  
      13A1     0.462687     2A2     0.484383    14A1     0.484384  
       7B2     0.559852     7B1     0.559852    15A1     0.572615  
       8B2     0.693364     8B1     0.693364     3A2     0.697643  
      16A1     0.697644    17A1     0.707260     9B1     0.752626  
       9B2     0.752626    18A1     0.807911    10B1     0.808321  
      10B2     0.808321    19A1     0.826611    20A1     0.827076  
       4A2     0.827077    11B1     0.977674    11B2     0.977674  
      21A1     1.053769    12B1     1.344875    12B2     1.344875  
      22A1     1.346227     5A2     1.393940    23A1     1.393942  
      13B2     1.419881    13B1     1.419881    24A1     1.550725  
       6A2     1.643562    25A1     1.643565    26A1     1.653438  
      14B1     1.667914    14B2     1.667914    15B1     1.825309  
      15B2     1.825309     7A2     1.983931    27A1     1.983934  
      28A1     1.993967     8A2     2.027944    29A1     2.027948  
      16B2     2.104267    16B1     2.104267    30A1     2.158003  
      17B1     2.178206    17B2     2.178206    31A1     2.220212  
       9A2     2.220215    18B1     2.225893    18B2     2.225893  
      32A1     2.320929    19B2     2.386666    19B1     2.386666  
      20B2     2.643908    20B1     2.643908    33A1     2.775026  
      34A1     2.829254    10A2     2.829260    35A1     3.292952  
      36A1     3.529085    11A2     3.529098    21B1     3.532541  
      21B2     3.532541    37A1     3.736509    22B1     3.839619  
      22B2     3.839619    38A1     3.940114    12A2     3.940117  
      23B1     3.984680    23B2     3.984680    24B1     4.068940  
      24B2     4.068940    39A1     4.070712    13A2     4.114810  
      40A1     4.114812    41A1     4.274711    25B1     4.495608  
      25B2     4.495608    42A1     4.851617    26B2     4.858283  
      26B1     4.858283    43A1     4.878061    14A2     4.878066  
      44A1     5.616451    45A1     5.643131    15A2     5.643137  
      27B1     5.848403    27B2     5.848403    28B1     5.901101  
      28B2     5.901101    16A2     5.985631    46A1     5.985655  
      29B1     6.021313    29B2     6.021313    47A1     6.078233  
      30B2     6.140757    30B1     6.140757    48A1     6.290515  
      17A2     6.290520    49A1     6.898744    18A2     7.018354  
      50A1     7.018360    31B2     7.161773    31B1     7.161773  
      51A1     7.868495    52A1     8.135016    32B1     8.236129  
      32B2     8.236129    53A1    10.213602    19A2    10.213628  
      33B1    10.481943    33B2    10.481943    34B1    10.611392  
      34B2    10.611392    20A2    10.727865    54A1    10.727867  
      55A1    10.949528    35B1    10.976979    35B2    10.976979  
      36B2    11.401591    36B1    11.401591    56A1    11.573562  
      21A2    11.835583    57A1    11.835613    37B1    12.273213  
      37B2    12.273213    22A2    12.439933    58A1    12.439958  
      59A1    13.303067    38B1    13.734903    38B2    13.734903  
      60A1    14.042238    61A1    24.355210    62A1    42.245142  

    Final Occupation by Irrep:
             A1    A2    B1    B2 
    DOCC [     5,    0,    1,    1 ]

  @DF-RKS Final Energy:  -113.34278733633003

   => Energetics <=

    Nuclear Repulsion Energy =             22.4705782706541726
    One-Electron Energy =                -198.2201241092165844
    Two-Electron Energy =                  72.3978934574051891
    DFT Exchange-Correlation Energy =     -10.0502557157176859
    Empirical Dispersion Energy =           0.0000000000000000
    VV10 Nonlocal Energy =                  0.0591207605448824
    Total Energy =                       -113.3427873363300336

Computation Completed


Properties will be evaluated at   0.000000,   0.000000,   0.000000 [a0]

Properties computed using the SCF density matrix

  Nuclear Dipole Moment: [e a0]
     X:     0.0000      Y:     0.0000      Z:     0.0023

  Electronic Dipole Moment: [e a0]
     X:     0.0000      Y:     0.0000      Z:     0.0177

  Dipole Moment: [e a0]
     X:     0.0000      Y:     0.0000      Z:     0.0201     Total:     0.0201

  Dipole Moment: [D]
     X:     0.0000      Y:     0.0000      Z:     0.0510     Total:     0.0510


*** tstop() called on bp1-compute00048.data.bp.acrc.priv at Tue Apr 27 16:47:04 2021
Module time:
	user time   =      77.31 seconds =       1.29 minutes
	system time =       2.57 seconds =       0.04 minutes
	total time  =          3 seconds =       0.05 minutes
Total time:
	user time   =     243.21 seconds =       4.05 minutes
	system time =      11.82 seconds =       0.20 minutes
	total time  =         11 seconds =       0.18 minutes

         ----------------------------------------------------------
                                   FINDIF
                     R. A. King and Jonathon Misiewicz
         ---------------------------------------------------------

  Computing gradient from energies.
    Using 3-point formula.
    Energy without displacement: -113.3427525062
    Check energies below for precision!
    Forces are for mass-weighted, symmetry-adapted cartesians (in au).

     Coord      Energy(-1)        Energy(+1)            Force
        0   -113.3427131944   -113.3427873363     -0.0074141972


-------------------------------------------------------------
  ## New Matrix (Symmetry 0) ##
  Irrep: 1 Size: 2 x 3

                 1                   2                   3

    1     0.00000000000000     0.00000000000000    -0.01941360314418
    2     0.00000000000000     0.00000000000000     0.01941360314418




			-----------------------------------------
			 OPTKING 2.0: for geometry optimizations 
			  - R.A. King,  Bethel University        
			-----------------------------------------
	At level 1: Red. Int., RFO, no backsteps, dynamic trust

	Internal coordinates to be generated automatically.
	Detected frag 1 with atoms:  1 2
	---Fragment 1 Bond Connectivity---
	 1 : 2
	 2 : 1

	---Fragment 1 Geometry and Gradient---
	 C           0.0000000000        0.0000000000       -1.2215684867
	 O           0.0000000000        0.0000000000        0.9164676517
	             0.0000000000        0.0000000000       -0.0194136031
	             0.0000000000        0.0000000000        0.0194136031

	Previous optimization step data not found.  Starting new optimization.

	---Fragment 1 Intrafragment Coordinates---
	 - Coordinate -           - BOHR/RAD -       - ANG/DEG -
	 R(1,2)           =         2.138036	       1.131400

	Current energy   :      -113.3427525062

	Generating empirical Hessian (Schlegel '84) for each fragment.
	Taking RFO optimization step.
	Going to follow RFO solution 1.
	Using RFO vector 1.
	Norm of target step-size    0.01307
	Projected energy change by RFO approximation:        -0.0001683017

	Back-transformation to cartesian coordinates...
	Successfully converged to displaced geometry.

	--- Internal Coordinate Step in ANG or DEG, aJ/ANG or AJ/DEG ---
	 ---------------------------------------------------------------------------
	   Coordinate                Previous        Force       Change         New 
	   ----------                --------       ------       ------       ------
	    1 R(1,2)          =      1.131400    -0.159943    -0.006917     1.124483
	 ---------------------------------------------------------------------------
	Successfully symmetrized geometry.

  ==> Convergence Check <==

  Measures of convergence in internal coordinates in au.
  Criteria marked as inactive (o), active & met (*), and active & unmet ( ).
  --------------------------------------------------------------------------------------------- ~
   Step     Total Energy     Delta E     MAX Force     RMS Force      MAX Disp      RMS Disp    ~
  --------------------------------------------------------------------------------------------- ~
    Convergence Criteria    1.00e-06 *    3.00e-04 *             o    1.20e-03 *             o  ~
  --------------------------------------------------------------------------------------------- ~
      1    -113.34275251   -1.13e+02      1.94e-02      1.94e-02 o    1.31e-02      1.31e-02 o  ~
  ---------------------------------------------------------------------------------------------

	Writing optimization data to binary file.
	Structure for next step:
	Cartesian Geometry (in Angstrom)
	    C     0.0000000000   0.0000000000  -0.6429677335
	    O     0.0000000000   0.0000000000   0.4815153253
			--------------------------
			 OPTKING Finished Execution 
			--------------------------

    Structure for next step:
    Molecular point group: c2v
    Full point group: C_inf_v

    Geometry (in Angstrom), charge = 0, multiplicity = 1:

    C            0.000000000000     0.000000000000    -0.642474207607
    O            0.000000000000     0.000000000000     0.482008855605

gradient() will perform gradient computation by finite difference of analytic energies.

         ----------------------------------------------------------
                                   FINDIF
                     R. A. King and Jonathon Misiewicz
         ---------------------------------------------------------

  Using finite-differences of energies to determine gradients.
    Generating geometries for use with 3-point formula.
    Displacement size will be 5.00e-03.
    Number of atoms is 2.
    Number of symmetric SALCs is 1.
    Translations projected? 1. Rotations projected? 1.
    Number of geometries (including reference) is 3.

  //>>>>>>>>>>>>>>>>>>>>>>>>>>>>>>>>>>>//
  //    Loading displacement 1 of 3    //
  //<<<<<<<<<<<<<<<<<<<<<<<<<<<<<<<<<<<//

*** tstart() called on bp1-compute00048.data.bp.acrc.priv
*** at Tue Apr 27 16:47:04 2021

   => Loading Basis Set <=

    Name: AUG-CC-PV(Q+D)Z
    Role: ORBITAL
    Keyword: BASIS
    atoms 1 entry C          line   319 file /work/zw18965/.conda/envs/p4env/share/psi4/basis/aug-cc-pv_qpd_z.gbs 
    atoms 2 entry O          line   439 file /work/zw18965/.conda/envs/p4env/share/psi4/basis/aug-cc-pv_qpd_z.gbs 


         ---------------------------------------------------------
                                   SCF
               by Justin Turney, Rob Parrish, Andy Simmonett
                          and Daniel G. A. Smith
                              RKS Reference
                       24 Threads, 137329 MiB Core
         ---------------------------------------------------------

  ==> Geometry <==

    Molecular point group: c2v
    Full point group: C_inf_v

    Geometry (in Angstrom), charge = 0, multiplicity = 1:

       Center              X                  Y                   Z               Mass       
    ------------   -----------------  -----------------  -----------------  -----------------
         C            0.000000000000     0.000000000000    -0.642474207607    12.000000000000
         O            0.000000000000     0.000000000000     0.482008855605    15.994914619570

  Running in c2v symmetry.

  Rotational constants: A = ************  B =      1.94449  C =      1.94449 [cm^-1]
  Rotational constants: A = ************  B =  58294.46720  C =  58294.46720 [MHz]
  Nuclear repulsion =   22.588607105909375

  Charge       = 0
  Multiplicity = 1
  Electrons    = 14
  Nalpha       = 7
  Nbeta        = 7

  ==> Algorithm <==

  SCF Algorithm Type is DF.
  DIIS enabled.
  MOM disabled.
  Fractional occupation disabled.
  Guess Type is READ.
  Energy threshold   = 1.00e-08
  Density threshold  = 1.00e-08
  Integral threshold = 0.00e+00

  ==> Primary Basis <==

  Basis Set: AUG-CC-PV(Q+D)Z
    Blend: AUG-CC-PV(Q+D)Z
    Number of shells: 40
    Number of basis function: 160
    Number of Cartesian functions: 210
    Spherical Harmonics?: true
    Max angular momentum: 4

  ==> DFT Potential <==

   => Composite Functional: WB97M-V <= 

    wB97M-V Hyb-GGA Exchange-Correlation Functional

    N. Mardirossian and M. Head-Gordon, J. Chem. Phys. 144, 214110 (2016)

    Deriv               =              1
    GGA                 =           TRUE
    Meta                =           TRUE

    Exchange Hybrid     =           TRUE
    MP2 Hybrid          =          FALSE

   => Exchange-Correlation Functionals <=

    1.0000   wB97M-V exchange-correlation functional

   => Exact (HF) Exchange <=

    0.8500            HF,LR [omega = 0.3000]
    0.1500               HF 

   => VV10 Non-Local Parameters <=

    VV10 B              =     6.0000E+00
    VV10 C              =     1.0000E-02

   => Molecular Quadrature <=

    Radial Scheme          =       TREUTLER
    Pruning Scheme         =           FLAT
    Nuclear Scheme         =       TREUTLER

    BS radius alpha        =              1
    Pruning alpha          =              1
    Radial Points          =             75
    Spherical Points       =            302
    Total Points           =          45300
    Total Blocks           =            419
    Max Points             =            256
    Max Functions          =            160

   => Loading Basis Set <=

    Name: (AUG-CC-PV(Q+D)Z AUX)
    Role: JKFIT
    Keyword: DF_BASIS_SCF
    atoms 1 entry C          line   178 file /work/zw18965/.conda/envs/p4env/share/psi4/basis/aug-cc-pvqz-jkfit.gbs 
    atoms 2 entry O          line   318 file /work/zw18965/.conda/envs/p4env/share/psi4/basis/aug-cc-pvqz-jkfit.gbs 

   => Loading Basis Set <=

    Name: AUG-CC-PV(Q+D)Z
    Role: ORBITAL
    Keyword: BASIS
    atoms 1 entry C          line   319 file /work/zw18965/.conda/envs/p4env/share/psi4/basis/aug-cc-pv_qpd_z.gbs 
    atoms 2 entry O          line   439 file /work/zw18965/.conda/envs/p4env/share/psi4/basis/aug-cc-pv_qpd_z.gbs 

  Reading orbitals from file 180, no projection.

  ==> Pre-Iterations <==

   -------------------------------------------------------
    Irrep   Nso     Nmo     Nalpha   Nbeta   Ndocc  Nsocc
   -------------------------------------------------------
     A1        62      62       0       0       0       0
     A2        22      22       0       0       0       0
     B1        38      38       0       0       0       0
     B2        38      38       0       0       0       0
   -------------------------------------------------------
    Total     160     160       7       7       7       0
   -------------------------------------------------------

  ==> Integral Setup <==

  ==> DiskDFJK: Density-Fitted J/K Matrices <==

    J tasked:                  Yes
    K tasked:                  Yes
    wK tasked:                 Yes
    Omega:               3.000E-01
    OpenMP threads:             24
    Integrals threads:          24
    Memory [MiB]:           102505
    Algorithm:                Core
    Integral Cache:           NONE
    Schwarz Cutoff:          1E-12
    Fitting Condition:       1E-10

   => Auxiliary Basis Set <=

  Basis Set: (AUG-CC-PV(Q+D)Z AUX)
    Blend: AUG-CC-PVQZ-JKFIT
    Number of shells: 68
    Number of basis function: 284
    Number of Cartesian functions: 396
    Spherical Harmonics?: true
    Max angular momentum: 5

  Cached 100.0% of DFT collocation blocks in 0.479 [GiB].

  Minimum eigenvalue in the overlap matrix is 9.7873909103E-05.
  Using Symmetric Orthogonalization.

  SCF Guess: Orbitals guess was supplied from a previous computation.

  ==> Iterations <==

                           Total Energy        Delta E     RMS |[F,P]|

   @DF-RKS iter   0:  -113.34751960520258   -1.13348e+02   3.52957e-04 
   @DF-RKS iter   1:  -113.34289564312724    4.62396e-03   3.59368e-05 DIIS
   @DF-RKS iter   2:  -113.34289561317559    2.99517e-08   4.19817e-05 DIIS
   @DF-RKS iter   3:  -113.34289950711683   -3.89394e-06   6.46324e-06 DIIS
   @DF-RKS iter   4:  -113.34289959916435   -9.20475e-08   1.13868e-06 DIIS
   @DF-RKS iter   5:  -113.34289960455287   -5.38851e-09   2.62941e-07 DIIS
   @DF-RKS iter   6:  -113.34289960487179   -3.18920e-10   3.55356e-08 DIIS
   @DF-RKS iter   7:  -113.34289960487958   -7.78755e-12   4.80211e-09 DIIS
  Energy and wave function converged.


  ==> Post-Iterations <==

    Orbital Energies [Eh]
    ---------------------

    Doubly Occupied:                                                      

       1A1   -19.438457     2A1   -10.460362     3A1    -1.297635  
       4A1    -0.694529     1B1    -0.587723     1B2    -0.587723  
       5A1    -0.487681  

    Virtual:                                                              

       2B1     0.038879     2B2     0.038879     6A1     0.040242  
       7A1     0.057912     3B1     0.083489     3B2     0.083489  
       8A1     0.132159     4B1     0.139915     4B2     0.139915  
       9A1     0.196681     1A2     0.196681    10A1     0.201997  
      11A1     0.272664     5B1     0.283046     5B2     0.283046  
       6B1     0.347120     6B2     0.347120    12A1     0.358241  
      13A1     0.462691     2A2     0.484085    14A1     0.484086  
       7B1     0.559647     7B2     0.559647    15A1     0.575131  
       8B2     0.693428     8B1     0.693428     3A2     0.697783  
      16A1     0.697784    17A1     0.707824     9B2     0.753480  
       9B1     0.753480    10B2     0.808058    10B1     0.808058  
      18A1     0.808913    19A1     0.827431     4A2     0.827432  
      20A1     0.829012    11B2     0.978644    11B1     0.978644  
      21A1     1.057311    12B1     1.345452    12B2     1.345452  
      22A1     1.348237     5A2     1.393381    23A1     1.393382  
      13B1     1.419459    13B2     1.419459    24A1     1.550569  
       6A2     1.644120    25A1     1.644123    26A1     1.652276  
      14B1     1.672497    14B2     1.672497    15B1     1.822518  
      15B2     1.822518     7A2     1.984187    27A1     1.984190  
      28A1     1.996929     8A2     2.029140    29A1     2.029144  
      16B1     2.104614    16B2     2.104614    30A1     2.158578  
      17B2     2.179431    17B1     2.179431    31A1     2.221111  
       9A2     2.221113    18B1     2.227931    18B2     2.227931  
      32A1     2.321879    19B2     2.388421    19B1     2.388421  
      20B2     2.648725    20B1     2.648725    33A1     2.783496  
      34A1     2.833911    10A2     2.833917    35A1     3.292213  
      36A1     3.530325    11A2     3.530336    21B2     3.534563  
      21B1     3.534563    37A1     3.739461    22B1     3.839498  
      22B2     3.839498    38A1     3.940151    12A2     3.940155  
      23B2     3.985237    23B1     3.985237    39A1     4.072452  
      24B1     4.075161    24B2     4.075161    13A2     4.117458  
      40A1     4.117461    41A1     4.284628    25B2     4.494121  
      25B1     4.494121    42A1     4.842505    26B2     4.867503  
      26B1     4.867503    43A1     4.881310    14A2     4.881315  
      44A1     5.638710    45A1     5.643819    15A2     5.643826  
      27B2     5.853896    27B1     5.853896    28B1     5.905396  
      28B2     5.905396    16A2     5.987023    46A1     5.987047  
      29B2     6.024932    29B1     6.024932    47A1     6.075168  
      30B1     6.141720    30B2     6.141720    48A1     6.293821  
      17A2     6.293826    49A1     6.922438    18A2     7.040567  
      50A1     7.040572    31B2     7.175104    31B1     7.175104  
      51A1     7.889885    52A1     8.130634    32B2     8.256944  
      32B1     8.256944    53A1    10.213628    19A2    10.213650  
      33B1    10.486248    33B2    10.486248    34B1    10.612487  
      34B2    10.612487    54A1    10.733618    20A2    10.733619  
      55A1    10.951604    35B2    10.980563    35B1    10.980563  
      36B1    11.401893    36B2    11.401893    56A1    11.583629  
      21A2    11.841858    57A1    11.841885    37B2    12.284140  
      37B1    12.284140    22A2    12.444542    58A1    12.444569  
      59A1    13.333773    38B2    13.767757    38B1    13.767757  
      60A1    14.051557    61A1    24.429705    62A1    42.274035  

    Final Occupation by Irrep:
             A1    A2    B1    B2 
    DOCC [     5,    0,    1,    1 ]

  @DF-RKS Final Energy:  -113.34289960487958

   => Energetics <=

    Nuclear Repulsion Energy =             22.5886071059093752
    One-Electron Energy =                -198.4441647272165028
    Two-Electron Energy =                  72.5088409877051134
    DFT Exchange-Correlation Energy =     -10.0553043908990301
    Empirical Dispersion Energy =           0.0000000000000000
    VV10 Nonlocal Energy =                  0.0591214196214616
    Total Energy =                       -113.3428996048795767

Computation Completed


Properties will be evaluated at   0.000000,   0.000000,   0.000000 [a0]

Properties computed using the SCF density matrix

  Nuclear Dipole Moment: [e a0]
     X:     0.0000      Y:     0.0000      Z:     0.0023

  Electronic Dipole Moment: [e a0]
     X:     0.0000      Y:     0.0000      Z:     0.0266

  Dipole Moment: [e a0]
     X:     0.0000      Y:     0.0000      Z:     0.0289     Total:     0.0289

  Dipole Moment: [D]
     X:     0.0000      Y:     0.0000      Z:     0.0734     Total:     0.0734


*** tstop() called on bp1-compute00048.data.bp.acrc.priv at Tue Apr 27 16:47:07 2021
Module time:
	user time   =      57.41 seconds =       0.96 minutes
	system time =       1.85 seconds =       0.03 minutes
	total time  =          3 seconds =       0.05 minutes
Total time:
	user time   =     301.07 seconds =       5.02 minutes
	system time =      13.70 seconds =       0.23 minutes
	total time  =         14 seconds =       0.23 minutes

  //>>>>>>>>>>>>>>>>>>>>>>>>>>>>>>>>>>>//
  //    Loading displacement 2 of 3    //
  //<<<<<<<<<<<<<<<<<<<<<<<<<<<<<<<<<<<//

*** tstart() called on bp1-compute00048.data.bp.acrc.priv
*** at Tue Apr 27 16:47:07 2021

   => Loading Basis Set <=

    Name: AUG-CC-PV(Q+D)Z
    Role: ORBITAL
    Keyword: BASIS
    atoms 1 entry C          line   319 file /work/zw18965/.conda/envs/p4env/share/psi4/basis/aug-cc-pv_qpd_z.gbs 
    atoms 2 entry O          line   439 file /work/zw18965/.conda/envs/p4env/share/psi4/basis/aug-cc-pv_qpd_z.gbs 


         ---------------------------------------------------------
                                   SCF
               by Justin Turney, Rob Parrish, Andy Simmonett
                          and Daniel G. A. Smith
                              RKS Reference
                       24 Threads, 137329 MiB Core
         ---------------------------------------------------------

  ==> Geometry <==

    Molecular point group: c2v
    Full point group: C_inf_v

    Geometry (in Angstrom), charge = 0, multiplicity = 1:

       Center              X                  Y                   Z               Mass       
    ------------   -----------------  -----------------  -----------------  -----------------
         C            0.000000000000     0.000000000000    -0.643051547947    12.000000000000
         O            0.000000000000     0.000000000000     0.482441998529    15.994914619570

  Running in c2v symmetry.

  Rotational constants: A = ************  B =      1.94100  C =      1.94100 [cm^-1]
  Rotational constants: A = ************  B =  58189.83908  C =  58189.83908 [MHz]
  Nuclear repulsion =   22.568326750244776

  Charge       = 0
  Multiplicity = 1
  Electrons    = 14
  Nalpha       = 7
  Nbeta        = 7

  ==> Algorithm <==

  SCF Algorithm Type is DF.
  DIIS enabled.
  MOM disabled.
  Fractional occupation disabled.
  Guess Type is READ.
  Energy threshold   = 1.00e-08
  Density threshold  = 1.00e-08
  Integral threshold = 0.00e+00

  ==> Primary Basis <==

  Basis Set: AUG-CC-PV(Q+D)Z
    Blend: AUG-CC-PV(Q+D)Z
    Number of shells: 40
    Number of basis function: 160
    Number of Cartesian functions: 210
    Spherical Harmonics?: true
    Max angular momentum: 4

  ==> DFT Potential <==

   => Composite Functional: WB97M-V <= 

    wB97M-V Hyb-GGA Exchange-Correlation Functional

    N. Mardirossian and M. Head-Gordon, J. Chem. Phys. 144, 214110 (2016)

    Deriv               =              1
    GGA                 =           TRUE
    Meta                =           TRUE

    Exchange Hybrid     =           TRUE
    MP2 Hybrid          =          FALSE

   => Exchange-Correlation Functionals <=

    1.0000   wB97M-V exchange-correlation functional

   => Exact (HF) Exchange <=

    0.8500            HF,LR [omega = 0.3000]
    0.1500               HF 

   => VV10 Non-Local Parameters <=

    VV10 B              =     6.0000E+00
    VV10 C              =     1.0000E-02

   => Molecular Quadrature <=

    Radial Scheme          =       TREUTLER
    Pruning Scheme         =           FLAT
    Nuclear Scheme         =       TREUTLER

    BS radius alpha        =              1
    Pruning alpha          =              1
    Radial Points          =             75
    Spherical Points       =            302
    Total Points           =          45300
    Total Blocks           =            420
    Max Points             =            256
    Max Functions          =            160

   => Loading Basis Set <=

    Name: (AUG-CC-PV(Q+D)Z AUX)
    Role: JKFIT
    Keyword: DF_BASIS_SCF
    atoms 1 entry C          line   178 file /work/zw18965/.conda/envs/p4env/share/psi4/basis/aug-cc-pvqz-jkfit.gbs 
    atoms 2 entry O          line   318 file /work/zw18965/.conda/envs/p4env/share/psi4/basis/aug-cc-pvqz-jkfit.gbs 

   => Loading Basis Set <=

    Name: AUG-CC-PV(Q+D)Z
    Role: ORBITAL
    Keyword: BASIS
    atoms 1 entry C          line   319 file /work/zw18965/.conda/envs/p4env/share/psi4/basis/aug-cc-pv_qpd_z.gbs 
    atoms 2 entry O          line   439 file /work/zw18965/.conda/envs/p4env/share/psi4/basis/aug-cc-pv_qpd_z.gbs 

  Reading orbitals from file 180, no projection.

  ==> Pre-Iterations <==

   -------------------------------------------------------
    Irrep   Nso     Nmo     Nalpha   Nbeta   Ndocc  Nsocc
   -------------------------------------------------------
     A1        62      62       0       0       0       0
     A2        22      22       0       0       0       0
     B1        38      38       0       0       0       0
     B2        38      38       0       0       0       0
   -------------------------------------------------------
    Total     160     160       7       7       7       0
   -------------------------------------------------------

  ==> Integral Setup <==

  ==> DiskDFJK: Density-Fitted J/K Matrices <==

    J tasked:                  Yes
    K tasked:                  Yes
    wK tasked:                 Yes
    Omega:               3.000E-01
    OpenMP threads:             24
    Integrals threads:          24
    Memory [MiB]:           102505
    Algorithm:                Core
    Integral Cache:           NONE
    Schwarz Cutoff:          1E-12
    Fitting Condition:       1E-10

   => Auxiliary Basis Set <=

  Basis Set: (AUG-CC-PV(Q+D)Z AUX)
    Blend: AUG-CC-PVQZ-JKFIT
    Number of shells: 68
    Number of basis function: 284
    Number of Cartesian functions: 396
    Spherical Harmonics?: true
    Max angular momentum: 5

  Cached 100.0% of DFT collocation blocks in 0.479 [GiB].

  Minimum eigenvalue in the overlap matrix is 9.8070414227E-05.
  Using Symmetric Orthogonalization.

  SCF Guess: Orbitals guess was supplied from a previous computation.

  ==> Iterations <==

                           Total Energy        Delta E     RMS |[F,P]|

   @DF-RKS iter   0:  -113.34224070170930   -1.13342e+02   5.20122e-05 
   @DF-RKS iter   1:  -113.34289152224723   -6.50821e-04   5.30633e-06 DIIS
   @DF-RKS iter   2:  -113.34289151991892    2.32831e-09   6.23866e-06 DIIS
   @DF-RKS iter   3:  -113.34289160611432   -8.61954e-08   9.42362e-07 DIIS
   @DF-RKS iter   4:  -113.34289160807027   -1.95595e-09   1.65260e-07 DIIS
   @DF-RKS iter   5:  -113.34289160818501   -1.14738e-10   3.83052e-08 DIIS
   @DF-RKS iter   6:  -113.34289160819129   -6.28120e-12   5.20079e-09 DIIS
  Energy and wave function converged.


  ==> Post-Iterations <==

    Orbital Energies [Eh]
    ---------------------

    Doubly Occupied:                                                      

       1A1   -19.438507     2A1   -10.460744     3A1    -1.297060  
       4A1    -0.694515     1B2    -0.587358     1B1    -0.587358  
       5A1    -0.487771  

    Virtual:                                                              

       2B2     0.038756     2B1     0.038756     6A1     0.040251  
       7A1     0.057896     3B2     0.083266     3B1     0.083266  
       8A1     0.132152     4B2     0.139917     4B1     0.139917  
       9A1     0.196682     1A2     0.196682    10A1     0.201996  
      11A1     0.272647     5B1     0.282970     5B2     0.282970  
       6B2     0.347113     6B1     0.347113    12A1     0.358196  
      13A1     0.462691     2A2     0.484136    14A1     0.484137  
       7B2     0.559682     7B1     0.559682    15A1     0.574709  
       8B2     0.693417     8B1     0.693417     3A2     0.697760  
      16A1     0.697761    17A1     0.707728     9B1     0.753334  
       9B2     0.753334    10B1     0.808103    10B2     0.808103  
      18A1     0.808753    19A1     0.827370     4A2     0.827371  
      20A1     0.828591    11B2     0.978477    11B1     0.978477  
      21A1     1.056690    12B2     1.345354    12B1     1.345354  
      22A1     1.347889     5A2     1.393476    23A1     1.393477  
      13B1     1.419532    13B2     1.419532    24A1     1.550600  
       6A2     1.644027    25A1     1.644030    26A1     1.652470  
      14B1     1.671711    14B2     1.671711    15B1     1.822992  
      15B2     1.822992     7A2     1.984143    27A1     1.984146  
      28A1     1.996422     8A2     2.028934    29A1     2.028938  
      16B2     2.104555    16B1     2.104555    30A1     2.158478  
      17B2     2.179222    17B1     2.179222    31A1     2.220958  
       9A2     2.220960    18B2     2.227581    18B1     2.227581  
      32A1     2.321707    19B1     2.388124    19B2     2.388124  
      20B2     2.647895    20B1     2.647895    33A1     2.782048  
      34A1     2.833115    10A2     2.833121    35A1     3.292351  
      36A1     3.530110    11A2     3.530122    21B2     3.534226  
      21B1     3.534226    37A1     3.738959    22B2     3.839519  
      22B1     3.839519    38A1     3.940142    12A2     3.940146  
      23B1     3.985146    23B2     3.985146    39A1     4.072154  
      24B1     4.074092    24B2     4.074092    13A2     4.117004  
      40A1     4.117007    41A1     4.282913    25B2     4.494344  
      25B1     4.494344    42A1     4.844055    26B2     4.865930  
      26B1     4.865930    43A1     4.880764    14A2     4.880769  
      44A1     5.634903    45A1     5.643701    15A2     5.643708  
      27B1     5.852951    27B2     5.852951    28B2     5.904674  
      28B1     5.904674    16A2     5.986788    46A1     5.986811  
      29B1     6.024299    29B2     6.024299    47A1     6.075701  
      30B2     6.141553    30B1     6.141553    48A1     6.293246  
      17A2     6.293251    49A1     6.918386    18A2     7.036750  
      50A1     7.036755    31B2     7.172815    31B1     7.172815  
      51A1     7.886231    52A1     8.131344    32B2     8.253383  
      32B1     8.253383    53A1    10.213623    19A2    10.213645  
      33B1    10.485504    33B2    10.485504    34B2    10.612309  
      34B1    10.612309    20A2    10.732623    54A1    10.732623  
      55A1    10.951258    35B2    10.979960    35B1    10.979960  
      36B2    11.401840    36B1    11.401840    56A1    11.581918  
      21A2    11.840784    57A1    11.840811    37B2    12.282218  
      37B1    12.282218    22A2    12.443742    58A1    12.443769  
      59A1    13.328558    38B2    13.762121    38B1    13.762121  
      60A1    14.049876    61A1    24.416982    62A1    42.269065  

    Final Occupation by Irrep:
             A1    A2    B1    B2 
    DOCC [     5,    0,    1,    1 ]

  @DF-RKS Final Energy:  -113.34289160819129

   => Energetics <=

    Nuclear Repulsion Energy =             22.5683267502447755
    One-Electron Energy =                -198.4056881621352204
    Two-Electron Energy =                  72.4897839625242142
    DFT Exchange-Correlation Energy =     -10.0544354609013205
    Empirical Dispersion Energy =           0.0000000000000000
    VV10 Nonlocal Energy =                  0.0591213020762491
    Total Energy =                       -113.3428916081912945

Computation Completed


Properties will be evaluated at   0.000000,   0.000000,   0.000000 [a0]

Properties computed using the SCF density matrix

  Nuclear Dipole Moment: [e a0]
     X:     0.0000      Y:     0.0000      Z:     0.0023

  Electronic Dipole Moment: [e a0]
     X:     0.0000      Y:     0.0000      Z:     0.0250

  Dipole Moment: [e a0]
     X:     0.0000      Y:     0.0000      Z:     0.0274     Total:     0.0274

  Dipole Moment: [D]
     X:     0.0000      Y:     0.0000      Z:     0.0696     Total:     0.0696


*** tstop() called on bp1-compute00048.data.bp.acrc.priv at Tue Apr 27 16:47:10 2021
Module time:
	user time   =      59.91 seconds =       1.00 minutes
	system time =       2.62 seconds =       0.04 minutes
	total time  =          3 seconds =       0.05 minutes
Total time:
	user time   =     361.11 seconds =       6.02 minutes
	system time =      16.33 seconds =       0.27 minutes
	total time  =         17 seconds =       0.28 minutes

  //>>>>>>>>>>>>>>>>>>>>>>>>>>>>>>>>>>>//
  //    Loading displacement 3 of 3    //
  //<<<<<<<<<<<<<<<<<<<<<<<<<<<<<<<<<<<//

*** tstart() called on bp1-compute00048.data.bp.acrc.priv
*** at Tue Apr 27 16:47:10 2021

   => Loading Basis Set <=

    Name: AUG-CC-PV(Q+D)Z
    Role: ORBITAL
    Keyword: BASIS
    atoms 1 entry C          line   319 file /work/zw18965/.conda/envs/p4env/share/psi4/basis/aug-cc-pv_qpd_z.gbs 
    atoms 2 entry O          line   439 file /work/zw18965/.conda/envs/p4env/share/psi4/basis/aug-cc-pv_qpd_z.gbs 


         ---------------------------------------------------------
                                   SCF
               by Justin Turney, Rob Parrish, Andy Simmonett
                          and Daniel G. A. Smith
                              RKS Reference
                       24 Threads, 137329 MiB Core
         ---------------------------------------------------------

  ==> Geometry <==

    Molecular point group: c2v
    Full point group: C_inf_v

    Geometry (in Angstrom), charge = 0, multiplicity = 1:

       Center              X                  Y                   Z               Mass       
    ------------   -----------------  -----------------  -----------------  -----------------
         C            0.000000000000     0.000000000000    -0.641896867267    12.000000000000
         O            0.000000000000     0.000000000000     0.481575712682    15.994914619570

  Running in c2v symmetry.

  Rotational constants: A = ************  B =      1.94799  C =      1.94799 [cm^-1]
  Rotational constants: A = ************  B =  58399.37777  C =  58399.37777 [MHz]
  Nuclear repulsion =   22.608923943033925

  Charge       = 0
  Multiplicity = 1
  Electrons    = 14
  Nalpha       = 7
  Nbeta        = 7

  ==> Algorithm <==

  SCF Algorithm Type is DF.
  DIIS enabled.
  MOM disabled.
  Fractional occupation disabled.
  Guess Type is READ.
  Energy threshold   = 1.00e-08
  Density threshold  = 1.00e-08
  Integral threshold = 0.00e+00

  ==> Primary Basis <==

  Basis Set: AUG-CC-PV(Q+D)Z
    Blend: AUG-CC-PV(Q+D)Z
    Number of shells: 40
    Number of basis function: 160
    Number of Cartesian functions: 210
    Spherical Harmonics?: true
    Max angular momentum: 4

  ==> DFT Potential <==

   => Composite Functional: WB97M-V <= 

    wB97M-V Hyb-GGA Exchange-Correlation Functional

    N. Mardirossian and M. Head-Gordon, J. Chem. Phys. 144, 214110 (2016)

    Deriv               =              1
    GGA                 =           TRUE
    Meta                =           TRUE

    Exchange Hybrid     =           TRUE
    MP2 Hybrid          =          FALSE

   => Exchange-Correlation Functionals <=

    1.0000   wB97M-V exchange-correlation functional

   => Exact (HF) Exchange <=

    0.8500            HF,LR [omega = 0.3000]
    0.1500               HF 

   => VV10 Non-Local Parameters <=

    VV10 B              =     6.0000E+00
    VV10 C              =     1.0000E-02

   => Molecular Quadrature <=

    Radial Scheme          =       TREUTLER
    Pruning Scheme         =           FLAT
    Nuclear Scheme         =       TREUTLER

    BS radius alpha        =              1
    Pruning alpha          =              1
    Radial Points          =             75
    Spherical Points       =            302
    Total Points           =          45300
    Total Blocks           =            419
    Max Points             =            256
    Max Functions          =            160

   => Loading Basis Set <=

    Name: (AUG-CC-PV(Q+D)Z AUX)
    Role: JKFIT
    Keyword: DF_BASIS_SCF
    atoms 1 entry C          line   178 file /work/zw18965/.conda/envs/p4env/share/psi4/basis/aug-cc-pvqz-jkfit.gbs 
    atoms 2 entry O          line   318 file /work/zw18965/.conda/envs/p4env/share/psi4/basis/aug-cc-pvqz-jkfit.gbs 

   => Loading Basis Set <=

    Name: AUG-CC-PV(Q+D)Z
    Role: ORBITAL
    Keyword: BASIS
    atoms 1 entry C          line   319 file /work/zw18965/.conda/envs/p4env/share/psi4/basis/aug-cc-pv_qpd_z.gbs 
    atoms 2 entry O          line   439 file /work/zw18965/.conda/envs/p4env/share/psi4/basis/aug-cc-pv_qpd_z.gbs 

  Reading orbitals from file 180, no projection.

  ==> Pre-Iterations <==

   -------------------------------------------------------
    Irrep   Nso     Nmo     Nalpha   Nbeta   Ndocc  Nsocc
   -------------------------------------------------------
     A1        62      62       0       0       0       0
     A2        22      22       0       0       0       0
     B1        38      38       0       0       0       0
     B2        38      38       0       0       0       0
   -------------------------------------------------------
    Total     160     160       7       7       7       0
   -------------------------------------------------------

  ==> Integral Setup <==

  ==> DiskDFJK: Density-Fitted J/K Matrices <==

    J tasked:                  Yes
    K tasked:                  Yes
    wK tasked:                 Yes
    Omega:               3.000E-01
    OpenMP threads:             24
    Integrals threads:          24
    Memory [MiB]:           102505
    Algorithm:                Core
    Integral Cache:           NONE
    Schwarz Cutoff:          1E-12
    Fitting Condition:       1E-10

   => Auxiliary Basis Set <=

  Basis Set: (AUG-CC-PV(Q+D)Z AUX)
    Blend: AUG-CC-PVQZ-JKFIT
    Number of shells: 68
    Number of basis function: 284
    Number of Cartesian functions: 396
    Spherical Harmonics?: true
    Max angular momentum: 5

  Cached 100.0% of DFT collocation blocks in 0.479 [GiB].

  Minimum eigenvalue in the overlap matrix is 9.7677714367E-05.
  Using Symmetric Orthogonalization.

  SCF Guess: Orbitals guess was supplied from a previous computation.

  ==> Iterations <==

                           Total Energy        Delta E     RMS |[F,P]|

   @DF-RKS iter   0:  -113.34355589512374   -1.13344e+02   5.21238e-05 
   @DF-RKS iter   1:  -113.34290281376641    6.53081e-04   5.27888e-06 DIIS
   @DF-RKS iter   2:  -113.34290281230048    1.46593e-09   6.18104e-06 DIIS
   @DF-RKS iter   3:  -113.34290289682191   -8.45214e-08   9.38498e-07 DIIS
   @DF-RKS iter   4:  -113.34290289875995   -1.93803e-09   1.64140e-07 DIIS
   @DF-RKS iter   5:  -113.34290289887308   -1.13133e-10   3.81268e-08 DIIS
   @DF-RKS iter   6:  -113.34290289887974   -6.66489e-12   5.17989e-09 DIIS
  Energy and wave function converged.


  ==> Post-Iterations <==

    Orbital Energies [Eh]
    ---------------------

    Doubly Occupied:                                                      

       1A1   -19.438407     2A1   -10.459980     3A1    -1.298210  
       4A1    -0.694543     1B1    -0.588089     1B2    -0.588089  
       5A1    -0.487590  

    Virtual:                                                              

       2B1     0.039001     2B2     0.039001     6A1     0.040234  
       7A1     0.057928     3B1     0.083714     3B2     0.083714  
       8A1     0.132166     4B2     0.139913     4B1     0.139913  
       9A1     0.196680     1A2     0.196680    10A1     0.201997  
      11A1     0.272681     5B2     0.283122     5B1     0.283122  
       6B2     0.347127     6B1     0.347127    12A1     0.358285  
      13A1     0.462692     2A2     0.484033    14A1     0.484034  
       7B2     0.559612     7B1     0.559612    15A1     0.575550  
       8B1     0.693438     8B2     0.693438     3A2     0.697807  
      16A1     0.697807    17A1     0.707920     9B2     0.753626  
       9B1     0.753626    10B2     0.808013    10B1     0.808013  
      18A1     0.809067    19A1     0.827492     4A2     0.827494  
      20A1     0.829437    11B2     0.978812    11B1     0.978812  
      21A1     1.057939    12B1     1.345551    12B2     1.345551  
      22A1     1.348585     5A2     1.393286    23A1     1.393287  
      13B2     1.419385    13B1     1.419385    24A1     1.550537  
       6A2     1.644212    25A1     1.644216    26A1     1.652085  
      14B1     1.673285    14B2     1.673285    15B2     1.822044  
      15B1     1.822044     7A2     1.984230    27A1     1.984233  
      28A1     1.997436     8A2     2.029347    29A1     2.029351  
      16B2     2.104673    16B1     2.104673    30A1     2.158680  
      17B2     2.179640    17B1     2.179640    31A1     2.221265  
       9A2     2.221266    18B1     2.228280    18B2     2.228280  
      32A1     2.322054    19B1     2.388716    19B2     2.388716  
      20B1     2.649558    20B2     2.649558    33A1     2.784944  
      34A1     2.834706    10A2     2.834712    35A1     3.292070  
      36A1     3.530540    11A2     3.530551    21B1     3.534896  
      21B2     3.534896    37A1     3.739961    22B1     3.839475  
      22B2     3.839475    38A1     3.940161    12A2     3.940165  
      23B1     3.985326    23B2     3.985326    39A1     4.072750  
      24B2     4.076231    24B1     4.076231    13A2     4.117913  
      40A1     4.117915    41A1     4.286351    25B1     4.493910  
      25B2     4.493910    42A1     4.840959    26B1     4.869075  
      26B2     4.869075    43A1     4.881851    14A2     4.881856  
      44A1     5.642518    45A1     5.643937    15A2     5.643944  
      27B2     5.854843    27B1     5.854843    28B1     5.906114  
      28B2     5.906114    16A2     5.987257    46A1     5.987281  
      29B1     6.025570    29B2     6.025570    47A1     6.074631  
      30B1     6.141888    30B2     6.141888    48A1     6.294401  
      17A2     6.294406    49A1     6.926488    18A2     7.044390  
      50A1     7.044396    31B1     7.177398    31B2     7.177398  
      51A1     7.893534    52A1     8.129943    32B1     8.260506  
      32B2     8.260506    53A1    10.213635    19A2    10.213656  
      33B1    10.486994    33B2    10.486994    34B1    10.612661  
      34B2    10.612661    54A1    10.734618    20A2    10.734619  
      55A1    10.951945    35B1    10.981162    35B2    10.981162  
      36B1    11.401947    36B2    11.401947    56A1    11.585336  
      21A2    11.842932    57A1    11.842959    37B1    12.286082  
      37B2    12.286082    22A2    12.445347    58A1    12.445375  
      59A1    13.338970    38B1    13.773399    38B2    13.773399  
      60A1    14.053276    61A1    24.442418    62A1    42.279016  

    Final Occupation by Irrep:
             A1    A2    B1    B2 
    DOCC [     5,    0,    1,    1 ]

  @DF-RKS Final Energy:  -113.34290289887974

   => Energetics <=

    Nuclear Repulsion Energy =             22.6089239430339255
    One-Electron Energy =                -198.4827012510631619
    Two-Electron Energy =                  72.5279282388438133
    DFT Exchange-Correlation Energy =     -10.0561753682952251
    Empirical Dispersion Energy =           0.0000000000000000
    VV10 Nonlocal Energy =                  0.0591215386009214
    Total Energy =                       -113.3429028988797427

Computation Completed


Properties will be evaluated at   0.000000,   0.000000,   0.000000 [a0]

Properties computed using the SCF density matrix

  Nuclear Dipole Moment: [e a0]
     X:     0.0000      Y:     0.0000      Z:     0.0023

  Electronic Dipole Moment: [e a0]
     X:     0.0000      Y:     0.0000      Z:     0.0281

  Dipole Moment: [e a0]
     X:     0.0000      Y:     0.0000      Z:     0.0304     Total:     0.0304

  Dipole Moment: [D]
     X:     0.0000      Y:     0.0000      Z:     0.0772     Total:     0.0772


*** tstop() called on bp1-compute00048.data.bp.acrc.priv at Tue Apr 27 16:47:12 2021
Module time:
	user time   =      54.61 seconds =       0.91 minutes
	system time =       1.82 seconds =       0.03 minutes
	total time  =          2 seconds =       0.03 minutes
Total time:
	user time   =     415.86 seconds =       6.93 minutes
	system time =      18.16 seconds =       0.30 minutes
	total time  =         19 seconds =       0.32 minutes

         ----------------------------------------------------------
                                   FINDIF
                     R. A. King and Jonathon Misiewicz
         ---------------------------------------------------------

  Computing gradient from energies.
    Using 3-point formula.
    Energy without displacement: -113.3428996049
    Check energies below for precision!
    Forces are for mass-weighted, symmetry-adapted cartesians (in au).

     Coord      Energy(-1)        Energy(+1)            Force
        0   -113.3428916082   -113.3429028989     -0.0011290688


-------------------------------------------------------------
  ## New Matrix (Symmetry 0) ##
  Irrep: 1 Size: 2 x 3

                 1                   2                   3

    1     0.00000000000000     0.00000000000000    -0.00295639484434
    2     0.00000000000000     0.00000000000000     0.00295639484434




			-----------------------------------------
			 OPTKING 2.0: for geometry optimizations 
			  - R.A. King,  Bethel University        
			-----------------------------------------
	At level 1: Red. Int., RFO, no backsteps, dynamic trust

	Previous internal coordinate definitions found.
	---Fragment 1 Geometry and Gradient---
	 C           0.0000000000        0.0000000000       -1.2141002950
	 O           0.0000000000        0.0000000000        0.9108647271
	             0.0000000000        0.0000000000       -0.0029563948
	             0.0000000000        0.0000000000        0.0029563948

	---Fragment 1 Intrafragment Coordinates---
	 - Coordinate -           - BOHR/RAD -       - ANG/DEG -
	 R(1,2)           =         2.124965	       1.124483

	Current energy   :      -113.3428996049

	Energy change for the previous step:
		Projected    :        -0.0001683017
		Actual       :        -0.0001470987
	Energy ratio indicates good step: Trust radius increased to 1.000e+00.


	Performing BFGS update.
	Previous computed or guess Hessian on step 1.
[...]
    Total Energy =                       -113.3429007777900352

Computation Completed


Properties will be evaluated at   0.000000,   0.000000,   0.000000 [a0]

Properties computed using the SCF density matrix

  Nuclear Dipole Moment: [e a0]
     X:     0.0000      Y:     0.0000      Z:     0.0023

  Electronic Dipole Moment: [e a0]
     X:     0.0000      Y:     0.0000      Z:     0.0269

  Dipole Moment: [e a0]
     X:     0.0000      Y:     0.0000      Z:     0.0292     Total:     0.0292

  Dipole Moment: [D]
     X:     0.0000      Y:     0.0000      Z:     0.0743     Total:     0.0743


*** tstop() called on bp1-compute00048.data.bp.acrc.priv at Tue Apr 27 16:47:38 2021
Module time:
	user time   =      82.19 seconds =       1.37 minutes
	system time =       2.54 seconds =       0.04 minutes
	total time  =          4 seconds =       0.07 minutes
Total time:
	user time   =     980.47 seconds =      16.34 minutes
	system time =      37.13 seconds =       0.62 minutes
	total time  =         45 seconds =       0.75 minutes

  //>>>>>>>>>>>>>>>>>>>>>>>>>>>>>>>>>>>//
  //    Loading displacement 3 of 3    //
  //<<<<<<<<<<<<<<<<<<<<<<<<<<<<<<<<<<<//

*** tstart() called on bp1-compute00048.data.bp.acrc.priv
*** at Tue Apr 27 16:47:38 2021

   => Loading Basis Set <=

    Name: AUG-CC-PV(Q+D)Z
    Role: ORBITAL
    Keyword: BASIS
    atoms 1 entry C          line   319 file /work/zw18965/.conda/envs/p4env/share/psi4/basis/aug-cc-pv_qpd_z.gbs 
    atoms 2 entry O          line   439 file /work/zw18965/.conda/envs/p4env/share/psi4/basis/aug-cc-pv_qpd_z.gbs 


         ---------------------------------------------------------
                                   SCF
               by Justin Turney, Rob Parrish, Andy Simmonett
                          and Daniel G. A. Smith
                              RKS Reference
                       24 Threads, 137329 MiB Core
         ---------------------------------------------------------

  ==> Geometry <==

    Molecular point group: c2v
    Full point group: C_inf_v

    Geometry (in Angstrom), charge = 0, multiplicity = 1:

       Center              X                  Y                   Z               Mass       
    ------------   -----------------  -----------------  -----------------  -----------------
         C            0.000000000000     0.000000000000    -0.641186929204    12.000000000000
         O            0.000000000000     0.000000000000     0.481043089848    15.994914619570

  Running in c2v symmetry.

  Rotational constants: A = ************  B =      1.95231  C =      1.95231 [cm^-1]
  Rotational constants: A = ************  B =  58528.77185  C =  58528.77185 [MHz]
  Nuclear repulsion =   22.633957104097117

  Charge       = 0
  Multiplicity = 1
  Electrons    = 14
  Nalpha       = 7
  Nbeta        = 7

  ==> Algorithm <==

  SCF Algorithm Type is DF.
  DIIS enabled.
  MOM disabled.
  Fractional occupation disabled.
  Guess Type is SAD.
  Energy threshold   = 1.00e-10
  Density threshold  = 1.00e-10
  Integral threshold = 0.00e+00

  ==> Primary Basis <==

  Basis Set: AUG-CC-PV(Q+D)Z
    Blend: AUG-CC-PV(Q+D)Z
    Number of shells: 40
    Number of basis function: 160
    Number of Cartesian functions: 210
    Spherical Harmonics?: true
    Max angular momentum: 4

  ==> DFT Potential <==

   => Composite Functional: WB97M-V <= 

    wB97M-V Hyb-GGA Exchange-Correlation Functional

    N. Mardirossian and M. Head-Gordon, J. Chem. Phys. 144, 214110 (2016)

    Deriv               =              1
    GGA                 =           TRUE
    Meta                =           TRUE

    Exchange Hybrid     =           TRUE
    MP2 Hybrid          =          FALSE

   => Exchange-Correlation Functionals <=

    1.0000   wB97M-V exchange-correlation functional

   => Exact (HF) Exchange <=

    0.8500            HF,LR [omega = 0.3000]
    0.1500               HF 

   => VV10 Non-Local Parameters <=

    VV10 B              =     6.0000E+00
    VV10 C              =     1.0000E-02

   => Molecular Quadrature <=

    Radial Scheme          =       TREUTLER
    Pruning Scheme         =           FLAT
    Nuclear Scheme         =       TREUTLER

    BS radius alpha        =              1
    Pruning alpha          =              1
    Radial Points          =             75
    Spherical Points       =            302
    Total Points           =          45300
    Total Blocks           =            419
    Max Points             =            256
    Max Functions          =            160

   => Loading Basis Set <=

    Name: (AUG-CC-PV(Q+D)Z AUX)
    Role: JKFIT
    Keyword: DF_BASIS_SCF
    atoms 1 entry C          line   178 file /work/zw18965/.conda/envs/p4env/share/psi4/basis/aug-cc-pvqz-jkfit.gbs 
    atoms 2 entry O          line   318 file /work/zw18965/.conda/envs/p4env/share/psi4/basis/aug-cc-pvqz-jkfit.gbs 

  ==> Pre-Iterations <==

   -------------------------------------------------------
    Irrep   Nso     Nmo     Nalpha   Nbeta   Ndocc  Nsocc
   -------------------------------------------------------
     A1        62      62       0       0       0       0
     A2        22      22       0       0       0       0
     B1        38      38       0       0       0       0
     B2        38      38       0       0       0       0
   -------------------------------------------------------
    Total     160     160       7       7       7       0
   -------------------------------------------------------

  ==> Integral Setup <==

  ==> DiskDFJK: Density-Fitted J/K Matrices <==

    J tasked:                  Yes
    K tasked:                  Yes
    wK tasked:                 Yes
    Omega:               3.000E-01
    OpenMP threads:             24
    Integrals threads:          24
    Memory [MiB]:           102505
    Algorithm:                Core
    Integral Cache:           NONE
    Schwarz Cutoff:          1E-12
    Fitting Condition:       1E-10

   => Auxiliary Basis Set <=

  Basis Set: (AUG-CC-PV(Q+D)Z AUX)
    Blend: AUG-CC-PVQZ-JKFIT
    Number of shells: 68
    Number of basis function: 284
    Number of Cartesian functions: 396
    Spherical Harmonics?: true
    Max angular momentum: 5

  Cached 100.0% of DFT collocation blocks in 0.479 [GiB].

  Minimum eigenvalue in the overlap matrix is 9.7436880765E-05.
  Using Symmetric Orthogonalization.

  SCF Guess: Superposition of Atomic Densities via on-the-fly atomic UHF.

  ==> Iterations <==

                           Total Energy        Delta E     RMS |[F,P]|

   @DF-RKS iter SAD:  -112.60817005900732   -1.12608e+02   0.00000e+00 
   @DF-RKS iter   1:  -113.30391540893287   -6.95745e-01   4.16091e-03 DIIS
   @DF-RKS iter   2:  -113.28797691645886    1.59385e-02   4.92594e-03 DIIS
   @DF-RKS iter   3:  -113.34161226255961   -5.36353e-02   6.70048e-04 DIIS
   @DF-RKS iter   4:  -113.34287653563916   -1.26427e-03   7.91277e-05 DIIS
   @DF-RKS iter   5:  -113.34289943924244   -2.29036e-05   1.30895e-05 DIIS
   @DF-RKS iter   6:  -113.34290038917295   -9.49931e-07   2.69333e-06 DIIS
   @DF-RKS iter   7:  -113.34290045655173   -6.73788e-08   2.97890e-07 DIIS
   @DF-RKS iter   8:  -113.34290045761637   -1.06463e-09   5.83318e-08 DIIS
   @DF-RKS iter   9:  -113.34290045763119   -1.48219e-11   6.49556e-09 DIIS
   @DF-RKS iter  10:  -113.34290045763139   -1.98952e-13   8.94591e-10 DIIS
   @DF-RKS iter  11:  -113.34290045763134    4.26326e-14   9.33696e-11 DIIS
  Energy and wave function converged.


  ==> Post-Iterations <==

    Orbital Energies [Eh]
    ---------------------

    Doubly Occupied:                                                      

       1A1   -19.438344     2A1   -10.459509     3A1    -1.298918  
       4A1    -0.694561     1B2    -0.588540     1B1    -0.588540  
       5A1    -0.487478  

    Virtual:                                                              

       2B2     0.039150     2B1     0.039150     6A1     0.040223  
       7A1     0.057948     3B1     0.083993     3B2     0.083993  
       8A1     0.132176     4B2     0.139911     4B1     0.139911  
       9A1     0.196679     1A2     0.196679    10A1     0.201998  
      11A1     0.272702     5B2     0.283216     5B1     0.283216  
       6B1     0.347136     6B2     0.347136    12A1     0.358339  
      13A1     0.462693     2A2     0.483970    14A1     0.483970  
       7B1     0.559568     7B2     0.559568    15A1     0.576060  
       8B1     0.693451     8B2     0.693451     3A2     0.697835  
      16A1     0.697836    17A1     0.708038     9B1     0.753806  
       9B2     0.753806    10B1     0.807958    10B2     0.807958  
      18A1     0.809251    19A1     0.827568     4A2     0.827569  
      20A1     0.829963    11B2     0.979019    11B1     0.979019  
      21A1     1.058719    12B1     1.345672    12B2     1.345672  
      22A1     1.349016     5A2     1.393170    23A1     1.393171  
      13B1     1.419294    13B2     1.419294    24A1     1.550494  
       6A2     1.644325    25A1     1.644328    26A1     1.651851  
      14B1     1.674254    14B2     1.674254    15B2     1.821464  
      15B1     1.821464     7A2     1.984284    27A1     1.984287  
      28A1     1.998059     8A2     2.029602    29A1     2.029606  
      16B1     2.104746    16B2     2.104746    30A1     2.158806  
      17B1     2.179896    17B2     2.179896    31A1     2.221453  
       9A2     2.221455    18B2     2.228710    18B1     2.228710  
      32A1     2.322274    19B1     2.389078    19B2     2.389078  
      20B1     2.650586    20B2     2.650586    33A1     2.786724  
      34A1     2.835684    10A2     2.835690    35A1     3.291888  
      36A1     3.530805    11A2     3.530817    21B2     3.535300  
      21B1     3.535300    37A1     3.740575    22B2     3.839448  
      22B1     3.839448    38A1     3.940175    12A2     3.940180  
      23B2     3.985433    23B1     3.985433    39A1     4.073116  
      24B1     4.077549    24B2     4.077549    13A2     4.118472  
      40A1     4.118475    41A1     4.288480    25B2     4.493669  
      25B1     4.493669    42A1     4.839064    26B1     4.871004  
      26B2     4.871004    43A1     4.882511    14A2     4.882516  
      44A1     5.644082    15A2     5.644090    45A1     5.647199  
      27B2     5.856010    27B1     5.856010    28B2     5.906990  
      28B1     5.906990    16A2     5.987544    46A1     5.987568  
      29B2     6.026363    29B1     6.026363    47A1     6.073966  
      30B1     6.142096    30B2     6.142096    48A1     6.295119  
      17A2     6.295125    49A1     6.931467    18A2     7.049101  
      50A1     7.049107    31B1     7.180224    31B2     7.180224  
      51A1     7.898013    52A1     8.129121    32B1     8.264887  
      32B2     8.264887    53A1    10.213643    19A2    10.213663  
      33B2    10.487916    33B1    10.487916    34B1    10.612870  
      34B2    10.612870    54A1    10.735853    20A2    10.735854  
      55A1    10.952359    35B2    10.981893    35B1    10.981893  
      36B1    11.402014    36B2    11.402014    56A1    11.587427  
      21A2    11.844253    57A1    11.844279    37B1    12.288500  
      37B2    12.288500    22A2    12.446344    58A1    12.446372  
      59A1    13.345336    38B1    13.780344    38B2    13.780344  
      60A1    14.055443    61A1    24.458035    62A1    42.285156  

    Final Occupation by Irrep:
             A1    A2    B1    B2 
    DOCC [     5,    0,    1,    1 ]

  @DF-RKS Final Energy:  -113.34290045763134

   => Energetics <=

    Nuclear Repulsion Energy =             22.6339571040971173
    One-Electron Energy =                -198.5301761888384817
    Two-Electron Energy =                  72.5514466863302943
    DFT Exchange-Correlation Energy =     -10.0572497475088038
    Empirical Dispersion Energy =           0.0000000000000000
    VV10 Nonlocal Energy =                  0.0591216882885510
    Total Energy =                       -113.3429004576313304

Computation Completed


Properties will be evaluated at   0.000000,   0.000000,   0.000000 [a0]

Properties computed using the SCF density matrix

  Nuclear Dipole Moment: [e a0]
     X:     0.0000      Y:     0.0000      Z:     0.0023

  Electronic Dipole Moment: [e a0]
     X:     0.0000      Y:     0.0000      Z:     0.0299

  Dipole Moment: [e a0]
     X:     0.0000      Y:     0.0000      Z:     0.0322     Total:     0.0322

  Dipole Moment: [D]
     X:     0.0000      Y:     0.0000      Z:     0.0819     Total:     0.0819


*** tstop() called on bp1-compute00048.data.bp.acrc.priv at Tue Apr 27 16:47:41 2021
Module time:
	user time   =      82.76 seconds =       1.38 minutes
	system time =       3.81 seconds =       0.06 minutes
	total time  =          3 seconds =       0.05 minutes
Total time:
	user time   =    1063.37 seconds =      17.72 minutes
	system time =      40.95 seconds =       0.68 minutes
	total time  =         48 seconds =       0.80 minutes

         ----------------------------------------------------------
                                   FINDIF
                     R. A. King and Jonathon Misiewicz
         ---------------------------------------------------------

  Computing second-derivative from energies using projected, 
  symmetry-adapted, cartesian coordinates.

  3 energies passed in, including the reference geometry.
    Using 3-point formula.
    Energy without displacement: -113.3429029885
    Check energies below for precision!
    0: -1 :      -113.3429007778
    0: 1  :      -113.3429004576

-------------------------------------------------------------


  ==> Harmonic Vibrational Analysis <==

  non-mass-weighted Hessian:       Symmetric? True   Hermitian? True   Lin Dep Dim?  5 (0)
  projection of translations (True) and rotations (True) removed 5 degrees of freedom (5)
  total projector:                 Symmetric? True   Hermitian? True   Lin Dep Dim?  5 (5)
  mass-weighted Hessian:           Symmetric? True   Hermitian? True   Lin Dep Dim?  5 (0)
  pre-proj  low-frequency mode:    0.0000i [cm^-1]
  pre-proj  low-frequency mode:    0.0000  [cm^-1]
  pre-proj  low-frequency mode:    0.0000  [cm^-1]
  pre-proj  low-frequency mode:    0.0000  [cm^-1]
  pre-proj  low-frequency mode:    0.0000  [cm^-1]
  pre-proj  all modes:['0.0000i' '0.0000' '0.0000' '0.0000' '0.0000' '2238.6888']
  projected mass-weighted Hessian: Symmetric? True   Hermitian? True   Lin Dep Dim?  5 (5)
  post-proj low-frequency mode:    0.0000  [cm^-1] (TR)
  post-proj low-frequency mode:    0.0000  [cm^-1] (TR)
  post-proj low-frequency mode:    0.0000  [cm^-1] (TR)
  post-proj low-frequency mode:    0.0000  [cm^-1] (TR)
  post-proj low-frequency mode:    0.0000  [cm^-1] (TR)
  post-proj  all modes:['0.0000' '0.0000' '0.0000' '0.0000' '0.0000' '2238.6888']

  Vibration                       6           
  Freq [cm^-1]                2238.6888       
  Irrep                           A1          
  Reduced mass [u]             13.4388        
  Force const [mDyne/A]        39.6823        
  Turning point v=0 [a0]        0.0633        
  RMS dev v=0 [a0 u^1/2]        0.1640        
  Char temp [K]               3220.9747       
  ----------------------------------------------------------------------------------
      1   C                0.00  0.00  0.80   
      2   O                0.00  0.00 -0.60   

  ==> Thermochemistry Components <==

  Entropy, S
    Electronic S            0.000 [cal/(mol K)]        0.000 [J/(mol K)]       0.00000000 [mEh/K] (multiplicity = 1)
    Translational S        35.923 [cal/(mol K)]      150.302 [J/(mol K)]       0.05724692 [mEh/K] (mol. weight = 27.9949 [u], P = 101325.00 [Pa])
    Rotational S           11.261 [cal/(mol K)]       47.115 [J/(mol K)]       0.01794502 [mEh/K] (symmetry no. = 1)
    Vibrational S           0.000 [cal/(mol K)]        0.002 [J/(mol K)]       0.00000076 [mEh/K]
  Total S                  47.184 [cal/(mol K)]      197.418 [J/(mol K)]       0.07519270 [mEh/K]
  Correction S              0.000 [cal/(mol K)]        0.000 [J/(mol K)]       0.00000000 [mEh/K]

  Constant volume heat capacity, Cv
    Electronic Cv           0.000 [cal/(mol K)]        0.000 [J/(mol K)]       0.00000000 [mEh/K]
    Translational Cv        2.981 [cal/(mol K)]       12.472 [J/(mol K)]       0.00475022 [mEh/K]
    Rotational Cv           1.987 [cal/(mol K)]        8.314 [J/(mol K)]       0.00316681 [mEh/K]
    Vibrational Cv          0.005 [cal/(mol K)]        0.020 [J/(mol K)]       0.00000752 [mEh/K]
  Total Cv                  4.973 [cal/(mol K)]       20.806 [J/(mol K)]       0.00792454 [mEh/K]
  Correction Cv             0.000 [cal/(mol K)]        0.000 [J/(mol K)]       0.00000000 [mEh/K]

  Constant pressure heat capacity, Cp
    Electronic Cp           0.000 [cal/(mol K)]        0.000 [J/(mol K)]       0.00000000 [mEh/K]
    Translational Cp        4.968 [cal/(mol K)]       20.786 [J/(mol K)]       0.00791703 [mEh/K]
    Rotational Cp           1.987 [cal/(mol K)]        8.314 [J/(mol K)]       0.00316681 [mEh/K]
    Vibrational Cp          0.005 [cal/(mol K)]        0.020 [J/(mol K)]       0.00000752 [mEh/K]
  Total Cp                  6.960 [cal/(mol K)]       29.120 [J/(mol K)]       0.01109135 [mEh/K]
  Correction Cp             0.000 [cal/(mol K)]        0.000 [J/(mol K)]       0.00000000 [mEh/K]

  ==> Thermochemistry Energy Analysis <==

  Raw electronic energy, E0
  Total E0, Electronic energy at well bottom at 0 [K]                 -113.34290299 [Eh]

  Zero-point energy, ZPE_vib = Sum_i nu_i / 2
    Electronic ZPE          0.000 [kcal/mol]        0.000 [kJ/mol]       0.00000000 [Eh]
    Translational ZPE       0.000 [kcal/mol]        0.000 [kJ/mol]       0.00000000 [Eh]
    Rotational ZPE          0.000 [kcal/mol]        0.000 [kJ/mol]       0.00000000 [Eh]
    Vibrational ZPE         3.200 [kcal/mol]       13.390 [kJ/mol]       0.00510011 [Eh]        1119.344 [cm^-1]
  Correction ZPE            3.200 [kcal/mol]       13.390 [kJ/mol]       0.00510011 [Eh]        1119.344 [cm^-1]
  Total ZPE, Electronic energy at 0 [K]                               -113.33780288 [Eh]

  Thermal Energy, E (includes ZPE)
    Electronic E            0.000 [kcal/mol]        0.000 [kJ/mol]       0.00000000 [Eh]
    Translational E         0.889 [kcal/mol]        3.718 [kJ/mol]       0.00141628 [Eh]
    Rotational E            0.592 [kcal/mol]        2.479 [kJ/mol]       0.00094418 [Eh]
    Vibrational E           3.200 [kcal/mol]       13.391 [kJ/mol]       0.00510032 [Eh]
  Correction E              4.682 [kcal/mol]       19.588 [kJ/mol]       0.00746078 [Eh]
  Total E, Electronic energy at  298.15 [K]                           -113.33544221 [Eh]

  Enthalpy, H_trans = E_trans + k_B * T
    Electronic H            0.000 [kcal/mol]        0.000 [kJ/mol]       0.00000000 [Eh]
    Translational H         1.481 [kcal/mol]        6.197 [kJ/mol]       0.00236046 [Eh]
    Rotational H            0.592 [kcal/mol]        2.479 [kJ/mol]       0.00094418 [Eh]
    Vibrational H           3.200 [kcal/mol]       13.391 [kJ/mol]       0.00510032 [Eh]
  Correction H              5.274 [kcal/mol]       22.067 [kJ/mol]       0.00840496 [Eh]
  Total H, Enthalpy at  298.15 [K]                                    -113.33449803 [Eh]

  Gibbs free energy, G = H - T * S
    Electronic G            0.000 [kcal/mol]        0.000 [kJ/mol]       0.00000000 [Eh]
    Translational G        -9.229 [kcal/mol]      -38.615 [kJ/mol]      -0.01470771 [Eh]
    Rotational G           -2.765 [kcal/mol]      -11.568 [kJ/mol]      -0.00440612 [Eh]
    Vibrational G           3.200 [kcal/mol]       13.390 [kJ/mol]       0.00510009 [Eh]
  Correction G             -8.794 [kcal/mol]      -36.793 [kJ/mol]      -0.01401374 [Eh]
  Total G, Free enthalpy at  298.15 [K]                               -113.35691673 [Eh]

    Psi4 stopped on: Tuesday, 27 April 2021 04:47PM
    Psi4 wall time for execution: 0:00:49.23

*** Psi4 exiting successfully. Buy a developer a beer!
