
    -----------------------------------------------------------------------
          Psi4: An Open-Source Ab Initio Electronic Structure Package
                               Psi4 1.3.2 release

                         Git: Rev {HEAD} ecbda83 


    R. M. Parrish, L. A. Burns, D. G. A. Smith, A. C. Simmonett,
    A. E. DePrince III, E. G. Hohenstein, U. Bozkaya, A. Yu. Sokolov,
    R. Di Remigio, R. M. Richard, J. F. Gonthier, A. M. James,
    H. R. McAlexander, A. Kumar, M. Saitow, X. Wang, B. P. Pritchard,
    P. Verma, H. F. Schaefer III, K. Patkowski, R. A. King, E. F. Valeev,
    F. A. Evangelista, J. M. Turney, T. D. Crawford, and C. D. Sherrill,
    J. Chem. Theory Comput. 13(7) pp 3185--3197 (2017).
    (doi: 10.1021/acs.jctc.7b00174)


                         Additional Contributions by
    P. Kraus, H. Kruse, M. H. Lechner, M. C. Schieber, R. A. Shaw,
    A. Alenaizan, R. Galvelis, Z. L. Glick, S. Lehtola, and J. P. Misiewicz

    -----------------------------------------------------------------------


    Psi4 started on: Tuesday, 27 April 2021 04:47PM

    Process ID: 128630
    Host:       bp1-compute00067.data.bp.acrc.priv
    PSIDATADIR: /work/zw18965/.conda/envs/p4env/share/psi4
    Memory:     500.0 MiB
    Threads:    24
    
  ==> Input File <==

--------------------------------------------------------------------------
memory 144 GB

molecule {
0 1
C 0.0000000000 0.0000000000 0.0000000000
S 0.0000000000 0.0000000000 1.5415329200
}

set dynamic_level 1
set basis aug-cc-pV(Q+d)Z
 
optimize("wB97M-V")
frequencies("wB97M-V")
--------------------------------------------------------------------------

  Memory set to 134.110 GiB by Python driver.
gradient() will perform gradient computation by finite difference of analytic energies.

         ----------------------------------------------------------
                                   FINDIF
                     R. A. King and Jonathon Misiewicz
         ---------------------------------------------------------

  Using finite-differences of energies to determine gradients.
    Generating geometries for use with 3-point formula.
    Displacement size will be 5.00e-03.
    Number of atoms is 2.
    Number of symmetric SALCs is 1.
    Translations projected? 1. Rotations projected? 1.
    Number of geometries (including reference) is 3.

  //>>>>>>>>>>>>>>>>>>>>>>>>>>>>>>>>>>>//
  //    Loading displacement 1 of 3    //
  //<<<<<<<<<<<<<<<<<<<<<<<<<<<<<<<<<<<//

*** tstart() called on bp1-compute00067.data.bp.acrc.priv
*** at Tue Apr 27 16:47:05 2021

   => Loading Basis Set <=

    Name: AUG-CC-PV(Q+D)Z
    Role: ORBITAL
    Keyword: BASIS
    atoms 1 entry C          line   319 file /work/zw18965/.conda/envs/p4env/share/psi4/basis/aug-cc-pv_qpd_z.gbs 
    atoms 2 entry S          line  1148 file /work/zw18965/.conda/envs/p4env/share/psi4/basis/aug-cc-pv_qpd_z.gbs 


         ---------------------------------------------------------
                                   SCF
               by Justin Turney, Rob Parrish, Andy Simmonett
                          and Daniel G. A. Smith
                              RKS Reference
                       24 Threads, 137329 MiB Core
         ---------------------------------------------------------

  ==> Geometry <==

    Molecular point group: c2v
    Full point group: C_inf_v

    Geometry (in Angstrom), charge = 0, multiplicity = 1:

       Center              X                  Y                   Z               Mass       
    ------------   -----------------  -----------------  -----------------  -----------------
         C            0.000000000000     0.000000000000    -1.120847822711    12.000000000000
         S            0.000000000000     0.000000000000     0.420685097289    31.972071174400

  Running in c2v symmetry.

  Rotational constants: A = ************  B =      0.81305  C =      0.81305 [cm^-1]
  Rotational constants: A = ************  B =  24374.54386  C =  24374.54386 [MHz]
  Nuclear repulsion =   32.954866915407813

  Charge       = 0
  Multiplicity = 1
  Electrons    = 22
  Nalpha       = 11
  Nbeta        = 11

  ==> Algorithm <==

  SCF Algorithm Type is DF.
  DIIS enabled.
  MOM disabled.
  Fractional occupation disabled.
  Guess Type is SAD.
  Energy threshold   = 1.00e-08
  Density threshold  = 1.00e-08
  Integral threshold = 0.00e+00

  ==> Primary Basis <==

  Basis Set: AUG-CC-PV(Q+D)Z
    Blend: AUG-CC-PV(Q+D)Z
    Number of shells: 43
    Number of basis function: 169
    Number of Cartesian functions: 220
    Spherical Harmonics?: true
    Max angular momentum: 4

  ==> DFT Potential <==

   => Composite Functional: WB97M-V <= 

    wB97M-V Hyb-GGA Exchange-Correlation Functional

    N. Mardirossian and M. Head-Gordon, J. Chem. Phys. 144, 214110 (2016)

    Deriv               =              1
    GGA                 =           TRUE
    Meta                =           TRUE

    Exchange Hybrid     =           TRUE
    MP2 Hybrid          =          FALSE

   => Exchange-Correlation Functionals <=

    1.0000   wB97M-V exchange-correlation functional

   => Exact (HF) Exchange <=

    0.8500            HF,LR [omega = 0.3000]
    0.1500               HF 

   => VV10 Non-Local Parameters <=

    VV10 B              =     6.0000E+00
    VV10 C              =     1.0000E-02

   => Molecular Quadrature <=

    Radial Scheme          =       TREUTLER
    Pruning Scheme         =           FLAT
    Nuclear Scheme         =       TREUTLER

    BS radius alpha        =              1
    Pruning alpha          =              1
    Radial Points          =             75
    Spherical Points       =            302
    Total Points           =          45300
    Total Blocks           =            427
    Max Points             =            254
    Max Functions          =            169

   => Loading Basis Set <=

    Name: (AUG-CC-PV(Q+D)Z AUX)
    Role: JKFIT
    Keyword: DF_BASIS_SCF
    atoms 1 entry C          line   178 file /work/zw18965/.conda/envs/p4env/share/psi4/basis/aug-cc-pvqz-jkfit.gbs 
    atoms 2 entry S          line   810 file /work/zw18965/.conda/envs/p4env/share/psi4/basis/aug-cc-pvqz-jkfit.gbs 

  ==> Pre-Iterations <==

   -------------------------------------------------------
    Irrep   Nso     Nmo     Nalpha   Nbeta   Ndocc  Nsocc
   -------------------------------------------------------
     A1        66      66       0       0       0       0
     A2        23      23       0       0       0       0
     B1        40      40       0       0       0       0
     B2        40      40       0       0       0       0
   -------------------------------------------------------
    Total     169     169      11      11      11       0
   -------------------------------------------------------

  ==> Integral Setup <==

  ==> DiskDFJK: Density-Fitted J/K Matrices <==

    J tasked:                  Yes
    K tasked:                  Yes
    wK tasked:                 Yes
    Omega:               3.000E-01
    OpenMP threads:             24
    Integrals threads:          24
    Memory [MiB]:           102476
    Algorithm:                Core
    Integral Cache:           NONE
    Schwarz Cutoff:          1E-12
    Fitting Condition:       1E-10

   => Auxiliary Basis Set <=

  Basis Set: (AUG-CC-PV(Q+D)Z AUX)
    Blend: AUG-CC-PVQZ-JKFIT
    Number of shells: 80
    Number of basis function: 326
    Number of Cartesian functions: 445
    Spherical Harmonics?: true
    Max angular momentum: 5

  Cached 100.0% of DFT collocation blocks in 0.508 [GiB].

  Minimum eigenvalue in the overlap matrix is 3.7784152116E-05.
  Using Symmetric Orthogonalization.

  SCF Guess: Superposition of Atomic Densities via on-the-fly atomic UHF.

  ==> Iterations <==

                           Total Energy        Delta E     RMS |[F,P]|

   @DF-RKS iter SAD:  -435.63890846559553   -4.35639e+02   0.00000e+00 
   @DF-RKS iter   1:  -436.17103040539934   -5.32122e-01   3.66511e-03 DIIS
   @DF-RKS iter   2:  -436.15610623184062    1.49242e-02   3.86474e-03 DIIS
   @DF-RKS iter   3:  -436.22101959074649   -6.49134e-02   7.12225e-04 DIIS
   @DF-RKS iter   4:  -436.22277110244488   -1.75151e-03   9.78404e-05 DIIS
   @DF-RKS iter   5:  -436.22283356256321   -6.24601e-05   2.95729e-05 DIIS
   @DF-RKS iter   6:  -436.22283877372593   -5.21116e-06   1.19636e-05 DIIS
   @DF-RKS iter   7:  -436.22283999882751   -1.22510e-06   1.40391e-06 DIIS
   @DF-RKS iter   8:  -436.22284003364825   -3.48207e-08   1.87532e-07 DIIS
   @DF-RKS iter   9:  -436.22284003414921   -5.00961e-10   2.73491e-08 DIIS
   @DF-RKS iter  10:  -436.22284003415888   -9.66338e-12   3.85993e-09 DIIS
  Energy and wave function converged.


  ==> Post-Iterations <==

    Orbital Energies [Eh]
    ---------------------

    Doubly Occupied:                                                      

       1A1   -89.254590     2A1   -10.448598     3A1    -8.172307  
       1B1    -6.079201     1B2    -6.079201     4A1    -6.078076  
       5A1    -0.955163     6A1    -0.631497     2B1    -0.450164  
       2B2    -0.450164     7A1    -0.415976  

    Virtual:                                                              

       3B1    -0.006870     3B2    -0.006870     8A1     0.029689  
       4B1     0.055856     4B2     0.055856     9A1     0.057715  
      10A1     0.075733     5B2     0.086242     5B1     0.086242  
      11A1     0.140358    12A1     0.156881     1A2     0.156881  
      13A1     0.186490     6B1     0.232819     6B2     0.232819  
      14A1     0.253559     2A2     0.254129    15A1     0.254129  
       7B2     0.267578     7B1     0.267578    16A1     0.290241  
       8B1     0.346653     8B2     0.346653    17A1     0.404957  
       3A2     0.421431    18A1     0.421431    19A1     0.458715  
      20A1     0.471190     9B1     0.483106     9B2     0.483106  
      10B1     0.492244    10B2     0.492244    11B2     0.507027  
      11B1     0.507027    21A1     0.558455     4A2     0.558458  
      22A1     0.620769    12B1     0.675630    12B2     0.675630  
      23A1     0.744276     5A2     0.761939    24A1     0.761941  
      13B1     0.770750    13B2     0.770750    14B2     0.846558  
      14B1     0.846558    25A1     0.897974     6A2     0.959730  
      26A1     0.959732    27A1     0.962881    28A1     1.017629  
      15B2     1.082888    15B1     1.082888     7A2     1.139798  
      29A1     1.139801    16B1     1.237777    16B2     1.237777  
      30A1     1.253531    17B1     1.328838    17B2     1.328838  
       8A2     1.337829    31A1     1.337833    18B2     1.354524  
      18B1     1.354524    32A1     1.423976     9A2     1.423982  
      19B1     1.443182    19B2     1.443182    20B1     1.458565  
      20B2     1.458565    33A1     1.485742    34A1     1.619917  
      21B2     1.671635    21B1     1.671635    35A1     1.720413  
      10A2     1.720416    36A1     1.914361    37A1     2.030425  
      38A1     2.047934    11A2     2.047943    39A1     2.092445  
      12A2     2.092453    22B2     2.111906    22B1     2.111906  
      40A1     2.129400    23B1     2.167598    23B2     2.167598  
      24B2     2.275174    24B1     2.275174    13A2     2.333324  
      41A1     2.333342    25B2     2.352796    25B1     2.352796  
      42A1     2.355506    43A1     2.557855    26B2     2.639234  
      26B1     2.639234    14A2     2.724249    44A1     2.724254  
      27B2     2.786888    27B1     2.786888    45A1     2.813753  
      15A2     2.980420    46A1     2.980421    28B2     3.199277  
      28B1     3.199277    47A1     3.274854    29B2     3.382013  
      29B1     3.382013    16A2     3.443339    48A1     3.443362  
      49A1     3.550511    17A2     3.550512    30B2     3.606101  
      30B1     3.606101    50A1     3.711094    31B1     3.722667  
      31B2     3.722667    51A1     3.921708    52A1     3.929256  
      18A2     3.929256    53A1     4.251951    32B2     4.336139  
      32B1     4.336139    33B2     5.564392    33B1     5.564392  
      54A1     5.673949    19A2     5.673991    34B2     5.805496  
      34B1     5.805496    35B2     5.848019    35B1     5.848019  
      20A2     5.956847    55A1     5.956851    36B2     6.013763  
      36B1     6.013763    56A1     6.020558    37B2     6.185914  
      37B1     6.185914    57A1     6.240493    21A2     6.240510  
      58A1     6.296870    22A2     6.453050    59A1     6.453094  
      60A1     6.528108    38B2     6.758046    38B1     6.758046  
      61A1     7.154069    39B2     7.265621    39B1     7.265621  
      62A1     8.520846    63A1     8.803785    23A2     8.803821  
      40B1     9.051548    40B2     9.051548    64A1     9.600830  
      65A1    20.036940    66A1    21.316824  

    Final Occupation by Irrep:
             A1    A2    B1    B2 
    DOCC [     7,    0,    2,    2 ]

  @DF-RKS Final Energy:  -436.22284003415888

   => Energetics <=

    Nuclear Repulsion Energy =             32.9548669154078127
    One-Electron Energy =                -665.5735752408112376
    Two-Electron Energy =                 219.8606550181581554
    DFT Exchange-Correlation Energy =     -23.5568288473413538
    Empirical Dispersion Energy =           0.0000000000000000
    VV10 Nonlocal Energy =                  0.0920421204277610
    Total Energy =                       -436.2228400341588781

Computation Completed


Properties will be evaluated at   0.000000,   0.000000,   0.000000 [a0]

Properties computed using the SCF density matrix

  Nuclear Dipole Moment: [e a0]
     X:     0.0000      Y:     0.0000      Z:     0.0111

  Electronic Dipole Moment: [e a0]
     X:     0.0000      Y:     0.0000      Z:     0.7417

  Dipole Moment: [e a0]
     X:     0.0000      Y:     0.0000      Z:     0.7528     Total:     0.7528

  Dipole Moment: [D]
     X:     0.0000      Y:     0.0000      Z:     1.9134     Total:     1.9134


*** tstop() called on bp1-compute00067.data.bp.acrc.priv at Tue Apr 27 16:47:10 2021
Module time:
	user time   =      86.57 seconds =       1.44 minutes
	system time =       5.33 seconds =       0.09 minutes
	total time  =          5 seconds =       0.08 minutes
Total time:
	user time   =      86.57 seconds =       1.44 minutes
	system time =       5.33 seconds =       0.09 minutes
	total time  =          5 seconds =       0.08 minutes

  //>>>>>>>>>>>>>>>>>>>>>>>>>>>>>>>>>>>//
  //    Loading displacement 2 of 3    //
  //<<<<<<<<<<<<<<<<<<<<<<<<<<<<<<<<<<<//

*** tstart() called on bp1-compute00067.data.bp.acrc.priv
*** at Tue Apr 27 16:47:10 2021

   => Loading Basis Set <=

    Name: AUG-CC-PV(Q+D)Z
    Role: ORBITAL
    Keyword: BASIS
    atoms 1 entry C          line   319 file /work/zw18965/.conda/envs/p4env/share/psi4/basis/aug-cc-pv_qpd_z.gbs 
    atoms 2 entry S          line  1148 file /work/zw18965/.conda/envs/p4env/share/psi4/basis/aug-cc-pv_qpd_z.gbs 


         ---------------------------------------------------------
                                   SCF
               by Justin Turney, Rob Parrish, Andy Simmonett
                          and Daniel G. A. Smith
                              RKS Reference
                       24 Threads, 137329 MiB Core
         ---------------------------------------------------------

  ==> Geometry <==

    Molecular point group: c2v
    Full point group: C_inf_v

    Geometry (in Angstrom), charge = 0, multiplicity = 1:

       Center              X                  Y                   Z               Mass       
    ------------   -----------------  -----------------  -----------------  -----------------
         C            0.000000000000     0.000000000000    -1.121499117253    12.000000000000
         S            0.000000000000     0.000000000000     0.420929546091    31.972071174400

  Running in c2v symmetry.

  Rotational constants: A = ************  B =      0.81210  C =      0.81210 [cm^-1]
  Rotational constants: A = ************  B =  24346.24174  C =  24346.24174 [MHz]
  Nuclear repulsion =   32.935728848677002

  Charge       = 0
  Multiplicity = 1
  Electrons    = 22
  Nalpha       = 11
  Nbeta        = 11

  ==> Algorithm <==

  SCF Algorithm Type is DF.
  DIIS enabled.
  MOM disabled.
  Fractional occupation disabled.
  Guess Type is SAD.
  Energy threshold   = 1.00e-08
  Density threshold  = 1.00e-08
  Integral threshold = 0.00e+00

  ==> Primary Basis <==

  Basis Set: AUG-CC-PV(Q+D)Z
    Blend: AUG-CC-PV(Q+D)Z
    Number of shells: 43
    Number of basis function: 169
    Number of Cartesian functions: 220
    Spherical Harmonics?: true
    Max angular momentum: 4

  ==> DFT Potential <==

   => Composite Functional: WB97M-V <= 

    wB97M-V Hyb-GGA Exchange-Correlation Functional

    N. Mardirossian and M. Head-Gordon, J. Chem. Phys. 144, 214110 (2016)

    Deriv               =              1
    GGA                 =           TRUE
    Meta                =           TRUE

    Exchange Hybrid     =           TRUE
    MP2 Hybrid          =          FALSE

   => Exchange-Correlation Functionals <=

    1.0000   wB97M-V exchange-correlation functional

   => Exact (HF) Exchange <=

    0.8500            HF,LR [omega = 0.3000]
    0.1500               HF 

   => VV10 Non-Local Parameters <=

    VV10 B              =     6.0000E+00
    VV10 C              =     1.0000E-02

   => Molecular Quadrature <=

    Radial Scheme          =       TREUTLER
    Pruning Scheme         =           FLAT
    Nuclear Scheme         =       TREUTLER

    BS radius alpha        =              1
    Pruning alpha          =              1
    Radial Points          =             75
    Spherical Points       =            302
    Total Points           =          45300
    Total Blocks           =            428
    Max Points             =            254
    Max Functions          =            169

   => Loading Basis Set <=

    Name: (AUG-CC-PV(Q+D)Z AUX)
    Role: JKFIT
    Keyword: DF_BASIS_SCF
    atoms 1 entry C          line   178 file /work/zw18965/.conda/envs/p4env/share/psi4/basis/aug-cc-pvqz-jkfit.gbs 
    atoms 2 entry S          line   810 file /work/zw18965/.conda/envs/p4env/share/psi4/basis/aug-cc-pvqz-jkfit.gbs 

  ==> Pre-Iterations <==

   -------------------------------------------------------
    Irrep   Nso     Nmo     Nalpha   Nbeta   Ndocc  Nsocc
   -------------------------------------------------------
     A1        66      66       0       0       0       0
     A2        23      23       0       0       0       0
     B1        40      40       0       0       0       0
     B2        40      40       0       0       0       0
   -------------------------------------------------------
    Total     169     169      11      11      11       0
   -------------------------------------------------------

  ==> Integral Setup <==

  ==> DiskDFJK: Density-Fitted J/K Matrices <==

    J tasked:                  Yes
    K tasked:                  Yes
    wK tasked:                 Yes
    Omega:               3.000E-01
    OpenMP threads:             24
    Integrals threads:          24
    Memory [MiB]:           102476
    Algorithm:                Core
    Integral Cache:           NONE
    Schwarz Cutoff:          1E-12
    Fitting Condition:       1E-10

   => Auxiliary Basis Set <=

  Basis Set: (AUG-CC-PV(Q+D)Z AUX)
    Blend: AUG-CC-PVQZ-JKFIT
    Number of shells: 80
    Number of basis function: 326
    Number of Cartesian functions: 445
    Spherical Harmonics?: true
    Max angular momentum: 5

  Cached 100.0% of DFT collocation blocks in 0.508 [GiB].

  Minimum eigenvalue in the overlap matrix is 3.7871550868E-05.
  Using Symmetric Orthogonalization.

  SCF Guess: Superposition of Atomic Densities via on-the-fly atomic UHF.

  ==> Iterations <==

                           Total Energy        Delta E     RMS |[F,P]|

   @DF-RKS iter SAD:  -435.63763933808679   -4.35638e+02   0.00000e+00 
   @DF-RKS iter   1:  -436.17124760711988   -5.33608e-01   3.65630e-03 DIIS
   @DF-RKS iter   2:  -436.15640135865550    1.48462e-02   3.85448e-03 DIIS
   @DF-RKS iter   3:  -436.22097617811158   -6.45748e-02   7.13198e-04 DIIS
   @DF-RKS iter   4:  -436.22273433357896   -1.75816e-03   9.78420e-05 DIIS
   @DF-RKS iter   5:  -436.22279687260453   -6.25390e-05   2.95871e-05 DIIS
   @DF-RKS iter   6:  -436.22280209675102   -5.22415e-06   1.19700e-05 DIIS
   @DF-RKS iter   7:  -436.22280332491914   -1.22817e-06   1.40639e-06 DIIS
   @DF-RKS iter   8:  -436.22280335987148   -3.49523e-08   1.87770e-07 DIIS
   @DF-RKS iter   9:  -436.22280336037443   -5.02951e-10   2.73702e-08 DIIS
   @DF-RKS iter  10:  -436.22280336038421   -9.77707e-12   3.86383e-09 DIIS
  Energy and wave function converged.


  ==> Post-Iterations <==

    Orbital Energies [Eh]
    ---------------------

    Doubly Occupied:                                                      

       1A1   -89.254650     2A1   -10.448861     3A1    -8.172319  
       1B1    -6.079216     1B2    -6.079216     4A1    -6.078093  
       5A1    -0.954909     6A1    -0.631546     2B1    -0.450014  
       2B2    -0.450014     7A1    -0.416053  

    Virtual:                                                              

       3B1    -0.006990     3B2    -0.006990     8A1     0.029698  
       4B1     0.055863     4B2     0.055863     9A1     0.057691  
      10A1     0.075734     5B1     0.086232     5B2     0.086232  
      11A1     0.140331    12A1     0.156894     1A2     0.156894  
      13A1     0.186470     6B1     0.232807     6B2     0.232807  
      14A1     0.253517     2A2     0.254115    15A1     0.254116  
       7B2     0.267573     7B1     0.267573    16A1     0.290119  
       8B1     0.346693     8B2     0.346693    17A1     0.405002  
       3A2     0.421477    18A1     0.421477    19A1     0.458713  
      20A1     0.471060     9B1     0.483048     9B2     0.483048  
      10B2     0.492264    10B1     0.492264    11B1     0.506912  
      11B2     0.506912    21A1     0.558463     4A2     0.558466  
      22A1     0.620595    12B1     0.675558    12B2     0.675558  
      23A1     0.744126     5A2     0.761849    24A1     0.761851  
      13B1     0.770670    13B2     0.770670    14B2     0.846510  
      14B1     0.846510    25A1     0.897833     6A2     0.959584  
      26A1     0.959586    27A1     0.962680    28A1     1.017654  
      15B1     1.082922    15B2     1.082922     7A2     1.139867  
      29A1     1.139869    16B1     1.237560    16B2     1.237560  
      30A1     1.253321    17B1     1.328978    17B2     1.328978  
       8A2     1.337866    31A1     1.337869    18B1     1.354569  
      18B2     1.354569    32A1     1.423934     9A2     1.423940  
      19B1     1.443058    19B2     1.443058    20B1     1.458471  
      20B2     1.458471    33A1     1.485439    34A1     1.619652  
      21B1     1.671214    21B2     1.671214    35A1     1.720216  
      10A2     1.720220    36A1     1.914559    37A1     2.030372  
      38A1     2.047782    11A2     2.047791    39A1     2.092244  
      12A2     2.092251    22B1     2.111748    22B2     2.111748  
      40A1     2.129319    23B2     2.167462    23B1     2.167462  
      24B2     2.274991    24B1     2.274991    13A2     2.333069  
      41A1     2.333088    25B1     2.352319    25B2     2.352319  
      42A1     2.355139    43A1     2.557556    26B1     2.639131  
      26B2     2.639131    14A2     2.724118    44A1     2.724123  
      27B1     2.786149    27B2     2.786149    45A1     2.813063  
      15A2     2.979907    46A1     2.979908    28B1     3.198912  
      28B2     3.198912    47A1     3.274414    29B1     3.382078  
      29B2     3.382078    16A2     3.443266    48A1     3.443289  
      49A1     3.550562    17A2     3.550563    30B1     3.605992  
      30B2     3.605992    50A1     3.709433    31B1     3.722327  
      31B2     3.722327    51A1     3.921343    52A1     3.928447  
      18A2     3.928448    53A1     4.251822    32B1     4.335582  
      32B2     4.335582    33B1     5.563450    33B2     5.563450  
      54A1     5.673809    19A2     5.673852    34B2     5.805092  
      34B1     5.805092    35B1     5.847604    35B2     5.847604  
      20A2     5.956519    55A1     5.956524    36B2     6.013583  
      36B1     6.013583    56A1     6.020671    37B2     6.185708  
      37B1     6.185708    57A1     6.239798    21A2     6.239815  
      58A1     6.295992    22A2     6.452245    59A1     6.452289  
      60A1     6.527018    38B1     6.757010    38B2     6.757010  
      61A1     7.152315    39B1     7.263245    39B2     7.263245  
      62A1     8.519750    63A1     8.803705    23A2     8.803740  
      40B1     9.051172    40B2     9.051172    64A1     9.598668  
      65A1    20.029457    66A1    21.314580  

    Final Occupation by Irrep:
             A1    A2    B1    B2 
    DOCC [     7,    0,    2,    2 ]

  @DF-RKS Final Energy:  -436.22280336038421

   => Energetics <=

    Nuclear Repulsion Energy =             32.9357288486770017
    One-Electron Energy =                -665.5355889150688427
    Two-Electron Energy =                 219.8413736491359600
    DFT Exchange-Correlation Energy =     -23.5563593836469387
    Empirical Dispersion Energy =           0.0000000000000000
    VV10 Nonlocal Energy =                  0.0920424405185864
    Total Energy =                       -436.2228033603842050

Computation Completed


Properties will be evaluated at   0.000000,   0.000000,   0.000000 [a0]

Properties computed using the SCF density matrix

  Nuclear Dipole Moment: [e a0]
     X:     0.0000      Y:     0.0000      Z:     0.0111

  Electronic Dipole Moment: [e a0]
     X:     0.0000      Y:     0.0000      Z:     0.7401

  Dipole Moment: [e a0]
     X:     0.0000      Y:     0.0000      Z:     0.7512     Total:     0.7512

  Dipole Moment: [D]
     X:     0.0000      Y:     0.0000      Z:     1.9094     Total:     1.9094


*** tstop() called on bp1-compute00067.data.bp.acrc.priv at Tue Apr 27 16:47:14 2021
Module time:
	user time   =      93.57 seconds =       1.56 minutes
	system time =       3.77 seconds =       0.06 minutes
	total time  =          4 seconds =       0.07 minutes
Total time:
	user time   =     180.32 seconds =       3.01 minutes
	system time =       9.10 seconds =       0.15 minutes
	total time  =          9 seconds =       0.15 minutes

  //>>>>>>>>>>>>>>>>>>>>>>>>>>>>>>>>>>>//
  //    Loading displacement 3 of 3    //
  //<<<<<<<<<<<<<<<<<<<<<<<<<<<<<<<<<<<//

*** tstart() called on bp1-compute00067.data.bp.acrc.priv
*** at Tue Apr 27 16:47:14 2021

   => Loading Basis Set <=

    Name: AUG-CC-PV(Q+D)Z
    Role: ORBITAL
    Keyword: BASIS
    atoms 1 entry C          line   319 file /work/zw18965/.conda/envs/p4env/share/psi4/basis/aug-cc-pv_qpd_z.gbs 
    atoms 2 entry S          line  1148 file /work/zw18965/.conda/envs/p4env/share/psi4/basis/aug-cc-pv_qpd_z.gbs 


         ---------------------------------------------------------
                                   SCF
               by Justin Turney, Rob Parrish, Andy Simmonett
                          and Daniel G. A. Smith
                              RKS Reference
                       24 Threads, 137329 MiB Core
         ---------------------------------------------------------

  ==> Geometry <==

    Molecular point group: c2v
    Full point group: C_inf_v

    Geometry (in Angstrom), charge = 0, multiplicity = 1:

       Center              X                  Y                   Z               Mass       
    ------------   -----------------  -----------------  -----------------  -----------------
         C            0.000000000000     0.000000000000    -1.120196528169    12.000000000000
         S            0.000000000000     0.000000000000     0.420440648487    31.972071174400

  Running in c2v symmetry.

  Rotational constants: A = ************  B =      0.81399  C =      0.81399 [cm^-1]
  Rotational constants: A = ************  B =  24402.89535  C =  24402.89535 [MHz]
  Nuclear repulsion =   32.974027236302241

  Charge       = 0
  Multiplicity = 1
  Electrons    = 22
  Nalpha       = 11
  Nbeta        = 11

  ==> Algorithm <==

  SCF Algorithm Type is DF.
  DIIS enabled.
  MOM disabled.
  Fractional occupation disabled.
  Guess Type is SAD.
  Energy threshold   = 1.00e-08
  Density threshold  = 1.00e-08
  Integral threshold = 0.00e+00

  ==> Primary Basis <==

  Basis Set: AUG-CC-PV(Q+D)Z
    Blend: AUG-CC-PV(Q+D)Z
    Number of shells: 43
    Number of basis function: 169
    Number of Cartesian functions: 220
    Spherical Harmonics?: true
    Max angular momentum: 4

  ==> DFT Potential <==

   => Composite Functional: WB97M-V <= 

    wB97M-V Hyb-GGA Exchange-Correlation Functional

    N. Mardirossian and M. Head-Gordon, J. Chem. Phys. 144, 214110 (2016)

    Deriv               =              1
    GGA                 =           TRUE
    Meta                =           TRUE

    Exchange Hybrid     =           TRUE
    MP2 Hybrid          =          FALSE

   => Exchange-Correlation Functionals <=

    1.0000   wB97M-V exchange-correlation functional

   => Exact (HF) Exchange <=

    0.8500            HF,LR [omega = 0.3000]
    0.1500               HF 

   => VV10 Non-Local Parameters <=

    VV10 B              =     6.0000E+00
    VV10 C              =     1.0000E-02

   => Molecular Quadrature <=

    Radial Scheme          =       TREUTLER
    Pruning Scheme         =           FLAT
    Nuclear Scheme         =       TREUTLER

    BS radius alpha        =              1
    Pruning alpha          =              1
    Radial Points          =             75
    Spherical Points       =            302
    Total Points           =          45300
    Total Blocks           =            427
    Max Points             =            254
    Max Functions          =            169

   => Loading Basis Set <=

    Name: (AUG-CC-PV(Q+D)Z AUX)
    Role: JKFIT
    Keyword: DF_BASIS_SCF
    atoms 1 entry C          line   178 file /work/zw18965/.conda/envs/p4env/share/psi4/basis/aug-cc-pvqz-jkfit.gbs 
    atoms 2 entry S          line   810 file /work/zw18965/.conda/envs/p4env/share/psi4/basis/aug-cc-pvqz-jkfit.gbs 

  ==> Pre-Iterations <==

   -------------------------------------------------------
    Irrep   Nso     Nmo     Nalpha   Nbeta   Ndocc  Nsocc
   -------------------------------------------------------
     A1        66      66       0       0       0       0
     A2        23      23       0       0       0       0
     B1        40      40       0       0       0       0
     B2        40      40       0       0       0       0
   -------------------------------------------------------
    Total     169     169      11      11      11       0
   -------------------------------------------------------

  ==> Integral Setup <==

  ==> DiskDFJK: Density-Fitted J/K Matrices <==

    J tasked:                  Yes
    K tasked:                  Yes
    wK tasked:                 Yes
    Omega:               3.000E-01
    OpenMP threads:             24
    Integrals threads:          24
    Memory [MiB]:           102476
    Algorithm:                Core
    Integral Cache:           NONE
    Schwarz Cutoff:          1E-12
    Fitting Condition:       1E-10

   => Auxiliary Basis Set <=

  Basis Set: (AUG-CC-PV(Q+D)Z AUX)
    Blend: AUG-CC-PVQZ-JKFIT
    Number of shells: 80
    Number of basis function: 326
    Number of Cartesian functions: 445
    Spherical Harmonics?: true
    Max angular momentum: 5

  Cached 100.0% of DFT collocation blocks in 0.508 [GiB].

  Minimum eigenvalue in the overlap matrix is 3.7696993725E-05.
  Using Symmetric Orthogonalization.

  SCF Guess: Superposition of Atomic Densities via on-the-fly atomic UHF.

  ==> Iterations <==

                           Total Energy        Delta E     RMS |[F,P]|

   @DF-RKS iter SAD:  -435.64017565042820   -4.35640e+02   0.00000e+00 
   @DF-RKS iter   1:  -436.17081004561464   -5.30634e-01   3.67396e-03 DIIS
   @DF-RKS iter   2:  -436.15580751439234    1.50025e-02   3.87503e-03 DIIS
   @DF-RKS iter   3:  -436.22106144026969   -6.52539e-02   7.11249e-04 DIIS
   @DF-RKS iter   4:  -436.22280630531498   -1.74487e-03   9.78403e-05 DIIS
   @DF-RKS iter   5:  -436.22286868898237   -6.23837e-05   2.95592e-05 DIIS
   @DF-RKS iter   6:  -436.22287388739295   -5.19841e-06   1.19574e-05 DIIS
   @DF-RKS iter   7:  -436.22287510949548   -1.22210e-06   1.40143e-06 DIIS
   @DF-RKS iter   8:  -436.22287514418269   -3.46872e-08   1.87300e-07 DIIS
   @DF-RKS iter   9:  -436.22287514468377   -5.01075e-10   2.73284e-08 DIIS
   @DF-RKS iter  10:  -436.22287514469230   -8.52651e-12   3.85623e-09 DIIS
  Energy and wave function converged.


  ==> Post-Iterations <==

    Orbital Energies [Eh]
    ---------------------

    Doubly Occupied:                                                      

       1A1   -89.254530     2A1   -10.448336     3A1    -8.172295  
       1B1    -6.079187     1B2    -6.079187     4A1    -6.078058  
       5A1    -0.955417     6A1    -0.631448     2B2    -0.450314  
       2B1    -0.450314     7A1    -0.415898  

    Virtual:                                                              

       3B2    -0.006749     3B1    -0.006749     8A1     0.029680  
       4B2     0.055850     4B1     0.055850     9A1     0.057739  
      10A1     0.075731     5B1     0.086252     5B2     0.086252  
      11A1     0.140384    12A1     0.156869     1A2     0.156869  
      13A1     0.186511     6B1     0.232832     6B2     0.232832  
      14A1     0.253601     2A2     0.254142    15A1     0.254143  
       7B2     0.267583     7B1     0.267583    16A1     0.290363  
       8B1     0.346613     8B2     0.346613    17A1     0.404911  
       3A2     0.421384    18A1     0.421384    19A1     0.458716  
      20A1     0.471319     9B1     0.483164     9B2     0.483164  
      10B1     0.492223    10B2     0.492223    11B2     0.507142  
      11B1     0.507142    21A1     0.558447     4A2     0.558450  
      22A1     0.620943    12B1     0.675702    12B2     0.675702  
      23A1     0.744426     5A2     0.762030    24A1     0.762031  
      13B2     0.770831    13B1     0.770831    14B2     0.846605  
      14B1     0.846605    25A1     0.898113     6A2     0.959876  
      26A1     0.959878    27A1     0.963081    28A1     1.017606  
      15B2     1.082855    15B1     1.082855     7A2     1.139729  
      29A1     1.139732    16B2     1.237993    16B1     1.237993  
      30A1     1.253742    17B1     1.328698    17B2     1.328698  
       8A2     1.337793    31A1     1.337797    18B1     1.354480  
      18B2     1.354480    32A1     1.424018     9A2     1.424024  
      19B1     1.443307    19B2     1.443307    20B2     1.458660  
      20B1     1.458660    33A1     1.486046    34A1     1.620182  
      21B2     1.672057    21B1     1.672057    35A1     1.720609  
      10A2     1.720613    36A1     1.914162    37A1     2.030477  
      38A1     2.048087    11A2     2.048096    39A1     2.092647  
      12A2     2.092655    22B2     2.112063    22B1     2.112063  
      40A1     2.129482    23B2     2.167733    23B1     2.167733  
      24B2     2.275357    24B1     2.275357    13A2     2.333579  
      41A1     2.333597    25B1     2.353273    25B2     2.353273  
      42A1     2.355873    43A1     2.558153    26B2     2.639335  
      26B1     2.639335    14A2     2.724379    44A1     2.724384  
      27B2     2.787629    27B1     2.787629    45A1     2.814446  
      15A2     2.980933    46A1     2.980933    28B2     3.199643  
      28B1     3.199643    47A1     3.275292    29B2     3.381948  
      29B1     3.381948    16A2     3.443412    48A1     3.443435  
      49A1     3.550461    17A2     3.550462    30B1     3.606211  
      30B2     3.606211    50A1     3.712758    31B1     3.723007  
      31B2     3.723007    51A1     3.922060    52A1     3.930066  
      18A2     3.930066    53A1     4.252097    32B2     4.336693  
      32B1     4.336693    33B2     5.565335    33B1     5.565335  
      54A1     5.674088    19A2     5.674130    34B1     5.805901  
      34B2     5.805901    35B2     5.848437    35B1     5.848437  
      20A2     5.957174    55A1     5.957178    36B2     6.013942  
      36B1     6.013942    56A1     6.020440    37B2     6.186120  
      37B1     6.186120    57A1     6.241190    21A2     6.241207  
      58A1     6.297727    22A2     6.453855    59A1     6.453899  
      60A1     6.529219    38B2     6.759081    38B1     6.759081  
      61A1     7.155831    39B2     7.267999    39B1     7.267999  
      62A1     8.521932    63A1     8.803867    23A2     8.803902  
      40B2     9.051929    40B1     9.051929    64A1     9.602992  
      65A1    20.044441    66A1    21.319091  

    Final Occupation by Irrep:
             A1    A2    B1    B2 
    DOCC [     7,    0,    2,    2 ]

  @DF-RKS Final Energy:  -436.22287514469230

   => Energetics <=

    Nuclear Repulsion Energy =             32.9740272363022413
    One-Electron Energy =                -665.6116035792858838
    Two-Electron Energy =                 219.8799585306739743
    DFT Exchange-Correlation Energy =     -23.5572991332829673
    Empirical Dispersion Energy =           0.0000000000000000
    VV10 Nonlocal Energy =                  0.0920418009003136
    Total Energy =                       -436.2228751446922956

Computation Completed


Properties will be evaluated at   0.000000,   0.000000,   0.000000 [a0]

Properties computed using the SCF density matrix

  Nuclear Dipole Moment: [e a0]
     X:     0.0000      Y:     0.0000      Z:     0.0111

  Electronic Dipole Moment: [e a0]
     X:     0.0000      Y:     0.0000      Z:     0.7433

  Dipole Moment: [e a0]
     X:     0.0000      Y:     0.0000      Z:     0.7544     Total:     0.7544

  Dipole Moment: [D]
     X:     0.0000      Y:     0.0000      Z:     1.9175     Total:     1.9175


*** tstop() called on bp1-compute00067.data.bp.acrc.priv at Tue Apr 27 16:47:18 2021
Module time:
	user time   =      84.55 seconds =       1.41 minutes
	system time =       3.34 seconds =       0.06 minutes
	total time  =          4 seconds =       0.07 minutes
Total time:
	user time   =     265.03 seconds =       4.42 minutes
	system time =      12.45 seconds =       0.21 minutes
	total time  =         13 seconds =       0.22 minutes

         ----------------------------------------------------------
                                   FINDIF
                     R. A. King and Jonathon Misiewicz
         ---------------------------------------------------------

  Computing gradient from energies.
    Using 3-point formula.
    Energy without displacement: -436.2228400342
    Check energies below for precision!
    Forces are for mass-weighted, symmetry-adapted cartesians (in au).

     Coord      Energy(-1)        Energy(+1)            Force
        0   -436.2228033604   -436.2228751447     -0.0071784308


-------------------------------------------------------------
  ## New Matrix (Symmetry 0) ##
  Irrep: 1 Size: 2 x 3

                 1                   2                   3

    1     0.00000000000000     0.00000000000000    -0.02120396438696
    2     0.00000000000000     0.00000000000000     0.02120396438696




			-----------------------------------------
			 OPTKING 2.0: for geometry optimizations 
			  - R.A. King,  Bethel University        
			-----------------------------------------
	At level 1: Red. Int., RFO, no backsteps, dynamic trust

	Internal coordinates to be generated automatically.
	Detected frag 1 with atoms:  1 2
	---Fragment 1 Bond Connectivity---
	 1 : 2
	 2 : 1

	---Fragment 1 Geometry and Gradient---
	 C           0.0000000000        0.0000000000       -2.1180954132
	 S           0.0000000000        0.0000000000        0.7949796189
	             0.0000000000        0.0000000000       -0.0212039644
	             0.0000000000        0.0000000000        0.0212039644

	Previous optimization step data not found.  Starting new optimization.

	---Fragment 1 Intrafragment Coordinates---
	 - Coordinate -           - BOHR/RAD -       - ANG/DEG -
	 R(1,2)           =         2.913075	       1.541533

	Current energy   :      -436.2228400342

	Generating empirical Hessian (Schlegel '84) for each fragment.
	Taking RFO optimization step.
	Going to follow RFO solution 1.
	Using RFO vector 1.
	Norm of target step-size    0.03288
	Projected energy change by RFO approximation:        -0.0001564541

	Back-transformation to cartesian coordinates...
	Successfully converged to displaced geometry.

	--- Internal Coordinate Step in ANG or DEG, aJ/ANG or AJ/DEG ---
	 ---------------------------------------------------------------------------
	   Coordinate                Previous        Force       Change         New 
	   ----------                --------       ------       ------       ------
	    1 R(1,2)          =      1.541533    -0.174694    -0.017400     1.524133
	 ---------------------------------------------------------------------------
	Successfully symmetrized geometry.

  ==> Convergence Check <==

  Measures of convergence in internal coordinates in au.
  Criteria marked as inactive (o), active & met (*), and active & unmet ( ).
  --------------------------------------------------------------------------------------------- ~
   Step     Total Energy     Delta E     MAX Force     RMS Force      MAX Disp      RMS Disp    ~
  --------------------------------------------------------------------------------------------- ~
    Convergence Criteria    1.00e-06 *    3.00e-04 *             o    1.20e-03 *             o  ~
  --------------------------------------------------------------------------------------------- ~
      1    -436.22284003   -4.36e+02      2.12e-02      2.12e-02 o    3.29e-02      3.29e-02 o  ~
  ---------------------------------------------------------------------------------------------

	Writing optimization data to binary file.
	Structure for next step:
	Cartesian Geometry (in Angstrom)
	    C     0.0000000000   0.0000000000  -1.1121477839
	    S     0.0000000000   0.0000000000   0.4119850612
			--------------------------
			 OPTKING Finished Execution 
			--------------------------

    Structure for next step:
    Molecular point group: c2v
    Full point group: C_inf_v

    Geometry (in Angstrom), charge = 0, multiplicity = 1:

    C            0.000000000000     0.000000000000    -1.108196241272
    S            0.000000000000     0.000000000000     0.415936609884

gradient() will perform gradient computation by finite difference of analytic energies.

         ----------------------------------------------------------
                                   FINDIF
                     R. A. King and Jonathon Misiewicz
         ---------------------------------------------------------

  Using finite-differences of energies to determine gradients.
    Generating geometries for use with 3-point formula.
    Displacement size will be 5.00e-03.
    Number of atoms is 2.
    Number of symmetric SALCs is 1.
    Translations projected? 1. Rotations projected? 1.
    Number of geometries (including reference) is 3.

  //>>>>>>>>>>>>>>>>>>>>>>>>>>>>>>>>>>>//
  //    Loading displacement 1 of 3    //
  //<<<<<<<<<<<<<<<<<<<<<<<<<<<<<<<<<<<//

*** tstart() called on bp1-compute00067.data.bp.acrc.priv
*** at Tue Apr 27 16:47:18 2021

   => Loading Basis Set <=

    Name: AUG-CC-PV(Q+D)Z
    Role: ORBITAL
    Keyword: BASIS
    atoms 1 entry C          line   319 file /work/zw18965/.conda/envs/p4env/share/psi4/basis/aug-cc-pv_qpd_z.gbs 
    atoms 2 entry S          line  1148 file /work/zw18965/.conda/envs/p4env/share/psi4/basis/aug-cc-pv_qpd_z.gbs 


         ---------------------------------------------------------
                                   SCF
               by Justin Turney, Rob Parrish, Andy Simmonett
                          and Daniel G. A. Smith
                              RKS Reference
                       24 Threads, 137329 MiB Core
         ---------------------------------------------------------

  ==> Geometry <==

    Molecular point group: c2v
    Full point group: C_inf_v

    Geometry (in Angstrom), charge = 0, multiplicity = 1:

       Center              X                  Y                   Z               Mass       
    ------------   -----------------  -----------------  -----------------  -----------------
         C            0.000000000000     0.000000000000    -1.108196241272    12.000000000000
         S            0.000000000000     0.000000000000     0.415936609884    31.972071174400

  Running in c2v symmetry.

  Rotational constants: A = ************  B =      0.83172  C =      0.83172 [cm^-1]
  Rotational constants: A = ************  B =  24934.25844  C =  24934.25844 [MHz]
  Nuclear repulsion =   33.331091962087250

  Charge       = 0
  Multiplicity = 1
  Electrons    = 22
  Nalpha       = 11
  Nbeta        = 11

  ==> Algorithm <==

  SCF Algorithm Type is DF.
  DIIS enabled.
  MOM disabled.
  Fractional occupation disabled.
  Guess Type is READ.
  Energy threshold   = 1.00e-08
  Density threshold  = 1.00e-08
  Integral threshold = 0.00e+00

  ==> Primary Basis <==

  Basis Set: AUG-CC-PV(Q+D)Z
    Blend: AUG-CC-PV(Q+D)Z
    Number of shells: 43
    Number of basis function: 169
    Number of Cartesian functions: 220
    Spherical Harmonics?: true
    Max angular momentum: 4

  ==> DFT Potential <==

   => Composite Functional: WB97M-V <= 

    wB97M-V Hyb-GGA Exchange-Correlation Functional

    N. Mardirossian and M. Head-Gordon, J. Chem. Phys. 144, 214110 (2016)

    Deriv               =              1
    GGA                 =           TRUE
    Meta                =           TRUE

    Exchange Hybrid     =           TRUE
    MP2 Hybrid          =          FALSE

   => Exchange-Correlation Functionals <=

    1.0000   wB97M-V exchange-correlation functional

   => Exact (HF) Exchange <=

    0.8500            HF,LR [omega = 0.3000]
    0.1500               HF 

   => VV10 Non-Local Parameters <=

    VV10 B              =     6.0000E+00
    VV10 C              =     1.0000E-02

   => Molecular Quadrature <=

    Radial Scheme          =       TREUTLER
    Pruning Scheme         =           FLAT
    Nuclear Scheme         =       TREUTLER

    BS radius alpha        =              1
    Pruning alpha          =              1
    Radial Points          =             75
    Spherical Points       =            302
    Total Points           =          45300
    Total Blocks           =            427
    Max Points             =            254
    Max Functions          =            169

   => Loading Basis Set <=

    Name: (AUG-CC-PV(Q+D)Z AUX)
    Role: JKFIT
    Keyword: DF_BASIS_SCF
    atoms 1 entry C          line   178 file /work/zw18965/.conda/envs/p4env/share/psi4/basis/aug-cc-pvqz-jkfit.gbs 
    atoms 2 entry S          line   810 file /work/zw18965/.conda/envs/p4env/share/psi4/basis/aug-cc-pvqz-jkfit.gbs 

   => Loading Basis Set <=

    Name: AUG-CC-PV(Q+D)Z
    Role: ORBITAL
    Keyword: BASIS
    atoms 1 entry C          line   319 file /work/zw18965/.conda/envs/p4env/share/psi4/basis/aug-cc-pv_qpd_z.gbs 
    atoms 2 entry S          line  1148 file /work/zw18965/.conda/envs/p4env/share/psi4/basis/aug-cc-pv_qpd_z.gbs 

  Reading orbitals from file 180, no projection.

  ==> Pre-Iterations <==

   -------------------------------------------------------
    Irrep   Nso     Nmo     Nalpha   Nbeta   Ndocc  Nsocc
   -------------------------------------------------------
     A1        66      66       0       0       0       0
     A2        23      23       0       0       0       0
     B1        40      40       0       0       0       0
     B2        40      40       0       0       0       0
   -------------------------------------------------------
    Total     169     169      11      11      11       0
   -------------------------------------------------------

  ==> Integral Setup <==

  ==> DiskDFJK: Density-Fitted J/K Matrices <==

    J tasked:                  Yes
    K tasked:                  Yes
    wK tasked:                 Yes
    Omega:               3.000E-01
    OpenMP threads:             24
    Integrals threads:          24
    Memory [MiB]:           102476
    Algorithm:                Core
    Integral Cache:           NONE
    Schwarz Cutoff:          1E-12
    Fitting Condition:       1E-10

   => Auxiliary Basis Set <=

  Basis Set: (AUG-CC-PV(Q+D)Z AUX)
    Blend: AUG-CC-PVQZ-JKFIT
    Number of shells: 80
    Number of basis function: 326
    Number of Cartesian functions: 445
    Spherical Harmonics?: true
    Max angular momentum: 5

  Cached 100.0% of DFT collocation blocks in 0.509 [GiB].

  Minimum eigenvalue in the overlap matrix is 3.6133299735E-05.
  Using Symmetric Orthogonalization.

  SCF Guess: Orbitals guess was supplied from a previous computation.

  ==> Iterations <==

                           Total Energy        Delta E     RMS |[F,P]|

   @DF-RKS iter   0:  -436.23797677309830   -4.36238e+02   6.86443e-04 
   @DF-RKS iter   1:  -436.22317332896802    1.48034e-02   1.10782e-04 DIIS
   @DF-RKS iter   2:  -436.22315588204100    1.74469e-05   1.35642e-04 DIIS
   @DF-RKS iter   3:  -436.22323139896957   -7.55169e-05   1.73488e-05 DIIS
   @DF-RKS iter   4:  -436.22323236888599   -9.69916e-07   2.48473e-06 DIIS
   @DF-RKS iter   5:  -436.22323241991847   -5.10325e-08   8.72415e-07 DIIS
   @DF-RKS iter   6:  -436.22323242723598   -7.31751e-09   1.15050e-07 DIIS
   @DF-RKS iter   7:  -436.22323242744153   -2.05546e-10   2.02033e-08 DIIS
   @DF-RKS iter   8:  -436.22323242744739   -5.85487e-12   5.10723e-09 DIIS
  Energy and wave function converged.


  ==> Post-Iterations <==

    Orbital Energies [Eh]
    ---------------------

    Doubly Occupied:                                                      

       1A1   -89.253383     2A1   -10.443461     3A1    -8.172054  
       1B1    -6.078897     1B2    -6.078897     4A1    -6.077731  
       5A1    -0.960114     6A1    -0.630564     2B1    -0.453100  
       2B2    -0.453100     7A1    -0.414426  

    Virtual:                                                              

       3B2    -0.004543     3B1    -0.004543     8A1     0.029503  
       4B2     0.055735     4B1     0.055735     9A1     0.058183  
      10A1     0.075700     5B2     0.086439     5B1     0.086439  
      11A1     0.140835    12A1     0.156632     1A2     0.156633  
      13A1     0.186861     6B2     0.233066     6B1     0.233066  
      14A1     0.254366     2A2     0.254388    15A1     0.254389  
       7B2     0.267669     7B1     0.267669    16A1     0.292591  
       8B1     0.345884     8B2     0.345884    17A1     0.404065  
      18A1     0.420529     3A2     0.420529    19A1     0.458745  
      20A1     0.473715     9B2     0.484229     9B1     0.484229  
      10B1     0.491844    10B2     0.491844    11B2     0.509290  
      11B1     0.509290    21A1     0.558294     4A2     0.558297  
      22A1     0.624157    12B2     0.677045    12B1     0.677045  
      23A1     0.747149     5A2     0.763685    24A1     0.763687  
      13B1     0.772320    13B2     0.772320    14B1     0.847482  
      14B2     0.847482    25A1     0.900525     6A2     0.962564  
      26A1     0.962566    27A1     0.966633    28A1     1.017520  
      15B2     1.082240    15B1     1.082240     7A2     1.138445  
      29A1     1.138447    16B2     1.242055    16B1     1.242055  
      30A1     1.257926    17B1     1.326093    17B2     1.326093  
       8A2     1.337133    31A1     1.337137    18B2     1.353661  
      18B1     1.353661    32A1     1.424784     9A2     1.424789  
      19B2     1.445516    19B1     1.445516    20B1     1.460401  
      20B2     1.460401    33A1     1.491834    34A1     1.625086  
      21B2     1.680050    21B1     1.680050    35A1     1.724214  
      10A2     1.724219    36A1     1.910334    37A1     2.031272  
      38A1     2.050927    11A2     2.050937    39A1     2.096387  
      12A2     2.096397    22B2     2.114803    22B1     2.114803  
      40A1     2.131154    23B1     2.170236    23B2     2.170236  
      24B2     2.278708    24B1     2.278708    13A2     2.338334  
      41A1     2.338352    25B2     2.362139    25B1     2.362139  
      42A1     2.362770    43A1     2.563512    26B2     2.640946  
      26B1     2.640946    14A2     2.726683    44A1     2.726687  
      27B2     2.801650    27B1     2.801650    45A1     2.827696  
      46A1     2.990301    15A2     2.990302    28B2     3.206673  
      28B1     3.206673    47A1     3.282893    29B2     3.380736  
      29B1     3.380736    16A2     3.444963    48A1     3.444990  
      49A1     3.549526    17A2     3.549530    30B1     3.608363  
      30B2     3.608363    31B1     3.729375    31B2     3.729375  
      50A1     3.743856    51A1     3.926408    18A2     3.945278  
      52A1     3.945279    53A1     4.257972    32B2     4.346477  
      32B1     4.346477    33B1     5.582890    33B2     5.582890  
      54A1     5.676680    19A2     5.676711    34B2     5.813510  
      34B1     5.813510    35B1     5.856731    35B2     5.856731  
      55A1     5.963104    20A2     5.963107    36B1     6.017060  
      36B2     6.017060    56A1     6.017300    37B1     6.189963  
      37B2     6.189963    57A1     6.254361    21A2     6.254372  
      58A1     6.309979    22A2     6.468921    59A1     6.468961  
      60A1     6.553525    38B2     6.778052    38B1     6.778052  
      61A1     7.189715    39B2     7.312315    39B1     7.312315  
      62A1     8.539968    63A1     8.805427    23A2     8.805467  
      40B2     9.059643    40B1     9.059643    64A1     9.642798  
      65A1    20.185801    66A1    21.364805  

    Final Occupation by Irrep:
             A1    A2    B1    B2 
    DOCC [     7,    0,    2,    2 ]

  @DF-RKS Final Energy:  -436.22323242744739

   => Energetics <=

    Nuclear Repulsion Energy =             33.3310919620872497
    One-Electron Energy =                -666.3198867891030659
    Two-Electron Energy =                 220.2396401347978667
    DFT Exchange-Correlation Energy =     -23.5661137461687389
    Empirical Dispersion Energy =           0.0000000000000000
    VV10 Nonlocal Energy =                  0.0920360109393120
    Total Energy =                       -436.2232324274473854

Computation Completed


Properties will be evaluated at   0.000000,   0.000000,   0.000000 [a0]

Properties computed using the SCF density matrix

  Nuclear Dipole Moment: [e a0]
     X:     0.0000      Y:     0.0000      Z:     0.0110

  Electronic Dipole Moment: [e a0]
     X:     0.0000      Y:     0.0000      Z:     0.7730

  Dipole Moment: [e a0]
     X:     0.0000      Y:     0.0000      Z:     0.7839     Total:     0.7839

  Dipole Moment: [D]
     X:     0.0000      Y:     0.0000      Z:     1.9926     Total:     1.9926


*** tstop() called on bp1-compute00067.data.bp.acrc.priv at Tue Apr 27 16:47:21 2021
Module time:
	user time   =      63.14 seconds =       1.05 minutes
	system time =       1.90 seconds =       0.03 minutes
	total time  =          3 seconds =       0.05 minutes
Total time:
	user time   =     328.56 seconds =       5.48 minutes
	system time =      14.36 seconds =       0.24 minutes
	total time  =         16 seconds =       0.27 minutes

  //>>>>>>>>>>>>>>>>>>>>>>>>>>>>>>>>>>>//
  //    Loading displacement 2 of 3    //
  //<<<<<<<<<<<<<<<<<<<<<<<<<<<<<<<<<<<//

*** tstart() called on bp1-compute00067.data.bp.acrc.priv
*** at Tue Apr 27 16:47:21 2021

   => Loading Basis Set <=

    Name: AUG-CC-PV(Q+D)Z
    Role: ORBITAL
    Keyword: BASIS
    atoms 1 entry C          line   319 file /work/zw18965/.conda/envs/p4env/share/psi4/basis/aug-cc-pv_qpd_z.gbs 
    atoms 2 entry S          line  1148 file /work/zw18965/.conda/envs/p4env/share/psi4/basis/aug-cc-pv_qpd_z.gbs 


         ---------------------------------------------------------
                                   SCF
               by Justin Turney, Rob Parrish, Andy Simmonett
                          and Daniel G. A. Smith
                              RKS Reference
                       24 Threads, 137329 MiB Core
         ---------------------------------------------------------

  ==> Geometry <==

    Molecular point group: c2v
    Full point group: C_inf_v

    Geometry (in Angstrom), charge = 0, multiplicity = 1:

       Center              X                  Y                   Z               Mass       
    ------------   -----------------  -----------------  -----------------  -----------------
         C            0.000000000000     0.000000000000    -1.108847535813    12.000000000000
         S            0.000000000000     0.000000000000     0.416181058686    31.972071174400

  Running in c2v symmetry.

  Rotational constants: A = ************  B =      0.83074  C =      0.83074 [cm^-1]
  Rotational constants: A = ************  B =  24904.97618  C =  24904.97618 [MHz]
  Nuclear repulsion =   33.311514556210639

  Charge       = 0
  Multiplicity = 1
  Electrons    = 22
  Nalpha       = 11
  Nbeta        = 11

  ==> Algorithm <==

  SCF Algorithm Type is DF.
  DIIS enabled.
  MOM disabled.
  Fractional occupation disabled.
  Guess Type is READ.
  Energy threshold   = 1.00e-08
  Density threshold  = 1.00e-08
  Integral threshold = 0.00e+00

  ==> Primary Basis <==

  Basis Set: AUG-CC-PV(Q+D)Z
    Blend: AUG-CC-PV(Q+D)Z
    Number of shells: 43
    Number of basis function: 169
    Number of Cartesian functions: 220
    Spherical Harmonics?: true
    Max angular momentum: 4

  ==> DFT Potential <==

   => Composite Functional: WB97M-V <= 

    wB97M-V Hyb-GGA Exchange-Correlation Functional

    N. Mardirossian and M. Head-Gordon, J. Chem. Phys. 144, 214110 (2016)

    Deriv               =              1
    GGA                 =           TRUE
    Meta                =           TRUE

    Exchange Hybrid     =           TRUE
    MP2 Hybrid          =          FALSE

   => Exchange-Correlation Functionals <=

    1.0000   wB97M-V exchange-correlation functional

   => Exact (HF) Exchange <=

    0.8500            HF,LR [omega = 0.3000]
    0.1500               HF 

   => VV10 Non-Local Parameters <=

    VV10 B              =     6.0000E+00
    VV10 C              =     1.0000E-02

   => Molecular Quadrature <=

    Radial Scheme          =       TREUTLER
    Pruning Scheme         =           FLAT
    Nuclear Scheme         =       TREUTLER

    BS radius alpha        =              1
    Pruning alpha          =              1
    Radial Points          =             75
    Spherical Points       =            302
    Total Points           =          45300
    Total Blocks           =            427
    Max Points             =            254
    Max Functions          =            169

   => Loading Basis Set <=

    Name: (AUG-CC-PV(Q+D)Z AUX)
    Role: JKFIT
    Keyword: DF_BASIS_SCF
    atoms 1 entry C          line   178 file /work/zw18965/.conda/envs/p4env/share/psi4/basis/aug-cc-pvqz-jkfit.gbs 
    atoms 2 entry S          line   810 file /work/zw18965/.conda/envs/p4env/share/psi4/basis/aug-cc-pvqz-jkfit.gbs 

   => Loading Basis Set <=

    Name: AUG-CC-PV(Q+D)Z
    Role: ORBITAL
    Keyword: BASIS
    atoms 1 entry C          line   319 file /work/zw18965/.conda/envs/p4env/share/psi4/basis/aug-cc-pv_qpd_z.gbs 
    atoms 2 entry S          line  1148 file /work/zw18965/.conda/envs/p4env/share/psi4/basis/aug-cc-pv_qpd_z.gbs 

  Reading orbitals from file 180, no projection.

  ==> Pre-Iterations <==

   -------------------------------------------------------
    Irrep   Nso     Nmo     Nalpha   Nbeta   Ndocc  Nsocc
   -------------------------------------------------------
     A1        66      66       0       0       0       0
     A2        23      23       0       0       0       0
     B1        40      40       0       0       0       0
     B2        40      40       0       0       0       0
   -------------------------------------------------------
    Total     169     169      11      11      11       0
   -------------------------------------------------------

  ==> Integral Setup <==

  ==> DiskDFJK: Density-Fitted J/K Matrices <==

    J tasked:                  Yes
    K tasked:                  Yes
    wK tasked:                 Yes
    Omega:               3.000E-01
    OpenMP threads:             24
    Integrals threads:          24
    Memory [MiB]:           102476
    Algorithm:                Core
    Integral Cache:           NONE
    Schwarz Cutoff:          1E-12
    Fitting Condition:       1E-10

   => Auxiliary Basis Set <=

  Basis Set: (AUG-CC-PV(Q+D)Z AUX)
    Blend: AUG-CC-PVQZ-JKFIT
    Number of shells: 80
    Number of basis function: 326
    Number of Cartesian functions: 445
    Spherical Harmonics?: true
    Max angular momentum: 5

  Cached 100.0% of DFT collocation blocks in 0.509 [GiB].

  Minimum eigenvalue in the overlap matrix is 3.6216145868E-05.
  Using Symmetric Orthogonalization.

  SCF Guess: Orbitals guess was supplied from a previous computation.

  ==> Iterations <==

                           Total Energy        Delta E     RMS |[F,P]|

   @DF-RKS iter   0:  -436.22247675512756   -4.36222e+02   3.55584e-05 
   @DF-RKS iter   1:  -436.22322739442228   -7.50639e-04   5.75029e-06 DIIS
   @DF-RKS iter   2:  -436.22322734591449    4.85078e-08   7.06985e-06 DIIS
   @DF-RKS iter   3:  -436.22322755101834   -2.05104e-07   9.00029e-07 DIIS
   @DF-RKS iter   4:  -436.22322755364092   -2.62258e-09   1.29639e-07 DIIS
   @DF-RKS iter   5:  -436.22322755377951   -1.38584e-10   4.58493e-08 DIIS
   @DF-RKS iter   6:  -436.22322755379952   -2.00089e-11   5.86379e-09 DIIS
  Energy and wave function converged.


  ==> Post-Iterations <==

    Orbital Energies [Eh]
    ---------------------

    Doubly Occupied:                                                      

       1A1   -89.253447     2A1   -10.443727     3A1    -8.172068  
       1B2    -6.078914     1B1    -6.078914     4A1    -6.077749  
       5A1    -0.959858     6A1    -0.630611     2B1    -0.452947  
       2B2    -0.452947     7A1    -0.414508  

    Virtual:                                                              

       3B2    -0.004662     3B1    -0.004662     8A1     0.029513  
       4B1     0.055741     4B2     0.055741     9A1     0.058159  
      10A1     0.075702     5B2     0.086429     5B1     0.086429  
      11A1     0.140812    12A1     0.156645     1A2     0.156645  
      13A1     0.186843     6B2     0.233054     6B1     0.233054  
      14A1     0.254325     2A2     0.254375    15A1     0.254376  
       7B2     0.267665     7B1     0.267665    16A1     0.292471  
       8B1     0.345924     8B2     0.345924    17A1     0.404111  
      18A1     0.420575     3A2     0.420575    19A1     0.458744  
      20A1     0.473584     9B2     0.484171     9B1     0.484171  
      10B1     0.491864    10B2     0.491864    11B2     0.509172  
      11B1     0.509172    21A1     0.558303     4A2     0.558306  
      22A1     0.623982    12B2     0.676971    12B1     0.676971  
      23A1     0.747003     5A2     0.763596    24A1     0.763597  
      13B2     0.772239    13B1     0.772239    14B2     0.847434  
      14B1     0.847434    25A1     0.900402     6A2     0.962418  
      26A1     0.962420    27A1     0.966448    28A1     1.017507  
      15B2     1.082274    15B1     1.082274     7A2     1.138515  
      29A1     1.138518    16B1     1.241831    16B2     1.241831  
      30A1     1.257685    17B2     1.326235    17B1     1.326235  
       8A2     1.337169    31A1     1.337172    18B1     1.353706  
      18B2     1.353706    32A1     1.424743     9A2     1.424748  
      19B1     1.445400    19B2     1.445400    20B2     1.460307  
      20B1     1.460307    33A1     1.491510    34A1     1.624819  
      21B1     1.679606    21B2     1.679606    35A1     1.724020  
      10A2     1.724024    36A1     1.910549    37A1     2.031238  
      38A1     2.050771    11A2     2.050781    39A1     2.096183  
      12A2     2.096193    22B1     2.114662    22B2     2.114662  
      40A1     2.131054    23B2     2.170099    23B1     2.170099  
      24B1     2.278527    24B2     2.278527    13A2     2.338073  
      41A1     2.338092    25B2     2.361654    25B1     2.361654  
      42A1     2.362390    43A1     2.563227    26B1     2.640870  
      26B2     2.640870    14A2     2.726562    44A1     2.726566  
      27B1     2.800872    27B2     2.800872    45A1     2.826954  
      46A1     2.989797    15A2     2.989797    28B1     3.206278  
      28B2     3.206278    47A1     3.282502    29B1     3.380803  
      29B2     3.380803    16A2     3.444869    48A1     3.444895  
      49A1     3.549577    17A2     3.549581    30B1     3.608240  
      30B2     3.608240    31B1     3.729025    31B2     3.729025  
      50A1     3.742150    51A1     3.926278    18A2     3.944438  
      52A1     3.944439    53A1     4.257496    32B1     4.345967  
      32B2     4.345967    33B1     5.581931    33B2     5.581931  
      54A1     5.676538    19A2     5.676570    34B1     5.813089  
      34B2     5.813089    35B1     5.856249    35B2     5.856249  
      55A1     5.962787    20A2     5.962790    36B1     6.016899  
      36B2     6.016899    56A1     6.017518    37B1     6.189753  
      37B2     6.189753    57A1     6.253630    21A2     6.253641  
      58A1     6.309485    22A2     6.468093    59A1     6.468133  
      60A1     6.552022    38B1     6.777027    38B2     6.777027  
      61A1     7.187805    39B1     7.309887    39B2     7.309887  
      62A1     8.539081    63A1     8.805339    23A2     8.805379  
      40B1     9.059188    40B2     9.059188    64A1     9.640646  
      65A1    20.177968    66A1    21.362139  

    Final Occupation by Irrep:
             A1    A2    B1    B2 
    DOCC [     7,    0,    2,    2 ]

  @DF-RKS Final Energy:  -436.22322755379952

   => Energetics <=

    Nuclear Repulsion Energy =             33.3115145562106392
    One-Electron Energy =                -666.2810734654300404
    Two-Electron Energy =                 220.2199231245445787
    DFT Exchange-Correlation Energy =     -23.5656280896136749
    Empirical Dispersion Energy =           0.0000000000000000
    VV10 Nonlocal Energy =                  0.0920363204889172
    Total Energy =                       -436.2232275537994610

Computation Completed


Properties will be evaluated at   0.000000,   0.000000,   0.000000 [a0]

Properties computed using the SCF density matrix

  Nuclear Dipole Moment: [e a0]
     X:     0.0000      Y:     0.0000      Z:     0.0110

  Electronic Dipole Moment: [e a0]
     X:     0.0000      Y:     0.0000      Z:     0.7713

  Dipole Moment: [e a0]
     X:     0.0000      Y:     0.0000      Z:     0.7823     Total:     0.7823

  Dipole Moment: [D]
     X:     0.0000      Y:     0.0000      Z:     1.9885     Total:     1.9885


*** tstop() called on bp1-compute00067.data.bp.acrc.priv at Tue Apr 27 16:47:24 2021
Module time:
	user time   =      62.80 seconds =       1.05 minutes
	system time =       2.38 seconds =       0.04 minutes
	total time  =          3 seconds =       0.05 minutes
Total time:
	user time   =     391.50 seconds =       6.53 minutes
	system time =      16.74 seconds =       0.28 minutes
	total time  =         19 seconds =       0.32 minutes

  //>>>>>>>>>>>>>>>>>>>>>>>>>>>>>>>>>>>//
  //    Loading displacement 3 of 3    //
  //<<<<<<<<<<<<<<<<<<<<<<<<<<<<<<<<<<<//

*** tstart() called on bp1-compute00067.data.bp.acrc.priv
*** at Tue Apr 27 16:47:24 2021

   => Loading Basis Set <=

    Name: AUG-CC-PV(Q+D)Z
    Role: ORBITAL
    Keyword: BASIS
    atoms 1 entry C          line   319 file /work/zw18965/.conda/envs/p4env/share/psi4/basis/aug-cc-pv_qpd_z.gbs 
    atoms 2 entry S          line  1148 file /work/zw18965/.conda/envs/p4env/share/psi4/basis/aug-cc-pv_qpd_z.gbs 


         ---------------------------------------------------------
                                   SCF
               by Justin Turney, Rob Parrish, Andy Simmonett
                          and Daniel G. A. Smith
                              RKS Reference
                       24 Threads, 137329 MiB Core
         ---------------------------------------------------------

  ==> Geometry <==

    Molecular point group: c2v
    Full point group: C_inf_v

    Geometry (in Angstrom), charge = 0, multiplicity = 1:

       Center              X                  Y                   Z               Mass       
    ------------   -----------------  -----------------  -----------------  -----------------
         C            0.000000000000     0.000000000000    -1.107544946730    12.000000000000
         S            0.000000000000     0.000000000000     0.415692161082    31.972071174400

  Running in c2v symmetry.

  Rotational constants: A = ************  B =      0.83270  C =      0.83270 [cm^-1]
  Rotational constants: A = ************  B =  24963.59236  C =  24963.59236 [MHz]
  Nuclear repulsion =   33.350692393047616

  Charge       = 0
  Multiplicity = 1
  Electrons    = 22
  Nalpha       = 11
  Nbeta        = 11

  ==> Algorithm <==

  SCF Algorithm Type is DF.
  DIIS enabled.
  MOM disabled.
  Fractional occupation disabled.
  Guess Type is READ.
  Energy threshold   = 1.00e-08
  Density threshold  = 1.00e-08
  Integral threshold = 0.00e+00

  ==> Primary Basis <==

  Basis Set: AUG-CC-PV(Q+D)Z
    Blend: AUG-CC-PV(Q+D)Z
    Number of shells: 43
    Number of basis function: 169
    Number of Cartesian functions: 220
    Spherical Harmonics?: true
    Max angular momentum: 4

  ==> DFT Potential <==

   => Composite Functional: WB97M-V <= 

    wB97M-V Hyb-GGA Exchange-Correlation Functional

    N. Mardirossian and M. Head-Gordon, J. Chem. Phys. 144, 214110 (2016)

    Deriv               =              1
    GGA                 =           TRUE
    Meta                =           TRUE

    Exchange Hybrid     =           TRUE
    MP2 Hybrid          =          FALSE

   => Exchange-Correlation Functionals <=

    1.0000   wB97M-V exchange-correlation functional

   => Exact (HF) Exchange <=

    0.8500            HF,LR [omega = 0.3000]
    0.1500               HF 

   => VV10 Non-Local Parameters <=

    VV10 B              =     6.0000E+00
    VV10 C              =     1.0000E-02

   => Molecular Quadrature <=

    Radial Scheme          =       TREUTLER
    Pruning Scheme         =           FLAT
    Nuclear Scheme         =       TREUTLER

    BS radius alpha        =              1
    Pruning alpha          =              1
    Radial Points          =             75
    Spherical Points       =            302
    Total Points           =          45300
    Total Blocks           =            427
    Max Points             =            254
    Max Functions          =            169

   => Loading Basis Set <=

    Name: (AUG-CC-PV(Q+D)Z AUX)
    Role: JKFIT
    Keyword: DF_BASIS_SCF
    atoms 1 entry C          line   178 file /work/zw18965/.conda/envs/p4env/share/psi4/basis/aug-cc-pvqz-jkfit.gbs 
    atoms 2 entry S          line   810 file /work/zw18965/.conda/envs/p4env/share/psi4/basis/aug-cc-pvqz-jkfit.gbs 

   => Loading Basis Set <=

    Name: AUG-CC-PV(Q+D)Z
    Role: ORBITAL
    Keyword: BASIS
    atoms 1 entry C          line   319 file /work/zw18965/.conda/envs/p4env/share/psi4/basis/aug-cc-pv_qpd_z.gbs 
    atoms 2 entry S          line  1148 file /work/zw18965/.conda/envs/p4env/share/psi4/basis/aug-cc-pv_qpd_z.gbs 

  Reading orbitals from file 180, no projection.

  ==> Pre-Iterations <==

   -------------------------------------------------------
    Irrep   Nso     Nmo     Nalpha   Nbeta   Ndocc  Nsocc
   -------------------------------------------------------
     A1        66      66       0       0       0       0
     A2        23      23       0       0       0       0
     B1        40      40       0       0       0       0
     B2        40      40       0       0       0       0
   -------------------------------------------------------
    Total     169     169      11      11      11       0
   -------------------------------------------------------

  ==> Integral Setup <==

  ==> DiskDFJK: Density-Fitted J/K Matrices <==

    J tasked:                  Yes
    K tasked:                  Yes
    wK tasked:                 Yes
    Omega:               3.000E-01
    OpenMP threads:             24
    Integrals threads:          24
    Memory [MiB]:           102476
    Algorithm:                Core
    Integral Cache:           NONE
    Schwarz Cutoff:          1E-12
    Fitting Condition:       1E-10

   => Auxiliary Basis Set <=

  Basis Set: (AUG-CC-PV(Q+D)Z AUX)
    Blend: AUG-CC-PVQZ-JKFIT
    Number of shells: 80
    Number of basis function: 326
    Number of Cartesian functions: 445
    Spherical Harmonics?: true
    Max angular momentum: 5

  Cached 100.0% of DFT collocation blocks in 0.509 [GiB].

  Minimum eigenvalue in the overlap matrix is 3.6050681231E-05.
  Using Symmetric Orthogonalization.

  SCF Guess: Orbitals guess was supplied from a previous computation.

  ==> Iterations <==

                           Total Energy        Delta E     RMS |[F,P]|

   @DF-RKS iter   0:  -436.22398779542021   -4.36224e+02   3.56205e-05 
   @DF-RKS iter   1:  -436.22323542388739    7.52372e-04   5.74881e-06 DIIS
   @DF-RKS iter   2:  -436.22323537609867    4.77887e-08   7.05650e-06 DIIS
   @DF-RKS iter   3:  -436.22323558033014   -2.04231e-07   8.97381e-07 DIIS
   @DF-RKS iter   4:  -436.22323558293459   -2.60445e-09   1.29483e-07 DIIS
   @DF-RKS iter   5:  -436.22323558307249   -1.37902e-10   4.58288e-08 DIIS
   @DF-RKS iter   6:  -436.22323558309267   -2.01794e-11   5.87985e-09 DIIS
  Energy and wave function converged.


  ==> Post-Iterations <==

    Orbital Energies [Eh]
    ---------------------

    Doubly Occupied:                                                      

       1A1   -89.253318     2A1   -10.443194     3A1    -8.172041  
       1B2    -6.078881     1B1    -6.078881     4A1    -6.077712  
       5A1    -0.960370     6A1    -0.630517     2B1    -0.453252  
       2B2    -0.453252     7A1    -0.414343  

    Virtual:                                                              

       3B2    -0.004424     3B1    -0.004424     8A1     0.029493  
       4B2     0.055729     4B1     0.055729     9A1     0.058207  
      10A1     0.075698     5B2     0.086449     5B1     0.086449  
      11A1     0.140858    12A1     0.156620     1A2     0.156620  
      13A1     0.186879     6B1     0.233079     6B2     0.233079  
       2A2     0.254401    14A1     0.254402    15A1     0.254407  
       7B1     0.267674     7B2     0.267674    16A1     0.292710  
       8B2     0.345845     8B1     0.345845    17A1     0.404019  
      18A1     0.420482     3A2     0.420482    19A1     0.458747  
      20A1     0.473846     9B1     0.484287     9B2     0.484287  
      10B2     0.491823    10B1     0.491823    11B1     0.509408  
      11B2     0.509408    21A1     0.558286     4A2     0.558289  
      22A1     0.624331    12B1     0.677118    12B2     0.677118  
      23A1     0.747295     5A2     0.763775    24A1     0.763776  
      13B1     0.772400    13B2     0.772400    14B2     0.847530  
      14B1     0.847530    25A1     0.900648     6A2     0.962710  
      26A1     0.962712    27A1     0.966816    28A1     1.017536  
      15B2     1.082206    15B1     1.082206     7A2     1.138374  
      29A1     1.138377    16B1     1.242279    16B2     1.242279  
      30A1     1.258169    17B1     1.325950    17B2     1.325950  
       8A2     1.337098    31A1     1.337101    18B1     1.353617  
      18B2     1.353617    32A1     1.424826     9A2     1.424831  
      19B2     1.445631    19B1     1.445631    20B1     1.460496  
      20B2     1.460496    33A1     1.492159    34A1     1.625353  
      21B2     1.680495    21B1     1.680495    35A1     1.724409  
      10A2     1.724413    36A1     1.910117    37A1     2.031305  
      38A1     2.051083    11A2     2.051093    39A1     2.096592  
      12A2     2.096601    22B2     2.114944    22B1     2.114944  
      40A1     2.131255    23B1     2.170372    23B2     2.170372  
      24B2     2.278889    24B1     2.278889    13A2     2.338595  
      41A1     2.338614    25B1     2.362624    25B2     2.362624  
      42A1     2.363151    43A1     2.563796    26B2     2.641020  
      26B1     2.641020    14A2     2.726803    44A1     2.726807  
      27B2     2.802430    27B1     2.802430    45A1     2.828440  
      46A1     2.990805    15A2     2.990805    28B2     3.207070  
      28B1     3.207070    47A1     3.283283    29B1     3.380669  
      29B2     3.380669    16A2     3.445058    48A1     3.445085  
      49A1     3.549475    17A2     3.549480    30B1     3.608487  
      30B2     3.608487    31B1     3.729726    31B2     3.729726  
      50A1     3.745565    51A1     3.926527    18A2     3.946119  
      52A1     3.946120    53A1     4.258466    32B2     4.346985  
      32B1     4.346985    33B2     5.583849    33B1     5.583849  
      54A1     5.676821    19A2     5.676852    34B1     5.813931  
      34B2     5.813931    35B2     5.857217    35B1     5.857217  
      55A1     5.963420    20A2     5.963424    56A1     6.017077  
      36B2     6.017220    36B1     6.017220    37B1     6.190174  
      37B2     6.190174    57A1     6.255094    21A2     6.255105  
      58A1     6.310455    22A2     6.469751    59A1     6.469791  
      60A1     6.555048    38B2     6.779076    38B1     6.779076  
      61A1     7.191634    39B2     7.314745    39B1     7.314745  
      62A1     8.540845    63A1     8.805516    23A2     8.805556  
      40B2     9.060103    40B1     9.060103    64A1     9.644948  
      65A1    20.193653    66A1    21.367492  

    Final Occupation by Irrep:
             A1    A2    B1    B2 
    DOCC [     7,    0,    2,    2 ]

  @DF-RKS Final Energy:  -436.22323558309267

   => Energetics <=

    Nuclear Repulsion Energy =             33.3506923930476162
    One-Electron Energy =                -666.3587430661309554
    Two-Electron Energy =                 220.2593797503850510
    DFT Exchange-Correlation Energy =     -23.5666003621971640
    Empirical Dispersion Energy =           0.0000000000000000
    VV10 Nonlocal Energy =                  0.0920357018027085
    Total Energy =                       -436.2232355830926736

Computation Completed


Properties will be evaluated at   0.000000,   0.000000,   0.000000 [a0]

Properties computed using the SCF density matrix

  Nuclear Dipole Moment: [e a0]
     X:     0.0000      Y:     0.0000      Z:     0.0110

  Electronic Dipole Moment: [e a0]
     X:     0.0000      Y:     0.0000      Z:     0.7746

  Dipole Moment: [e a0]
     X:     0.0000      Y:     0.0000      Z:     0.7855     Total:     0.7855

  Dipole Moment: [D]
     X:     0.0000      Y:     0.0000      Z:     1.9966     Total:     1.9966


*** tstop() called on bp1-compute00067.data.bp.acrc.priv at Tue Apr 27 16:47:27 2021
Module time:
	user time   =      56.68 seconds =       0.94 minutes
	system time =       3.44 seconds =       0.06 minutes
	total time  =          3 seconds =       0.05 minutes
Total time:
	user time   =     448.33 seconds =       7.47 minutes
	system time =      20.19 seconds =       0.34 minutes
	total time  =         22 seconds =       0.37 minutes

         ----------------------------------------------------------
                                   FINDIF
                     R. A. King and Jonathon Misiewicz
         ---------------------------------------------------------

  Computing gradient from energies.
    Using 3-point formula.
    Energy without displacement: -436.2232324274
    Check energies below for precision!
[...]
     X:     0.0000      Y:     0.0000      Z:     0.7753

  Dipole Moment: [e a0]
     X:     0.0000      Y:     0.0000      Z:     0.7862     Total:     0.7862

  Dipole Moment: [D]
     X:     0.0000      Y:     0.0000      Z:     1.9984     Total:     1.9984


*** tstop() called on bp1-compute00067.data.bp.acrc.priv at Tue Apr 27 16:47:55 2021
Module time:
	user time   =      93.13 seconds =       1.55 minutes
	system time =       4.06 seconds =       0.07 minutes
	total time  =          4 seconds =       0.07 minutes
Total time:
	user time   =    1071.52 seconds =      17.86 minutes
	system time =      40.76 seconds =       0.68 minutes
	total time  =         50 seconds =       0.83 minutes

  //>>>>>>>>>>>>>>>>>>>>>>>>>>>>>>>>>>>//
  //    Loading displacement 3 of 3    //
  //<<<<<<<<<<<<<<<<<<<<<<<<<<<<<<<<<<<//

*** tstart() called on bp1-compute00067.data.bp.acrc.priv
*** at Tue Apr 27 16:47:55 2021

   => Loading Basis Set <=

    Name: AUG-CC-PV(Q+D)Z
    Role: ORBITAL
    Keyword: BASIS
    atoms 1 entry C          line   319 file /work/zw18965/.conda/envs/p4env/share/psi4/basis/aug-cc-pv_qpd_z.gbs 
    atoms 2 entry S          line  1148 file /work/zw18965/.conda/envs/p4env/share/psi4/basis/aug-cc-pv_qpd_z.gbs 


         ---------------------------------------------------------
                                   SCF
               by Justin Turney, Rob Parrish, Andy Simmonett
                          and Daniel G. A. Smith
                              RKS Reference
                       24 Threads, 137329 MiB Core
         ---------------------------------------------------------

  ==> Geometry <==

    Molecular point group: c2v
    Full point group: C_inf_v

    Geometry (in Angstrom), charge = 0, multiplicity = 1:

       Center              X                  Y                   Z               Mass       
    ------------   -----------------  -----------------  -----------------  -----------------
         C            0.000000000000     0.000000000000    -1.105951636550    12.000000000000
         S            0.000000000000     0.000000000000     0.415094147833    31.972071174400

  Running in c2v symmetry.

  Rotational constants: A = ************  B =      0.83510  C =      0.83510 [cm^-1]
  Rotational constants: A = ************  B =  25035.57272  C =  25035.57272 [MHz]
  Nuclear repulsion =   33.398739699948955

  Charge       = 0
  Multiplicity = 1
  Electrons    = 22
  Nalpha       = 11
  Nbeta        = 11

  ==> Algorithm <==

  SCF Algorithm Type is DF.
  DIIS enabled.
  MOM disabled.
  Fractional occupation disabled.
  Guess Type is SAD.
  Energy threshold   = 1.00e-10
  Density threshold  = 1.00e-10
  Integral threshold = 0.00e+00

  ==> Primary Basis <==

  Basis Set: AUG-CC-PV(Q+D)Z
    Blend: AUG-CC-PV(Q+D)Z
    Number of shells: 43
    Number of basis function: 169
    Number of Cartesian functions: 220
    Spherical Harmonics?: true
    Max angular momentum: 4

  ==> DFT Potential <==

   => Composite Functional: WB97M-V <= 

    wB97M-V Hyb-GGA Exchange-Correlation Functional

    N. Mardirossian and M. Head-Gordon, J. Chem. Phys. 144, 214110 (2016)

    Deriv               =              1
    GGA                 =           TRUE
    Meta                =           TRUE

    Exchange Hybrid     =           TRUE
    MP2 Hybrid          =          FALSE

   => Exchange-Correlation Functionals <=

    1.0000   wB97M-V exchange-correlation functional

   => Exact (HF) Exchange <=

    0.8500            HF,LR [omega = 0.3000]
    0.1500               HF 

   => VV10 Non-Local Parameters <=

    VV10 B              =     6.0000E+00
    VV10 C              =     1.0000E-02

   => Molecular Quadrature <=

    Radial Scheme          =       TREUTLER
    Pruning Scheme         =           FLAT
    Nuclear Scheme         =       TREUTLER

    BS radius alpha        =              1
    Pruning alpha          =              1
    Radial Points          =             75
    Spherical Points       =            302
    Total Points           =          45300
    Total Blocks           =            427
    Max Points             =            254
    Max Functions          =            169

   => Loading Basis Set <=

    Name: (AUG-CC-PV(Q+D)Z AUX)
    Role: JKFIT
    Keyword: DF_BASIS_SCF
    atoms 1 entry C          line   178 file /work/zw18965/.conda/envs/p4env/share/psi4/basis/aug-cc-pvqz-jkfit.gbs 
    atoms 2 entry S          line   810 file /work/zw18965/.conda/envs/p4env/share/psi4/basis/aug-cc-pvqz-jkfit.gbs 

  ==> Pre-Iterations <==

   -------------------------------------------------------
    Irrep   Nso     Nmo     Nalpha   Nbeta   Ndocc  Nsocc
   -------------------------------------------------------
     A1        66      66       0       0       0       0
     A2        23      23       0       0       0       0
     B1        40      40       0       0       0       0
     B2        40      40       0       0       0       0
   -------------------------------------------------------
    Total     169     169      11      11      11       0
   -------------------------------------------------------

  ==> Integral Setup <==

  ==> DiskDFJK: Density-Fitted J/K Matrices <==

    J tasked:                  Yes
    K tasked:                  Yes
    wK tasked:                 Yes
    Omega:               3.000E-01
    OpenMP threads:             24
    Integrals threads:          24
    Memory [MiB]:           102476
    Algorithm:                Core
    Integral Cache:           NONE
    Schwarz Cutoff:          1E-12
    Fitting Condition:       1E-10

   => Auxiliary Basis Set <=

  Basis Set: (AUG-CC-PV(Q+D)Z AUX)
    Blend: AUG-CC-PVQZ-JKFIT
    Number of shells: 80
    Number of basis function: 326
    Number of Cartesian functions: 445
    Spherical Harmonics?: true
    Max angular momentum: 5

  Cached 100.0% of DFT collocation blocks in 0.509 [GiB].

  Minimum eigenvalue in the overlap matrix is 3.5849520865E-05.
  Using Symmetric Orthogonalization.

  SCF Guess: Superposition of Atomic Densities via on-the-fly atomic UHF.

  ==> Iterations <==

                           Total Energy        Delta E     RMS |[F,P]|

   @DF-RKS iter SAD:  -435.66819297194820   -4.35668e+02   0.00000e+00 
   @DF-RKS iter   1:  -436.16539028165619   -4.97197e-01   3.87127e-03 DIIS
   @DF-RKS iter   2:  -436.14877365892801    1.66166e-02   4.09832e-03 DIIS
   @DF-RKS iter   3:  -436.22155266577158   -7.27790e-02   6.92235e-04 DIIS
   @DF-RKS iter   4:  -436.22316919963379   -1.61653e-03   9.78667e-05 DIIS
   @DF-RKS iter   5:  -436.22322989340483   -6.06938e-05   2.92598e-05 DIIS
   @DF-RKS iter   6:  -436.22323482099438   -4.92759e-06   1.18162e-05 DIIS
   @DF-RKS iter   7:  -436.22323597854978   -1.15756e-06   1.35032e-06 DIIS
   @DF-RKS iter   8:  -436.22323601054484   -3.19951e-08   1.82687e-07 DIIS
   @DF-RKS iter   9:  -436.22323601101891   -4.74074e-10   2.69794e-08 DIIS
   @DF-RKS iter  10:  -436.22323601102778   -8.86757e-12   3.81042e-09 DIIS
   @DF-RKS iter  11:  -436.22323601102829   -5.11591e-13   6.30376e-10 DIIS
   @DF-RKS iter  12:  -436.22323601102846   -1.70530e-13   1.18875e-10 DIIS
   @DF-RKS iter  13:  -436.22323601102818    2.84217e-13   2.08534e-11 DIIS
  Energy and wave function converged.


  ==> Post-Iterations <==

    Orbital Energies [Eh]
    ---------------------

    Doubly Occupied:                                                      

       1A1   -89.253159     2A1   -10.442541     3A1    -8.172006  
       1B1    -6.078839     1B2    -6.078839     4A1    -6.077667  
       5A1    -0.960996     6A1    -0.630402     2B2    -0.453627  
       2B1    -0.453627     7A1    -0.414141  

    Virtual:                                                              

       3B2    -0.004133     3B1    -0.004133     8A1     0.029469  
       4B2     0.055714     4B1     0.055714     9A1     0.058267  
      10A1     0.075695     5B2     0.086475     5B1     0.086475  
      11A1     0.140912    12A1     0.156588     1A2     0.156588  
      13A1     0.186921     6B1     0.233110     6B2     0.233110  
       2A2     0.254433    14A1     0.254434    15A1     0.254508  
       7B1     0.267684     7B2     0.267684    16A1     0.293002  
       8B2     0.345749     8B1     0.345749    17A1     0.403906  
      18A1     0.420369     3A2     0.420369    19A1     0.458751  
      20A1     0.474166     9B1     0.484428     9B2     0.484428  
      10B1     0.491772    10B2     0.491772    11B1     0.509698  
      11B2     0.509698    21A1     0.558265     4A2     0.558268  
      22A1     0.624758    12B1     0.677298    12B2     0.677298  
      23A1     0.747650     5A2     0.763994    24A1     0.763995  
      13B1     0.772598    13B2     0.772598    14B1     0.847646  
      14B2     0.847646    25A1     0.900943     6A2     0.963067  
      26A1     0.963069    27A1     0.967259    28A1     1.017583  
      15B1     1.082124    15B2     1.082124     7A2     1.138202  
      29A1     1.138204    16B1     1.242829    16B2     1.242829  
      30A1     1.258770    17B1     1.325600    17B2     1.325600  
       8A2     1.337011    31A1     1.337015    18B1     1.353508  
      18B2     1.353508    32A1     1.424927     9A2     1.424932  
      19B1     1.445912    19B2     1.445912    20B2     1.460727  
      20B1     1.460727    33A1     1.492959    34A1     1.626007  
      21B1     1.681589    21B2     1.681589    35A1     1.724885  
      10A2     1.724889    36A1     1.909586    37A1     2.031381  
      38A1     2.051465    11A2     2.051474    39A1     2.097092  
      12A2     2.097102    22B1     2.115283    22B2     2.115283  
      40A1     2.131506    23B2     2.170705    23B1     2.170705  
      24B1     2.279331    24B2     2.279331    13A2     2.339236  
      41A1     2.339254    25B1     2.363813    25B2     2.363813  
      42A1     2.364087    43A1     2.564490    26B1     2.641196  
      26B2     2.641196    14A2     2.727096    44A1     2.727099  
      27B1     2.804346    27B2     2.804346    45A1     2.830271  
      46A1     2.992035    15A2     2.992035    28B1     3.208048  
      28B2     3.208048    47A1     3.284226    29B1     3.380505  
      29B2     3.380505    16A2     3.445296    48A1     3.445323  
      49A1     3.549350    17A2     3.549355    30B1     3.608792  
      30B2     3.608792    31B1     3.730588    31B2     3.730588  
      50A1     3.749752    51A1     3.926765    18A2     3.948183  
      52A1     3.948184    53A1     4.259751    32B1     4.348216  
      32B2     4.348216    33B1     5.586197    33B2     5.586197  
      54A1     5.677168    19A2     5.677198    34B1     5.814965  
      34B2     5.814965    35B1     5.858424    35B2     5.858424  
      55A1     5.964192    20A2     5.964196    56A1     6.016509  
      36B1     6.017607    36B2     6.017607    37B2     6.190691  
      37B1     6.190691    57A1     6.256895    21A2     6.256905  
      58A1     6.311540    22A2     6.471785    59A1     6.471825  
      60A1     6.558859    38B1     6.781581    38B2     6.781581  
      61A1     7.196363    39B1     7.320699    39B2     7.320699  
      62A1     8.542947    63A1     8.805734    23A2     8.805774  
      40B1     9.061246    40B2     9.061246    64A1     9.650199  
      65A1    20.212945    66A1    21.374151  

    Final Occupation by Irrep:
             A1    A2    B1    B2 
    DOCC [     7,    0,    2,    2 ]

  @DF-RKS Final Energy:  -436.22323601102818

   => Energetics <=

    Nuclear Repulsion Energy =             33.3987396999489548
    One-Electron Energy =                -666.4539879018318516
    Two-Electron Energy =                 220.3077718167603791
    DFT Exchange-Correlation Energy =     -23.5677945732461325
    Empirical Dispersion Energy =           0.0000000000000000
    VV10 Nonlocal Energy =                  0.0920349473405404
    Total Energy =                       -436.2232360110281775

Computation Completed


Properties will be evaluated at   0.000000,   0.000000,   0.000000 [a0]

Properties computed using the SCF density matrix

  Nuclear Dipole Moment: [e a0]
     X:     0.0000      Y:     0.0000      Z:     0.0110

  Electronic Dipole Moment: [e a0]
     X:     0.0000      Y:     0.0000      Z:     0.7785

  Dipole Moment: [e a0]
     X:     0.0000      Y:     0.0000      Z:     0.7894     Total:     0.7894

  Dipole Moment: [D]
     X:     0.0000      Y:     0.0000      Z:     2.0066     Total:     2.0066


*** tstop() called on bp1-compute00067.data.bp.acrc.priv at Tue Apr 27 16:47:59 2021
Module time:
	user time   =      92.37 seconds =       1.54 minutes
	system time =       2.61 seconds =       0.04 minutes
	total time  =          4 seconds =       0.07 minutes
Total time:
	user time   =    1164.04 seconds =      19.40 minutes
	system time =      43.37 seconds =       0.72 minutes
	total time  =         54 seconds =       0.90 minutes

         ----------------------------------------------------------
                                   FINDIF
                     R. A. King and Jonathon Misiewicz
         ---------------------------------------------------------

  Computing second-derivative from energies using projected, 
  symmetry-adapted, cartesian coordinates.

  3 energies passed in, including the reference geometry.
    Using 3-point formula.
    Energy without displacement: -436.2232370931
    Check energies below for precision!
    0: -1 :      -436.2232364348
    0: 1  :      -436.2232360110

-------------------------------------------------------------


  ==> Harmonic Vibrational Analysis <==

  non-mass-weighted Hessian:       Symmetric? True   Hermitian? True   Lin Dep Dim?  5 (0)
  projection of translations (True) and rotations (True) removed 5 degrees of freedom (5)
  total projector:                 Symmetric? True   Hermitian? True   Lin Dep Dim?  5 (5)
  mass-weighted Hessian:           Symmetric? True   Hermitian? True   Lin Dep Dim?  5 (0)
  pre-proj  low-frequency mode:    0.0000  [cm^-1]
  pre-proj  low-frequency mode:    0.0000  [cm^-1]
  pre-proj  low-frequency mode:    0.0000  [cm^-1]
  pre-proj  low-frequency mode:    0.0000  [cm^-1]
  pre-proj  low-frequency mode:    0.0000  [cm^-1]
  pre-proj  all modes:['0.0000' '0.0000' '0.0000' '0.0000' '0.0000' '1356.2847']
  projected mass-weighted Hessian: Symmetric? True   Hermitian? True   Lin Dep Dim?  5 (5)
  post-proj low-frequency mode:    0.0000i [cm^-1] (TR)
  post-proj low-frequency mode:    0.0000  [cm^-1] (TR)
  post-proj low-frequency mode:    0.0000  [cm^-1] (TR)
  post-proj low-frequency mode:    0.0000  [cm^-1] (TR)
  post-proj low-frequency mode:    0.0000  [cm^-1] (TR)
  post-proj  all modes:['0.0000i' '0.0000' '0.0000' '0.0000' '0.0000' '1356.2847']

  Vibration                       6           
  Freq [cm^-1]                1356.2847       
  Irrep                           A1          
  Reduced mass [u]             14.4661        
  Force const [mDyne/A]        15.6784        
  Turning point v=0 [a0]        0.0783        
  RMS dev v=0 [a0 u^1/2]        0.2107        
  Char temp [K]               1951.3917       
  ----------------------------------------------------------------------------------
      1   C                0.00  0.00  0.94   
      2   S                0.00  0.00 -0.35   

  ==> Thermochemistry Components <==

  Entropy, S
    Electronic S            0.000 [cal/(mol K)]        0.000 [J/(mol K)]       0.00000000 [mEh/K] (multiplicity = 1)
    Translational S        37.269 [cal/(mol K)]      155.933 [J/(mol K)]       0.05939180 [mEh/K] (mol. weight = 43.9721 [u], P = 101325.00 [Pa])
    Rotational S           12.947 [cal/(mol K)]       54.170 [J/(mol K)]       0.02063237 [mEh/K] (symmetry no. = 1)
    Vibrational S           0.022 [cal/(mol K)]        0.090 [J/(mol K)]       0.00003439 [mEh/K]
  Total S                  50.237 [cal/(mol K)]      210.194 [J/(mol K)]       0.08005855 [mEh/K]
  Correction S              0.000 [cal/(mol K)]        0.000 [J/(mol K)]       0.00000000 [mEh/K]

  Constant volume heat capacity, Cv
    Electronic Cv           0.000 [cal/(mol K)]        0.000 [J/(mol K)]       0.00000000 [mEh/K]
    Translational Cv        2.981 [cal/(mol K)]       12.472 [J/(mol K)]       0.00475022 [mEh/K]
    Rotational Cv           1.987 [cal/(mol K)]        8.314 [J/(mol K)]       0.00316681 [mEh/K]
    Vibrational Cv          0.123 [cal/(mol K)]        0.513 [J/(mol K)]       0.00019554 [mEh/K]
  Total Cv                  5.091 [cal/(mol K)]       21.300 [J/(mol K)]       0.00811257 [mEh/K]
  Correction Cv             0.000 [cal/(mol K)]        0.000 [J/(mol K)]       0.00000000 [mEh/K]

  Constant pressure heat capacity, Cp
    Electronic Cp           0.000 [cal/(mol K)]        0.000 [J/(mol K)]       0.00000000 [mEh/K]
    Translational Cp        4.968 [cal/(mol K)]       20.786 [J/(mol K)]       0.00791703 [mEh/K]
    Rotational Cp           1.987 [cal/(mol K)]        8.314 [J/(mol K)]       0.00316681 [mEh/K]
    Vibrational Cp          0.123 [cal/(mol K)]        0.513 [J/(mol K)]       0.00019554 [mEh/K]
  Total Cp                  7.078 [cal/(mol K)]       29.614 [J/(mol K)]       0.01127938 [mEh/K]
  Correction Cp             0.000 [cal/(mol K)]        0.000 [J/(mol K)]       0.00000000 [mEh/K]

  ==> Thermochemistry Energy Analysis <==

  Raw electronic energy, E0
  Total E0, Electronic energy at well bottom at 0 [K]                 -436.22323709 [Eh]

  Zero-point energy, ZPE_vib = Sum_i nu_i / 2
    Electronic ZPE          0.000 [kcal/mol]        0.000 [kJ/mol]       0.00000000 [Eh]
    Translational ZPE       0.000 [kcal/mol]        0.000 [kJ/mol]       0.00000000 [Eh]
    Rotational ZPE          0.000 [kcal/mol]        0.000 [kJ/mol]       0.00000000 [Eh]
    Vibrational ZPE         1.939 [kcal/mol]        8.112 [kJ/mol]       0.00308984 [Eh]         678.142 [cm^-1]
  Correction ZPE            1.939 [kcal/mol]        8.112 [kJ/mol]       0.00308984 [Eh]         678.142 [cm^-1]
  Total ZPE, Electronic energy at 0 [K]                               -436.22014725 [Eh]

  Thermal Energy, E (includes ZPE)
    Electronic E            0.000 [kcal/mol]        0.000 [kJ/mol]       0.00000000 [Eh]
    Translational E         0.889 [kcal/mol]        3.718 [kJ/mol]       0.00141628 [Eh]
    Rotational E            0.592 [kcal/mol]        2.479 [kJ/mol]       0.00094418 [Eh]
    Vibrational E           1.944 [kcal/mol]        8.136 [kJ/mol]       0.00309874 [Eh]
  Correction E              3.426 [kcal/mol]       14.333 [kJ/mol]       0.00545920 [Eh]
  Total E, Electronic energy at  298.15 [K]                           -436.21777789 [Eh]

  Enthalpy, H_trans = E_trans + k_B * T
    Electronic H            0.000 [kcal/mol]        0.000 [kJ/mol]       0.00000000 [Eh]
    Translational H         1.481 [kcal/mol]        6.197 [kJ/mol]       0.00236046 [Eh]
    Rotational H            0.592 [kcal/mol]        2.479 [kJ/mol]       0.00094418 [Eh]
    Vibrational H           1.944 [kcal/mol]        8.136 [kJ/mol]       0.00309874 [Eh]
  Correction H              4.018 [kcal/mol]       16.812 [kJ/mol]       0.00640338 [Eh]
  Total H, Enthalpy at  298.15 [K]                                    -436.21683371 [Eh]

  Gibbs free energy, G = H - T * S
    Electronic G            0.000 [kcal/mol]        0.000 [kJ/mol]       0.00000000 [Eh]
    Translational G        -9.631 [kcal/mol]      -40.294 [kJ/mol]      -0.01534720 [Eh]
    Rotational G           -3.268 [kcal/mol]      -13.672 [kJ/mol]      -0.00520736 [Eh]
    Vibrational G           1.938 [kcal/mol]        8.109 [kJ/mol]       0.00308849 [Eh]
  Correction G            -10.960 [kcal/mol]      -45.857 [kJ/mol]      -0.01746607 [Eh]
  Total G, Free enthalpy at  298.15 [K]                               -436.24070317 [Eh]

    Psi4 stopped on: Tuesday, 27 April 2021 04:47PM
    Psi4 wall time for execution: 0:00:54.82

*** Psi4 exiting successfully. Buy a developer a beer!
