
    -----------------------------------------------------------------------
          Psi4: An Open-Source Ab Initio Electronic Structure Package
                               Psi4 1.3.2 release

                         Git: Rev {HEAD} ecbda83 


    R. M. Parrish, L. A. Burns, D. G. A. Smith, A. C. Simmonett,
    A. E. DePrince III, E. G. Hohenstein, U. Bozkaya, A. Yu. Sokolov,
    R. Di Remigio, R. M. Richard, J. F. Gonthier, A. M. James,
    H. R. McAlexander, A. Kumar, M. Saitow, X. Wang, B. P. Pritchard,
    P. Verma, H. F. Schaefer III, K. Patkowski, R. A. King, E. F. Valeev,
    F. A. Evangelista, J. M. Turney, T. D. Crawford, and C. D. Sherrill,
    J. Chem. Theory Comput. 13(7) pp 3185--3197 (2017).
    (doi: 10.1021/acs.jctc.7b00174)


                         Additional Contributions by
    P. Kraus, H. Kruse, M. H. Lechner, M. C. Schieber, R. A. Shaw,
    A. Alenaizan, R. Galvelis, Z. L. Glick, S. Lehtola, and J. P. Misiewicz

    -----------------------------------------------------------------------


    Psi4 started on: Tuesday, 27 April 2021 04:48PM

    Process ID: 64540
    Host:       bp1-compute00065.data.bp.acrc.priv
    PSIDATADIR: /work/zw18965/.conda/envs/p4env/share/psi4
    Memory:     500.0 MiB
    Threads:    24
    
  ==> Input File <==

--------------------------------------------------------------------------
memory 144 GB

molecule {
0 1
Cl 0.0000000000 0.0000000000 0.0000000000
H 0.0000000000 0.0000000000 1.2756042300
}

set dynamic_level 1
set basis aug-cc-pV(Q+d)Z
 
optimize("wB97M-V")
frequencies("wB97M-V")
--------------------------------------------------------------------------

  Memory set to 134.110 GiB by Python driver.
gradient() will perform gradient computation by finite difference of analytic energies.

         ----------------------------------------------------------
                                   FINDIF
                     R. A. King and Jonathon Misiewicz
         ---------------------------------------------------------

  Using finite-differences of energies to determine gradients.
    Generating geometries for use with 3-point formula.
    Displacement size will be 5.00e-03.
    Number of atoms is 2.
    Number of symmetric SALCs is 1.
    Translations projected? 1. Rotations projected? 1.
    Number of geometries (including reference) is 3.

  //>>>>>>>>>>>>>>>>>>>>>>>>>>>>>>>>>>>//
  //    Loading displacement 1 of 3    //
  //<<<<<<<<<<<<<<<<<<<<<<<<<<<<<<<<<<<//

*** tstart() called on bp1-compute00065.data.bp.acrc.priv
*** at Tue Apr 27 16:48:18 2021

   => Loading Basis Set <=

    Name: AUG-CC-PV(Q+D)Z
    Role: ORBITAL
    Keyword: BASIS
    atoms 1 entry CL         line  1246 file /work/zw18965/.conda/envs/p4env/share/psi4/basis/aug-cc-pv_qpd_z.gbs 
    atoms 2 entry H          line    56 file /work/zw18965/.conda/envs/p4env/share/psi4/basis/aug-cc-pv_qpd_z.gbs 


         ---------------------------------------------------------
                                   SCF
               by Justin Turney, Rob Parrish, Andy Simmonett
                          and Daniel G. A. Smith
                              RKS Reference
                       24 Threads, 137329 MiB Core
         ---------------------------------------------------------

  ==> Geometry <==

    Molecular point group: c2v
    Full point group: C_inf_v

    Geometry (in Angstrom), charge = 0, multiplicity = 1:

       Center              X                  Y                   Z               Mass       
    ------------   -----------------  -----------------  -----------------  -----------------
         CL           0.000000000000     0.000000000000    -0.035733868603    34.968852682000
         H            0.000000000000     0.000000000000     1.239870361397     1.007825032230

  Running in c2v symmetry.

  Rotational constants: A = ************  B =     10.57594  C =     10.57594 [cm^-1]
  Rotational constants: A = ************  B = 317058.81273  C = 317058.81273 [MHz]
  Nuclear repulsion =    7.052353990226264

  Charge       = 0
  Multiplicity = 1
  Electrons    = 18
  Nalpha       = 9
  Nbeta        = 9

  ==> Algorithm <==

  SCF Algorithm Type is DF.
  DIIS enabled.
  MOM disabled.
  Fractional occupation disabled.
  Guess Type is SAD.
  Energy threshold   = 1.00e-08
  Density threshold  = 1.00e-08
  Integral threshold = 0.00e+00

  ==> Primary Basis <==

  Basis Set: AUG-CC-PV(Q+D)Z
    Blend: AUG-CC-PV(Q+D)Z
    Number of shells: 37
    Number of basis function: 135
    Number of Cartesian functions: 170
    Spherical Harmonics?: true
    Max angular momentum: 4

  ==> DFT Potential <==

   => Composite Functional: WB97M-V <= 

    wB97M-V Hyb-GGA Exchange-Correlation Functional

    N. Mardirossian and M. Head-Gordon, J. Chem. Phys. 144, 214110 (2016)

    Deriv               =              1
    GGA                 =           TRUE
    Meta                =           TRUE

    Exchange Hybrid     =           TRUE
    MP2 Hybrid          =          FALSE

   => Exchange-Correlation Functionals <=

    1.0000   wB97M-V exchange-correlation functional

   => Exact (HF) Exchange <=

    0.8500            HF,LR [omega = 0.3000]
    0.1500               HF 

   => VV10 Non-Local Parameters <=

    VV10 B              =     6.0000E+00
    VV10 C              =     1.0000E-02

   => Molecular Quadrature <=

    Radial Scheme          =       TREUTLER
    Pruning Scheme         =           FLAT
    Nuclear Scheme         =       TREUTLER

    BS radius alpha        =              1
    Pruning alpha          =              1
    Radial Points          =             75
    Spherical Points       =            302
    Total Points           =          45300
    Total Blocks           =            422
    Max Points             =            256
    Max Functions          =            135

   => Loading Basis Set <=

    Name: (AUG-CC-PV(Q+D)Z AUX)
    Role: JKFIT
    Keyword: DF_BASIS_SCF
    atoms 1 entry CL         line   904 file /work/zw18965/.conda/envs/p4env/share/psi4/basis/aug-cc-pvqz-jkfit.gbs 
    atoms 2 entry H          line    70 file /work/zw18965/.conda/envs/p4env/share/psi4/basis/aug-cc-pvqz-jkfit.gbs 

  ==> Pre-Iterations <==

   -------------------------------------------------------
    Irrep   Nso     Nmo     Nalpha   Nbeta   Ndocc  Nsocc
   -------------------------------------------------------
     A1        54      54       0       0       0       0
     A2        17      17       0       0       0       0
     B1        32      32       0       0       0       0
     B2        32      32       0       0       0       0
   -------------------------------------------------------
    Total     135     135       9       9       9       0
   -------------------------------------------------------

  ==> Integral Setup <==

  ==> DiskDFJK: Density-Fitted J/K Matrices <==

    J tasked:                  Yes
    K tasked:                  Yes
    wK tasked:                 Yes
    Omega:               3.000E-01
    OpenMP threads:             24
    Integrals threads:          24
    Memory [MiB]:           102573
    Algorithm:                Core
    Integral Cache:           NONE
    Schwarz Cutoff:          1E-12
    Fitting Condition:       1E-10

   => Auxiliary Basis Set <=

  Basis Set: (AUG-CC-PV(Q+D)Z AUX)
    Blend: AUG-CC-PVQZ-JKFIT
    Number of shells: 64
    Number of basis function: 260
    Number of Cartesian functions: 348
    Spherical Harmonics?: true
    Max angular momentum: 5

  Cached 100.0% of DFT collocation blocks in 0.414 [GiB].

  Minimum eigenvalue in the overlap matrix is 9.4596225742E-05.
  Using Symmetric Orthogonalization.

  SCF Guess: Superposition of Atomic Densities via on-the-fly atomic UHF.

  ==> Iterations <==

                           Total Energy        Delta E     RMS |[F,P]|

   @DF-RKS iter SAD:  -460.63931084388696   -4.60639e+02   0.00000e+00 
   @DF-RKS iter   1:  -460.78009684067013   -1.40786e-01   3.19191e-03 DIIS
   @DF-RKS iter   2:  -460.79581942452683   -1.57226e-02   2.01324e-03 DIIS
   @DF-RKS iter   3:  -460.80317855846573   -7.35913e-03   1.17504e-04 DIIS
   @DF-RKS iter   4:  -460.80324718040464   -6.86219e-05   4.14053e-05 DIIS
   @DF-RKS iter   5:  -460.80325492136450   -7.74096e-06   9.56146e-06 DIIS
   @DF-RKS iter   6:  -460.80325530840349   -3.87039e-07   1.81215e-06 DIIS
   @DF-RKS iter   7:  -460.80325532417515   -1.57717e-08   2.66023e-07 DIIS
   @DF-RKS iter   8:  -460.80325532463598   -4.60830e-10   3.38127e-08 DIIS
   @DF-RKS iter   9:  -460.80325532464610   -1.01181e-11   5.34155e-09 DIIS
  Energy and wave function converged.


  ==> Post-Iterations <==

    Orbital Energies [Eh]
    ---------------------

    Doubly Occupied:                                                      

       1A1  -101.900379     2A1    -9.659319     3A1    -7.364048  
       1B2    -7.356398     1B1    -7.356398     4A1    -0.968767  
       5A1    -0.574843     2B2    -0.435848     2B1    -0.435848  

    Virtual:                                                              

       6A1     0.008809     7A1     0.067017     3B2     0.074192  
       3B1     0.074192     8A1     0.089897     9A1     0.136479  
       4B2     0.168732     4B1     0.168732    10A1     0.222330  
       1A2     0.222330    11A1     0.234673     5B1     0.286359  
       5B2     0.286359    12A1     0.303432    13A1     0.384933  
       6B1     0.424826     6B2     0.424826    14A1     0.429213  
       7B2     0.503542     7B1     0.503542    15A1     0.539216  
       2A2     0.539217    16A1     0.618210     3A2     0.618211  
      17A1     0.628731     8B2     0.661064     8B1     0.661064  
      18A1     0.734321     9B1     0.752436     9B2     0.752436  
      19A1     0.851139    10B2     0.860067    10B1     0.860067  
      20A1     0.889947     4A2     0.889949    21A1     1.004796  
      11B2     1.186900    11B1     1.186900    22A1     1.238431  
      23A1     1.401006    12B2     1.401426    12B1     1.401426  
       5A2     1.416038    24A1     1.416038    13B1     1.500582  
      13B2     1.500582    25A1     1.567773    14B2     1.640020  
      14B1     1.640020    26A1     1.735484     6A2     1.735484  
      27A1     1.743125     7A2     1.743126    28A1     1.759697  
      15B2     1.764235    15B1     1.764235    29A1     1.847858  
       8A2     1.847862    16B2     1.883126    16B1     1.883126  
      17B2     1.945529    17B1     1.945529    18B1     1.964214  
      18B2     1.964214    30A1     1.988223     9A2     1.993123  
      31A1     1.993123    19B2     2.334976    19B1     2.334976  
      32A1     2.365372    33A1     2.597745    34A1     2.864997  
      20B2     2.956738    20B1     2.956738    35A1     2.973560  
      10A2     2.973571    36A1     3.183724    21B2     3.305075  
      21B1     3.305075    37A1     3.476981    11A2     3.476988  
      38A1     3.664877    22B2     3.888707    22B1     3.888707  
      39A1     3.929957    12A2     4.330101    40A1     4.330105  
      23B2     4.373174    23B1     4.373174    24B1     4.411646  
      24B2     4.411646    41A1     4.411972    13A2     4.411979  
      25B1     4.427839    25B2     4.427839    14A2     4.535874  
      42A1     4.535884    43A1     4.715339    26B2     4.986364  
      26B1     4.986364    44A1     5.002272    27B1     5.892839  
      27B2     5.892839    28B2     6.322444    28B1     6.322444  
      45A1     6.776704    15A2     6.776705    46A1     6.904093  
      29B1     7.304200    29B2     7.304200    47A1     7.436422  
      48A1     7.876844    49A1     8.327869    16A2     8.327937  
      30B1     8.451666    30B2     8.451666    31B2     8.994536  
      31B1     8.994536    50A1     9.280812    51A1    10.589073  
      52A1    10.840273    17A2    10.840284    32B2    11.056717  
      32B1    11.056717    53A1    11.770899    54A1    25.312446  

    Final Occupation by Irrep:
             A1    A2    B1    B2 
    DOCC [     5,    0,    2,    2 ]

  @DF-RKS Final Energy:  -460.80325532464610

   => Energetics <=

    Nuclear Repulsion Energy =              7.0523539902262637
    One-Electron Energy =                -649.8638338910325274
    Two-Electron Energy =                 203.9387826326658626
    DFT Exchange-Correlation Energy =     -22.0069513165492197
    Empirical Dispersion Energy =           0.0000000000000000
    VV10 Nonlocal Energy =                  0.0763932600435006
    Total Energy =                       -460.8032553246461589

Computation Completed


Properties will be evaluated at   0.000000,   0.000000,   0.000000 [a0]

Properties computed using the SCF density matrix

  Nuclear Dipole Moment: [e a0]
     X:     0.0000      Y:     0.0000      Z:     1.1951

  Electronic Dipole Moment: [e a0]
     X:     0.0000      Y:     0.0000      Z:    -0.7621

  Dipole Moment: [e a0]
     X:     0.0000      Y:     0.0000      Z:     0.4329     Total:     0.4329

  Dipole Moment: [D]
     X:     0.0000      Y:     0.0000      Z:     1.1004     Total:     1.1004


*** tstop() called on bp1-compute00065.data.bp.acrc.priv at Tue Apr 27 16:48:21 2021
Module time:
	user time   =      71.26 seconds =       1.19 minutes
	system time =       3.73 seconds =       0.06 minutes
	total time  =          3 seconds =       0.05 minutes
Total time:
	user time   =      71.26 seconds =       1.19 minutes
	system time =       3.73 seconds =       0.06 minutes
	total time  =          3 seconds =       0.05 minutes

  //>>>>>>>>>>>>>>>>>>>>>>>>>>>>>>>>>>>//
  //    Loading displacement 2 of 3    //
  //<<<<<<<<<<<<<<<<<<<<<<<<<<<<<<<<<<<//

*** tstart() called on bp1-compute00065.data.bp.acrc.priv
*** at Tue Apr 27 16:48:21 2021

   => Loading Basis Set <=

    Name: AUG-CC-PV(Q+D)Z
    Role: ORBITAL
    Keyword: BASIS
    atoms 1 entry CL         line  1246 file /work/zw18965/.conda/envs/p4env/share/psi4/basis/aug-cc-pv_qpd_z.gbs 
    atoms 2 entry H          line    56 file /work/zw18965/.conda/envs/p4env/share/psi4/basis/aug-cc-pv_qpd_z.gbs 


         ---------------------------------------------------------
                                   SCF
               by Justin Turney, Rob Parrish, Andy Simmonett
                          and Daniel G. A. Smith
                              RKS Reference
                       24 Threads, 137329 MiB Core
         ---------------------------------------------------------

  ==> Geometry <==

    Molecular point group: c2v
    Full point group: C_inf_v

    Geometry (in Angstrom), charge = 0, multiplicity = 1:

       Center              X                  Y                   Z               Mass       
    ------------   -----------------  -----------------  -----------------  -----------------
         CL           0.000000000000     0.000000000000    -0.035808756647    34.968852682000
         H            0.000000000000     0.000000000000     1.242468777688     1.007825032230

  Running in c2v symmetry.

  Rotational constants: A = ************  B =     10.53175  C =     10.53175 [cm^-1]
  Rotational constants: A = ************  B = 315734.04815  C = 315734.04815 [MHz]
  Nuclear repulsion =    7.037605167698158

  Charge       = 0
  Multiplicity = 1
  Electrons    = 18
  Nalpha       = 9
  Nbeta        = 9

  ==> Algorithm <==

  SCF Algorithm Type is DF.
  DIIS enabled.
  MOM disabled.
  Fractional occupation disabled.
  Guess Type is SAD.
  Energy threshold   = 1.00e-08
  Density threshold  = 1.00e-08
  Integral threshold = 0.00e+00

  ==> Primary Basis <==

  Basis Set: AUG-CC-PV(Q+D)Z
    Blend: AUG-CC-PV(Q+D)Z
    Number of shells: 37
    Number of basis function: 135
    Number of Cartesian functions: 170
    Spherical Harmonics?: true
    Max angular momentum: 4

  ==> DFT Potential <==

   => Composite Functional: WB97M-V <= 

    wB97M-V Hyb-GGA Exchange-Correlation Functional

    N. Mardirossian and M. Head-Gordon, J. Chem. Phys. 144, 214110 (2016)

    Deriv               =              1
    GGA                 =           TRUE
    Meta                =           TRUE

    Exchange Hybrid     =           TRUE
    MP2 Hybrid          =          FALSE

   => Exchange-Correlation Functionals <=

    1.0000   wB97M-V exchange-correlation functional

   => Exact (HF) Exchange <=

    0.8500            HF,LR [omega = 0.3000]
    0.1500               HF 

   => VV10 Non-Local Parameters <=

    VV10 B              =     6.0000E+00
    VV10 C              =     1.0000E-02

   => Molecular Quadrature <=

    Radial Scheme          =       TREUTLER
    Pruning Scheme         =           FLAT
    Nuclear Scheme         =       TREUTLER

    BS radius alpha        =              1
    Pruning alpha          =              1
    Radial Points          =             75
    Spherical Points       =            302
    Total Points           =          45300
    Total Blocks           =            422
    Max Points             =            256
    Max Functions          =            135

   => Loading Basis Set <=

    Name: (AUG-CC-PV(Q+D)Z AUX)
    Role: JKFIT
    Keyword: DF_BASIS_SCF
    atoms 1 entry CL         line   904 file /work/zw18965/.conda/envs/p4env/share/psi4/basis/aug-cc-pvqz-jkfit.gbs 
    atoms 2 entry H          line    70 file /work/zw18965/.conda/envs/p4env/share/psi4/basis/aug-cc-pvqz-jkfit.gbs 

  ==> Pre-Iterations <==

   -------------------------------------------------------
    Irrep   Nso     Nmo     Nalpha   Nbeta   Ndocc  Nsocc
   -------------------------------------------------------
     A1        54      54       0       0       0       0
     A2        17      17       0       0       0       0
     B1        32      32       0       0       0       0
     B2        32      32       0       0       0       0
   -------------------------------------------------------
    Total     135     135       9       9       9       0
   -------------------------------------------------------

  ==> Integral Setup <==

  ==> DiskDFJK: Density-Fitted J/K Matrices <==

    J tasked:                  Yes
    K tasked:                  Yes
    wK tasked:                 Yes
    Omega:               3.000E-01
    OpenMP threads:             24
    Integrals threads:          24
    Memory [MiB]:           102573
    Algorithm:                Core
    Integral Cache:           NONE
    Schwarz Cutoff:          1E-12
    Fitting Condition:       1E-10

   => Auxiliary Basis Set <=

  Basis Set: (AUG-CC-PV(Q+D)Z AUX)
    Blend: AUG-CC-PVQZ-JKFIT
    Number of shells: 64
    Number of basis function: 260
    Number of Cartesian functions: 348
    Spherical Harmonics?: true
    Max angular momentum: 5

  Cached 100.0% of DFT collocation blocks in 0.414 [GiB].

  Minimum eigenvalue in the overlap matrix is 9.5230740765E-05.
  Using Symmetric Orthogonalization.

  SCF Guess: Superposition of Atomic Densities via on-the-fly atomic UHF.

  ==> Iterations <==

                           Total Energy        Delta E     RMS |[F,P]|

   @DF-RKS iter SAD:  -460.63786837895981   -4.60638e+02   0.00000e+00 
   @DF-RKS iter   1:  -460.78001156562277   -1.42143e-01   3.19423e-03 DIIS
   @DF-RKS iter   2:  -460.79576263874969   -1.57511e-02   2.01884e-03 DIIS
   @DF-RKS iter   3:  -460.80317884029199   -7.41620e-03   1.17565e-04 DIIS
   @DF-RKS iter   4:  -460.80324747362084   -6.86333e-05   4.13912e-05 DIIS
   @DF-RKS iter   5:  -460.80325523595837   -7.76234e-06   9.58334e-06 DIIS
   @DF-RKS iter   6:  -460.80325562573552   -3.89777e-07   1.82094e-06 DIIS
   @DF-RKS iter   7:  -460.80325564165003   -1.59145e-08   2.66776e-07 DIIS
   @DF-RKS iter   8:  -460.80325564211313   -4.63103e-10   3.39851e-08 DIIS
   @DF-RKS iter   9:  -460.80325564212433   -1.11982e-11   5.36499e-09 DIIS
  Energy and wave function converged.


  ==> Post-Iterations <==

    Orbital Energies [Eh]
    ---------------------

    Doubly Occupied:                                                      

       1A1  -101.900508     2A1    -9.659379     3A1    -7.364118  
       1B2    -7.356459     1B1    -7.356459     4A1    -0.968347  
       5A1    -0.574434     2B2    -0.435778     2B1    -0.435778  

    Virtual:                                                              

       6A1     0.008728     7A1     0.067040     3B1     0.074206  
       3B2     0.074206     8A1     0.089452     9A1     0.136436  
       4B1     0.168689     4B2     0.168689    10A1     0.222359  
       1A2     0.222359    11A1     0.234489     5B1     0.286331  
       5B2     0.286331    12A1     0.303222    13A1     0.384882  
       6B1     0.424778     6B2     0.424778    14A1     0.429441  
       7B1     0.503686     7B2     0.503686    15A1     0.539344  
       2A2     0.539345    16A1     0.618164     3A2     0.618165  
      17A1     0.628453     8B1     0.660777     8B2     0.660777  
      18A1     0.733646     9B2     0.752469     9B1     0.752469  
      19A1     0.850891    10B1     0.859869    10B2     0.859869  
      20A1     0.889813     4A2     0.889815    21A1     1.004914  
      11B1     1.186317    11B2     1.186317    22A1     1.237792  
      23A1     1.400453    12B1     1.401463    12B2     1.401463  
       5A2     1.416063    24A1     1.416064    13B2     1.500096  
      13B1     1.500096    25A1     1.567968    14B1     1.640509  
      14B2     1.640509    26A1     1.735531     6A2     1.735532  
      27A1     1.744564     7A2     1.744565    28A1     1.758119  
      15B1     1.763633    15B2     1.763633    29A1     1.847014  
       8A2     1.847018    16B2     1.883204    16B1     1.883204  
      17B2     1.944922    17B1     1.944922    18B1     1.963516  
      18B2     1.963516    30A1     1.988640     9A2     1.992836  
      31A1     1.992836    19B1     2.333536    19B2     2.333536  
      32A1     2.366247    33A1     2.594548    34A1     2.862206  
      20B1     2.954362    20B2     2.954362    35A1     2.970079  
      10A2     2.970090    36A1     3.183241    21B1     3.304701  
      21B2     3.304701    37A1     3.476415    11A2     3.476422  
      38A1     3.666753    22B1     3.888332    22B2     3.888332  
      39A1     3.926265    12A2     4.330593    40A1     4.330597  
      23B2     4.373191    23B1     4.373191    24B1     4.410149  
      24B2     4.410149    41A1     4.412014    13A2     4.412021  
      25B1     4.428032    25B2     4.428032    14A2     4.534852  
      42A1     4.534862    43A1     4.714739    26B1     4.984339  
      26B2     4.984339    44A1     5.000001    27B2     5.889675  
      27B1     5.889675    28B1     6.321637    28B2     6.321637  
      45A1     6.772326    15A2     6.772326    46A1     6.895899  
      29B2     7.299585    29B1     7.299585    47A1     7.441730  
      48A1     7.867795    49A1     8.324237    16A2     8.324308  
      30B2     8.442405    30B1     8.442405    31B1     8.992806  
      31B2     8.992806    50A1     9.278406    51A1    10.581760  
      52A1    10.840116    17A2    10.840127    32B1    11.056275  
      32B2    11.056275    53A1    11.756544    54A1    25.284750  

    Final Occupation by Irrep:
             A1    A2    B1    B2 
    DOCC [     5,    0,    2,    2 ]

  @DF-RKS Final Energy:  -460.80325564212433

   => Energetics <=

    Nuclear Repulsion Energy =              7.0376051676981577
    One-Electron Energy =                -649.8359451598362284
    Two-Electron Energy =                 203.9249042872188227
    DFT Exchange-Correlation Energy =     -22.0062122492403809
    Empirical Dispersion Energy =           0.0000000000000000
    VV10 Nonlocal Energy =                  0.0763923120352743
    Total Energy =                       -460.8032556421242703

Computation Completed


Properties will be evaluated at   0.000000,   0.000000,   0.000000 [a0]

Properties computed using the SCF density matrix

  Nuclear Dipole Moment: [e a0]
     X:     0.0000      Y:     0.0000      Z:     1.1976

  Electronic Dipole Moment: [e a0]
     X:     0.0000      Y:     0.0000      Z:    -0.7635

  Dipole Moment: [e a0]
     X:     0.0000      Y:     0.0000      Z:     0.4340     Total:     0.4340

  Dipole Moment: [D]
     X:     0.0000      Y:     0.0000      Z:     1.1032     Total:     1.1032


*** tstop() called on bp1-compute00065.data.bp.acrc.priv at Tue Apr 27 16:48:25 2021
Module time:
	user time   =      77.67 seconds =       1.29 minutes
	system time =       3.00 seconds =       0.05 minutes
	total time  =          4 seconds =       0.07 minutes
Total time:
	user time   =     149.10 seconds =       2.48 minutes
	system time =       6.74 seconds =       0.11 minutes
	total time  =          7 seconds =       0.12 minutes

  //>>>>>>>>>>>>>>>>>>>>>>>>>>>>>>>>>>>//
  //    Loading displacement 3 of 3    //
  //<<<<<<<<<<<<<<<<<<<<<<<<<<<<<<<<<<<//

*** tstart() called on bp1-compute00065.data.bp.acrc.priv
*** at Tue Apr 27 16:48:25 2021

   => Loading Basis Set <=

    Name: AUG-CC-PV(Q+D)Z
    Role: ORBITAL
    Keyword: BASIS
    atoms 1 entry CL         line  1246 file /work/zw18965/.conda/envs/p4env/share/psi4/basis/aug-cc-pv_qpd_z.gbs 
    atoms 2 entry H          line    56 file /work/zw18965/.conda/envs/p4env/share/psi4/basis/aug-cc-pv_qpd_z.gbs 


         ---------------------------------------------------------
                                   SCF
               by Justin Turney, Rob Parrish, Andy Simmonett
                          and Daniel G. A. Smith
                              RKS Reference
                       24 Threads, 137329 MiB Core
         ---------------------------------------------------------

  ==> Geometry <==

    Molecular point group: c2v
    Full point group: C_inf_v

    Geometry (in Angstrom), charge = 0, multiplicity = 1:

       Center              X                  Y                   Z               Mass       
    ------------   -----------------  -----------------  -----------------  -----------------
         CL           0.000000000000     0.000000000000    -0.035658980559    34.968852682000
         H            0.000000000000     0.000000000000     1.237271945106     1.007825032230

  Running in c2v symmetry.

  Rotational constants: A = ************  B =     10.62041  C =     10.62041 [cm^-1]
  Rotational constants: A = ************  B = 318391.93255  C = 318391.93255 [MHz]
  Nuclear repulsion =    7.067164761270836

  Charge       = 0
  Multiplicity = 1
  Electrons    = 18
  Nalpha       = 9
  Nbeta        = 9

  ==> Algorithm <==

  SCF Algorithm Type is DF.
  DIIS enabled.
  MOM disabled.
  Fractional occupation disabled.
  Guess Type is SAD.
  Energy threshold   = 1.00e-08
  Density threshold  = 1.00e-08
  Integral threshold = 0.00e+00

  ==> Primary Basis <==

  Basis Set: AUG-CC-PV(Q+D)Z
    Blend: AUG-CC-PV(Q+D)Z
    Number of shells: 37
    Number of basis function: 135
    Number of Cartesian functions: 170
    Spherical Harmonics?: true
    Max angular momentum: 4

  ==> DFT Potential <==

   => Composite Functional: WB97M-V <= 

    wB97M-V Hyb-GGA Exchange-Correlation Functional

    N. Mardirossian and M. Head-Gordon, J. Chem. Phys. 144, 214110 (2016)

    Deriv               =              1
    GGA                 =           TRUE
    Meta                =           TRUE

    Exchange Hybrid     =           TRUE
    MP2 Hybrid          =          FALSE

   => Exchange-Correlation Functionals <=

    1.0000   wB97M-V exchange-correlation functional

   => Exact (HF) Exchange <=

    0.8500            HF,LR [omega = 0.3000]
    0.1500               HF 

   => VV10 Non-Local Parameters <=

    VV10 B              =     6.0000E+00
    VV10 C              =     1.0000E-02

   => Molecular Quadrature <=

    Radial Scheme          =       TREUTLER
    Pruning Scheme         =           FLAT
    Nuclear Scheme         =       TREUTLER

    BS radius alpha        =              1
    Pruning alpha          =              1
    Radial Points          =             75
    Spherical Points       =            302
    Total Points           =          45300
    Total Blocks           =            422
    Max Points             =            256
    Max Functions          =            135

   => Loading Basis Set <=

    Name: (AUG-CC-PV(Q+D)Z AUX)
    Role: JKFIT
    Keyword: DF_BASIS_SCF
    atoms 1 entry CL         line   904 file /work/zw18965/.conda/envs/p4env/share/psi4/basis/aug-cc-pvqz-jkfit.gbs 
    atoms 2 entry H          line    70 file /work/zw18965/.conda/envs/p4env/share/psi4/basis/aug-cc-pvqz-jkfit.gbs 

  ==> Pre-Iterations <==

   -------------------------------------------------------
    Irrep   Nso     Nmo     Nalpha   Nbeta   Ndocc  Nsocc
   -------------------------------------------------------
     A1        54      54       0       0       0       0
     A2        17      17       0       0       0       0
     B1        32      32       0       0       0       0
     B2        32      32       0       0       0       0
   -------------------------------------------------------
    Total     135     135       9       9       9       0
   -------------------------------------------------------

  ==> Integral Setup <==

  ==> DiskDFJK: Density-Fitted J/K Matrices <==

    J tasked:                  Yes
    K tasked:                  Yes
    wK tasked:                 Yes
    Omega:               3.000E-01
    OpenMP threads:             24
    Integrals threads:          24
    Memory [MiB]:           102573
    Algorithm:                Core
    Integral Cache:           NONE
    Schwarz Cutoff:          1E-12
    Fitting Condition:       1E-10

   => Auxiliary Basis Set <=

  Basis Set: (AUG-CC-PV(Q+D)Z AUX)
    Blend: AUG-CC-PVQZ-JKFIT
    Number of shells: 64
    Number of basis function: 260
    Number of Cartesian functions: 348
    Spherical Harmonics?: true
    Max angular momentum: 5

  Cached 100.0% of DFT collocation blocks in 0.414 [GiB].

  Minimum eigenvalue in the overlap matrix is 9.3964742916E-05.
  Using Symmetric Orthogonalization.

  SCF Guess: Superposition of Atomic Densities via on-the-fly atomic UHF.

  ==> Iterations <==

                           Total Energy        Delta E     RMS |[F,P]|

   @DF-RKS iter SAD:  -460.64075475066596   -4.60641e+02   0.00000e+00 
   @DF-RKS iter   1:  -460.78017261425083   -1.39418e-01   3.18964e-03 DIIS
   @DF-RKS iter   2:  -460.79586713191242   -1.56945e-02   2.00769e-03 DIIS
   @DF-RKS iter   3:  -460.80316973324722   -7.30260e-03   1.17444e-04 DIIS
   @DF-RKS iter   4:  -460.80323834796877   -6.86147e-05   4.14199e-05 DIIS
   @DF-RKS iter   5:  -460.80324606752936   -7.71956e-06   9.53958e-06 DIIS
   @DF-RKS iter   6:  -460.80324645183703   -3.84308e-07   1.80340e-06 DIIS
   @DF-RKS iter   7:  -460.80324646746897   -1.56319e-08   2.65263e-07 DIIS
   @DF-RKS iter   8:  -460.80324646792468   -4.55714e-10   3.36411e-08 DIIS
   @DF-RKS iter   9:  -460.80324646793588   -1.11982e-11   5.31818e-09 DIIS
  Energy and wave function converged.


  ==> Post-Iterations <==

    Orbital Energies [Eh]
    ---------------------

    Doubly Occupied:                                                      

       1A1  -101.900249     2A1    -9.659259     3A1    -7.363977  
       1B1    -7.356335     1B2    -7.356335     4A1    -0.969189  
       5A1    -0.575253     2B2    -0.435918     2B1    -0.435918  

    Virtual:                                                              

       6A1     0.008889     7A1     0.066994     3B2     0.074177  
       3B1     0.074177     8A1     0.090339     9A1     0.136524  
       4B2     0.168775     4B1     0.168775    10A1     0.222301  
       1A2     0.222302    11A1     0.234856     5B2     0.286388  
       5B1     0.286388    12A1     0.303645    13A1     0.384985  
       6B2     0.424875     6B1     0.424875    14A1     0.428987  
       7B1     0.503398     7B2     0.503398    15A1     0.539087  
       2A2     0.539088    16A1     0.618255     3A2     0.618256  
      17A1     0.629010     8B2     0.661351     8B1     0.661351  
      18A1     0.734999     9B2     0.752404     9B1     0.752404  
      19A1     0.851384    10B1     0.860262    10B2     0.860262  
      20A1     0.890081     4A2     0.890084    21A1     1.004677  
      11B2     1.187479    11B1     1.187479    22A1     1.239073  
      12B2     1.401393    12B1     1.401393    23A1     1.401559  
       5A2     1.416013    24A1     1.416013    13B2     1.501069  
      13B1     1.501069    25A1     1.567591    14B2     1.639524  
      14B1     1.639524    26A1     1.735436     6A2     1.735436  
      27A1     1.741662     7A2     1.741663    28A1     1.761283  
      15B1     1.764844    15B2     1.764844    29A1     1.848732  
       8A2     1.848736    16B1     1.883047    16B2     1.883047  
      17B1     1.946133    17B2     1.946133    18B1     1.964913  
      18B2     1.964913    30A1     1.987800     9A2     1.993412  
      31A1     1.993413    19B2     2.336416    19B1     2.336416  
      32A1     2.364485    33A1     2.600953    34A1     2.867783  
      20B2     2.959115    20B1     2.959115    35A1     2.977031  
      10A2     2.977042    36A1     3.184220    21B2     3.305454  
      21B1     3.305454    37A1     3.477559    11A2     3.477565  
      38A1     3.662873    22B2     3.889058    22B1     3.889058  
      39A1     3.933807    12A2     4.329625    40A1     4.329627  
      23B1     4.373157    23B2     4.373157    41A1     4.411931  
      13A2     4.411937    24B1     4.413156    24B2     4.413156  
      25B2     4.427644    25B1     4.427644    14A2     4.536902  
      42A1     4.536912    43A1     4.715930    26B1     4.988366  
      26B2     4.988366    44A1     5.004583    27B2     5.896076  
      27B1     5.896076    28B1     6.323261    28B2     6.323261  
      45A1     6.781097    15A2     6.781099    46A1     6.912170  
      29B1     7.308778    29B2     7.308778    47A1     7.431157  
      48A1     7.885995    49A1     8.331519    16A2     8.331585  
      30B2     8.460994    30B1     8.460994    31B2     8.996238  
      31B1     8.996238    50A1     9.283284    51A1    10.596127  
      52A1    10.840434    17A2    10.840444    32B1    11.057174  
      32B2    11.057174    53A1    11.785440    54A1    25.340658  

    Final Occupation by Irrep:
             A1    A2    B1    B2 
    DOCC [     5,    0,    2,    2 ]

  @DF-RKS Final Energy:  -460.80324646793588

   => Energetics <=

    Nuclear Repulsion Energy =              7.0671647612708357
    One-Electron Energy =                -649.8918279649965370
    Two-Electron Energy =                 203.9527165373783646
    DFT Exchange-Correlation Energy =     -22.0076940152493030
    Empirical Dispersion Energy =           0.0000000000000000
    VV10 Nonlocal Energy =                  0.0763942136607772
    Total Energy =                       -460.8032464679358213

Computation Completed


Properties will be evaluated at   0.000000,   0.000000,   0.000000 [a0]

Properties computed using the SCF density matrix

  Nuclear Dipole Moment: [e a0]
     X:     0.0000      Y:     0.0000      Z:     1.1925

  Electronic Dipole Moment: [e a0]
     X:     0.0000      Y:     0.0000      Z:    -0.7607

  Dipole Moment: [e a0]
     X:     0.0000      Y:     0.0000      Z:     0.4318     Total:     0.4318

  Dipole Moment: [D]
     X:     0.0000      Y:     0.0000      Z:     1.0976     Total:     1.0976


*** tstop() called on bp1-compute00065.data.bp.acrc.priv at Tue Apr 27 16:48:28 2021
Module time:
	user time   =      70.74 seconds =       1.18 minutes
	system time =       2.36 seconds =       0.04 minutes
	total time  =          3 seconds =       0.05 minutes
Total time:
	user time   =     219.98 seconds =       3.67 minutes
	system time =       9.10 seconds =       0.15 minutes
	total time  =         10 seconds =       0.17 minutes

         ----------------------------------------------------------
                                   FINDIF
                     R. A. King and Jonathon Misiewicz
         ---------------------------------------------------------

  Computing gradient from energies.
    Using 3-point formula.
    Energy without displacement: -460.8032553246
    Check energies below for precision!
    Forces are for mass-weighted, symmetry-adapted cartesians (in au).

     Coord      Energy(-1)        Energy(+1)            Force
        0   -460.8032556421   -460.8032464679      0.0009174188


-------------------------------------------------------------
  ## New Matrix (Symmetry 0) ##
  Irrep: 1 Size: 2 x 3

                 1                   2                   3

    1     0.00000000000000     0.00000000000000     0.00090800949776
    2     0.00000000000000     0.00000000000000    -0.00090800949776




			-----------------------------------------
			 OPTKING 2.0: for geometry optimizations 
			  - R.A. King,  Bethel University        
			-----------------------------------------
	At level 1: Red. Int., RFO, no backsteps, dynamic trust

	Internal coordinates to be generated automatically.
	Detected frag 1 with atoms:  1 2
	---Fragment 1 Bond Connectivity---
	 1 : 2
	 2 : 1

	---Fragment 1 Geometry and Gradient---
	 CL          0.0000000000        0.0000000000       -0.0675272251
	 H           0.0000000000        0.0000000000        2.3430154141
	             0.0000000000        0.0000000000        0.0009080095
	             0.0000000000        0.0000000000       -0.0009080095

	Previous optimization step data not found.  Starting new optimization.

	---Fragment 1 Intrafragment Coordinates---
	 - Coordinate -           - BOHR/RAD -       - ANG/DEG -
	 R(1,2)           =         2.410543	       1.275604

	Current energy   :      -460.8032553246

	Generating empirical Hessian (Schlegel '84) for each fragment.
	Taking RFO optimization step.
	Going to follow RFO solution 1.
	Using RFO vector 1.
	Norm of target step-size    0.00281
	Projected energy change by RFO approximation:         0.0000013947

	Back-transformation to cartesian coordinates...
	Successfully converged to displaced geometry.

	--- Internal Coordinate Step in ANG or DEG, aJ/ANG or AJ/DEG ---
	 ---------------------------------------------------------------------------
	   Coordinate                Previous        Force       Change         New 
	   ----------                --------       ------       ------       ------
	    1 R(1,2)          =      1.275604     0.007481     0.001486     1.277091
	 ---------------------------------------------------------------------------
	Successfully symmetrized geometry.

  ==> Convergence Check <==

  Measures of convergence in internal coordinates in au.
  Criteria marked as inactive (o), active & met (*), and active & unmet ( ).
  --------------------------------------------------------------------------------------------- ~
   Step     Total Energy     Delta E     MAX Force     RMS Force      MAX Disp      RMS Disp    ~
  --------------------------------------------------------------------------------------------- ~
    Convergence Criteria    1.00e-06 *    3.00e-04 *             o    1.20e-03 *             o  ~
  --------------------------------------------------------------------------------------------- ~
      1    -460.80325532   -4.61e+02      9.08e-04      9.08e-04 o    2.81e-03      2.81e-03 o  ~
  ---------------------------------------------------------------------------------------------

	Writing optimization data to binary file.
	Structure for next step:
	Cartesian Geometry (in Angstrom)
	   CL     0.0000000000   0.0000000000  -0.0364771051
	    H     0.0000000000   0.0000000000   1.2406135931
			--------------------------
			 OPTKING Finished Execution 
			--------------------------

    Structure for next step:
    Molecular point group: c2v
    Full point group: C_inf_v

    Geometry (in Angstrom), charge = 0, multiplicity = 1:

    CL           0.000000000000     0.000000000000    -0.035775509605
    H            0.000000000000     0.000000000000     1.241315193600

gradient() will perform gradient computation by finite difference of analytic energies.

         ----------------------------------------------------------
                                   FINDIF
                     R. A. King and Jonathon Misiewicz
         ---------------------------------------------------------

  Using finite-differences of energies to determine gradients.
    Generating geometries for use with 3-point formula.
    Displacement size will be 5.00e-03.
    Number of atoms is 2.
    Number of symmetric SALCs is 1.
    Translations projected? 1. Rotations projected? 1.
    Number of geometries (including reference) is 3.

  //>>>>>>>>>>>>>>>>>>>>>>>>>>>>>>>>>>>//
  //    Loading displacement 1 of 3    //
  //<<<<<<<<<<<<<<<<<<<<<<<<<<<<<<<<<<<//

*** tstart() called on bp1-compute00065.data.bp.acrc.priv
*** at Tue Apr 27 16:48:28 2021

   => Loading Basis Set <=

    Name: AUG-CC-PV(Q+D)Z
    Role: ORBITAL
    Keyword: BASIS
    atoms 1 entry CL         line  1246 file /work/zw18965/.conda/envs/p4env/share/psi4/basis/aug-cc-pv_qpd_z.gbs 
    atoms 2 entry H          line    56 file /work/zw18965/.conda/envs/p4env/share/psi4/basis/aug-cc-pv_qpd_z.gbs 


         ---------------------------------------------------------
                                   SCF
               by Justin Turney, Rob Parrish, Andy Simmonett
                          and Daniel G. A. Smith
                              RKS Reference
                       24 Threads, 137329 MiB Core
         ---------------------------------------------------------

  ==> Geometry <==

    Molecular point group: c2v
    Full point group: C_inf_v

    Geometry (in Angstrom), charge = 0, multiplicity = 1:

       Center              X                  Y                   Z               Mass       
    ------------   -----------------  -----------------  -----------------  -----------------
         CL           0.000000000000     0.000000000000    -0.035775509605    34.968852682000
         H            0.000000000000     0.000000000000     1.241315193600     1.007825032230

  Running in c2v symmetry.

  Rotational constants: A = ************  B =     10.55134  C =     10.55134 [cm^-1]
  Rotational constants: A = ************  B = 316321.15934  C = 316321.15934 [MHz]
  Nuclear repulsion =    7.044145383579063

  Charge       = 0
  Multiplicity = 1
  Electrons    = 18
  Nalpha       = 9
  Nbeta        = 9

  ==> Algorithm <==

  SCF Algorithm Type is DF.
  DIIS enabled.
  MOM disabled.
  Fractional occupation disabled.
  Guess Type is READ.
  Energy threshold   = 1.00e-08
  Density threshold  = 1.00e-08
  Integral threshold = 0.00e+00

  ==> Primary Basis <==

  Basis Set: AUG-CC-PV(Q+D)Z
    Blend: AUG-CC-PV(Q+D)Z
    Number of shells: 37
    Number of basis function: 135
    Number of Cartesian functions: 170
    Spherical Harmonics?: true
    Max angular momentum: 4

  ==> DFT Potential <==

   => Composite Functional: WB97M-V <= 

    wB97M-V Hyb-GGA Exchange-Correlation Functional

    N. Mardirossian and M. Head-Gordon, J. Chem. Phys. 144, 214110 (2016)

    Deriv               =              1
    GGA                 =           TRUE
    Meta                =           TRUE

    Exchange Hybrid     =           TRUE
    MP2 Hybrid          =          FALSE

   => Exchange-Correlation Functionals <=

    1.0000   wB97M-V exchange-correlation functional

   => Exact (HF) Exchange <=

    0.8500            HF,LR [omega = 0.3000]
    0.1500               HF 

   => VV10 Non-Local Parameters <=

    VV10 B              =     6.0000E+00
    VV10 C              =     1.0000E-02

   => Molecular Quadrature <=

    Radial Scheme          =       TREUTLER
    Pruning Scheme         =           FLAT
    Nuclear Scheme         =       TREUTLER

    BS radius alpha        =              1
    Pruning alpha          =              1
    Radial Points          =             75
    Spherical Points       =            302
    Total Points           =          45300
    Total Blocks           =            422
    Max Points             =            256
    Max Functions          =            135

   => Loading Basis Set <=

    Name: (AUG-CC-PV(Q+D)Z AUX)
    Role: JKFIT
    Keyword: DF_BASIS_SCF
    atoms 1 entry CL         line   904 file /work/zw18965/.conda/envs/p4env/share/psi4/basis/aug-cc-pvqz-jkfit.gbs 
    atoms 2 entry H          line    70 file /work/zw18965/.conda/envs/p4env/share/psi4/basis/aug-cc-pvqz-jkfit.gbs 

   => Loading Basis Set <=

    Name: AUG-CC-PV(Q+D)Z
    Role: ORBITAL
    Keyword: BASIS
    atoms 1 entry CL         line  1246 file /work/zw18965/.conda/envs/p4env/share/psi4/basis/aug-cc-pv_qpd_z.gbs 
    atoms 2 entry H          line    56 file /work/zw18965/.conda/envs/p4env/share/psi4/basis/aug-cc-pv_qpd_z.gbs 

  Reading orbitals from file 180, no projection.

  ==> Pre-Iterations <==

   -------------------------------------------------------
    Irrep   Nso     Nmo     Nalpha   Nbeta   Ndocc  Nsocc
   -------------------------------------------------------
     A1        54      54       0       0       0       0
     A2        17      17       0       0       0       0
     B1        32      32       0       0       0       0
     B2        32      32       0       0       0       0
   -------------------------------------------------------
    Total     135     135       9       9       9       0
   -------------------------------------------------------

  ==> Integral Setup <==

  ==> DiskDFJK: Density-Fitted J/K Matrices <==

    J tasked:                  Yes
    K tasked:                  Yes
    wK tasked:                 Yes
    Omega:               3.000E-01
    OpenMP threads:             24
    Integrals threads:          24
    Memory [MiB]:           102573
    Algorithm:                Core
    Integral Cache:           NONE
    Schwarz Cutoff:          1E-12
    Fitting Condition:       1E-10

   => Auxiliary Basis Set <=

  Basis Set: (AUG-CC-PV(Q+D)Z AUX)
    Blend: AUG-CC-PVQZ-JKFIT
    Number of shells: 64
    Number of basis function: 260
    Number of Cartesian functions: 348
    Spherical Harmonics?: true
    Max angular momentum: 5

  Cached 100.0% of DFT collocation blocks in 0.413 [GiB].

  Minimum eigenvalue in the overlap matrix is 9.4948667519E-05.
  Using Symmetric Orthogonalization.

  SCF Guess: Orbitals guess was supplied from a previous computation.

  ==> Iterations <==

                           Total Energy        Delta E     RMS |[F,P]|

   @DF-RKS iter   0:  -460.80247308720658   -4.60802e+02   4.22699e-05 
   @DF-RKS iter   1:  -460.80325644054528   -7.83353e-04   6.18940e-06 DIIS
   @DF-RKS iter   2:  -460.80325652263377   -8.20885e-08   3.91686e-06 DIIS
   @DF-RKS iter   3:  -460.80325654682406   -2.41903e-08   2.95771e-07 DIIS
   @DF-RKS iter   4:  -460.80325654711402   -2.89958e-10   7.34203e-08 DIIS
   @DF-RKS iter   5:  -460.80325654713545   -2.14300e-11   3.21956e-08 DIIS
   @DF-RKS iter   6:  -460.80325654713801   -2.55795e-12   3.90357e-09 DIIS
  Energy and wave function converged.


  ==> Post-Iterations <==

    Orbital Energies [Eh]
    ---------------------

    Doubly Occupied:                                                      

       1A1  -101.900451     2A1    -9.659353     3A1    -7.364087  
       1B2    -7.356432     1B1    -7.356432     4A1    -0.968533  
       5A1    -0.574616     2B1    -0.435809     2B2    -0.435809  

    Virtual:                                                              

       6A1     0.008764     7A1     0.067030     3B2     0.074200  
       3B1     0.074200     8A1     0.089650     9A1     0.136455  
       4B1     0.168708     4B2     0.168708    10A1     0.222346  
       1A2     0.222347    11A1     0.234571     5B1     0.286343  
       5B2     0.286343    12A1     0.303315    13A1     0.384905  
       6B2     0.424799     6B1     0.424799    14A1     0.429339  
       7B2     0.503622     7B1     0.503622    15A1     0.539287  
       2A2     0.539288    16A1     0.618184     3A2     0.618186  
      17A1     0.628576     8B1     0.660904     8B2     0.660904  
      18A1     0.733945     9B2     0.752455     9B1     0.752455  
      19A1     0.851002    10B2     0.859957    10B1     0.859957  
      20A1     0.889872     4A2     0.889875    21A1     1.004862  
      11B1     1.186576    11B2     1.186576    22A1     1.238075  
      23A1     1.400698    12B2     1.401446    12B1     1.401446  
       5A2     1.416052    24A1     1.416052    13B2     1.500311  
      13B1     1.500311    25A1     1.567880    14B1     1.640293  
      14B2     1.640293    26A1     1.735510     6A2     1.735510  
      27A1     1.743928     7A2     1.743929    28A1     1.758819  
      15B1     1.763899    15B2     1.763899    29A1     1.847385  
       8A2     1.847389    16B2     1.883169    16B1     1.883169  
      17B1     1.945192    17B2     1.945192    18B2     1.963826  
      18B1     1.963826    30A1     1.988455     9A2     1.992963  
      31A1     1.992963    19B1     2.334175    19B2     2.334175  
      32A1     2.365860    33A1     2.595966    34A1     2.863445  
      20B1     2.955416    20B2     2.955416    35A1     2.971626  
      10A2     2.971637    36A1     3.183454    21B2     3.304866  
      21B1     3.304866    37A1     3.476665    11A2     3.476672  
      38A1     3.665936    22B1     3.888502    22B2     3.888502  
      39A1     3.927884    12A2     4.330373    40A1     4.330377  
      23B2     4.373183    23B1     4.373183    24B1     4.410812  
      24B2     4.410812    41A1     4.411996    13A2     4.412002  
      25B2     4.427946    25B1     4.427946    14A2     4.535305  
      42A1     4.535315    43A1     4.715007    26B1     4.985240  
      26B2     4.985240    44A1     5.001004    27B2     5.891070  
      27B1     5.891070    28B2     6.321994    28B1     6.321994  
      45A1     6.774268    15A2     6.774269    46A1     6.899550  
      29B2     7.301639    29B1     7.301639    47A1     7.439369  
      48A1     7.871800    49A1     8.325847    16A2     8.325916  
      30B2     8.446508    30B1     8.446508    31B1     8.993578  
      31B2     8.993578    50A1     9.279467    51A1    10.585038  
      52A1    10.840185    17A2    10.840197    32B1    11.056469  
      32B2    11.056469    53A1    11.762894    54A1    25.296982  

    Final Occupation by Irrep:
             A1    A2    B1    B2 
    DOCC [     5,    0,    2,    2 ]

  @DF-RKS Final Energy:  -460.80325654713801

   => Energetics <=

    Nuclear Repulsion Energy =              7.0441453835790631
    One-Electron Energy =                -649.8483124745666828
    Two-Electron Energy =                 203.9310576644577964
    DFT Exchange-Correlation Energy =     -22.0065398526413460
    Empirical Dispersion Energy =           0.0000000000000000
    VV10 Nonlocal Energy =                  0.0763927320332130
    Total Energy =                       -460.8032565471380053

Computation Completed


Properties will be evaluated at   0.000000,   0.000000,   0.000000 [a0]

Properties computed using the SCF density matrix

  Nuclear Dipole Moment: [e a0]
     X:     0.0000      Y:     0.0000      Z:     1.1964

  Electronic Dipole Moment: [e a0]
     X:     0.0000      Y:     0.0000      Z:    -0.7629

  Dipole Moment: [e a0]
     X:     0.0000      Y:     0.0000      Z:     0.4335     Total:     0.4335

  Dipole Moment: [D]
     X:     0.0000      Y:     0.0000      Z:     1.1019     Total:     1.1019


*** tstop() called on bp1-compute00065.data.bp.acrc.priv at Tue Apr 27 16:48:30 2021
Module time:
	user time   =      51.19 seconds =       0.85 minutes
	system time =       1.69 seconds =       0.03 minutes
	total time  =          2 seconds =       0.03 minutes
Total time:
	user time   =     271.67 seconds =       4.53 minutes
	system time =      10.83 seconds =       0.18 minutes
	total time  =         12 seconds =       0.20 minutes

  //>>>>>>>>>>>>>>>>>>>>>>>>>>>>>>>>>>>//
  //    Loading displacement 2 of 3    //
  //<<<<<<<<<<<<<<<<<<<<<<<<<<<<<<<<<<<//

*** tstart() called on bp1-compute00065.data.bp.acrc.priv
*** at Tue Apr 27 16:48:30 2021

   => Loading Basis Set <=

    Name: AUG-CC-PV(Q+D)Z
    Role: ORBITAL
    Keyword: BASIS
    atoms 1 entry CL         line  1246 file /work/zw18965/.conda/envs/p4env/share/psi4/basis/aug-cc-pv_qpd_z.gbs 
    atoms 2 entry H          line    56 file /work/zw18965/.conda/envs/p4env/share/psi4/basis/aug-cc-pv_qpd_z.gbs 


         ---------------------------------------------------------
                                   SCF
               by Justin Turney, Rob Parrish, Andy Simmonett
                          and Daniel G. A. Smith
                              RKS Reference
                       24 Threads, 137329 MiB Core
         ---------------------------------------------------------

  ==> Geometry <==

    Molecular point group: c2v
    Full point group: C_inf_v

    Geometry (in Angstrom), charge = 0, multiplicity = 1:

       Center              X                  Y                   Z               Mass       
    ------------   -----------------  -----------------  -----------------  -----------------
         CL           0.000000000000     0.000000000000    -0.035850397649    34.968852682000
         H            0.000000000000     0.000000000000     1.243913609891     1.007825032230

  Running in c2v symmetry.

  Rotational constants: A = ************  B =     10.50730  C =     10.50730 [cm^-1]
  Rotational constants: A = ************  B = 315001.01045  C = 315001.01045 [MHz]
  Nuclear repulsion =    7.029430839115478

  Charge       = 0
  Multiplicity = 1
  Electrons    = 18
  Nalpha       = 9
  Nbeta        = 9

  ==> Algorithm <==

  SCF Algorithm Type is DF.
  DIIS enabled.
  MOM disabled.
  Fractional occupation disabled.
  Guess Type is READ.
  Energy threshold   = 1.00e-08
  Density threshold  = 1.00e-08
  Integral threshold = 0.00e+00

  ==> Primary Basis <==

  Basis Set: AUG-CC-PV(Q+D)Z
    Blend: AUG-CC-PV(Q+D)Z
    Number of shells: 37
    Number of basis function: 135
    Number of Cartesian functions: 170
    Spherical Harmonics?: true
    Max angular momentum: 4

  ==> DFT Potential <==

   => Composite Functional: WB97M-V <= 

    wB97M-V Hyb-GGA Exchange-Correlation Functional

    N. Mardirossian and M. Head-Gordon, J. Chem. Phys. 144, 214110 (2016)

    Deriv               =              1
    GGA                 =           TRUE
    Meta                =           TRUE

    Exchange Hybrid     =           TRUE
    MP2 Hybrid          =          FALSE

   => Exchange-Correlation Functionals <=

    1.0000   wB97M-V exchange-correlation functional

   => Exact (HF) Exchange <=

    0.8500            HF,LR [omega = 0.3000]
    0.1500               HF 

   => VV10 Non-Local Parameters <=

    VV10 B              =     6.0000E+00
    VV10 C              =     1.0000E-02

   => Molecular Quadrature <=

    Radial Scheme          =       TREUTLER
    Pruning Scheme         =           FLAT
    Nuclear Scheme         =       TREUTLER

    BS radius alpha        =              1
    Pruning alpha          =              1
    Radial Points          =             75
    Spherical Points       =            302
    Total Points           =          45300
    Total Blocks           =            422
    Max Points             =            256
    Max Functions          =            135

   => Loading Basis Set <=

    Name: (AUG-CC-PV(Q+D)Z AUX)
    Role: JKFIT
    Keyword: DF_BASIS_SCF
    atoms 1 entry CL         line   904 file /work/zw18965/.conda/envs/p4env/share/psi4/basis/aug-cc-pvqz-jkfit.gbs 
    atoms 2 entry H          line    70 file /work/zw18965/.conda/envs/p4env/share/psi4/basis/aug-cc-pvqz-jkfit.gbs 

   => Loading Basis Set <=

    Name: AUG-CC-PV(Q+D)Z
    Role: ORBITAL
    Keyword: BASIS
    atoms 1 entry CL         line  1246 file /work/zw18965/.conda/envs/p4env/share/psi4/basis/aug-cc-pv_qpd_z.gbs 
    atoms 2 entry H          line    56 file /work/zw18965/.conda/envs/p4env/share/psi4/basis/aug-cc-pv_qpd_z.gbs 

  Reading orbitals from file 180, no projection.

  ==> Pre-Iterations <==

   -------------------------------------------------------
    Irrep   Nso     Nmo     Nalpha   Nbeta   Ndocc  Nsocc
   -------------------------------------------------------
     A1        54      54       0       0       0       0
     A2        17      17       0       0       0       0
     B1        32      32       0       0       0       0
     B2        32      32       0       0       0       0
   -------------------------------------------------------
    Total     135     135       9       9       9       0
   -------------------------------------------------------

  ==> Integral Setup <==

  ==> DiskDFJK: Density-Fitted J/K Matrices <==

    J tasked:                  Yes
    K tasked:                  Yes
    wK tasked:                 Yes
    Omega:               3.000E-01
    OpenMP threads:             24
    Integrals threads:          24
    Memory [MiB]:           102573
    Algorithm:                Core
    Integral Cache:           NONE
    Schwarz Cutoff:          1E-12
    Fitting Condition:       1E-10

   => Auxiliary Basis Set <=

  Basis Set: (AUG-CC-PV(Q+D)Z AUX)
    Blend: AUG-CC-PVQZ-JKFIT
    Number of shells: 64
    Number of basis function: 260
    Number of Cartesian functions: 348
    Spherical Harmonics?: true
    Max angular momentum: 5

  Cached 100.0% of DFT collocation blocks in 0.414 [GiB].

  Minimum eigenvalue in the overlap matrix is 9.5584881098E-05.
  Using Symmetric Orthogonalization.

  SCF Guess: Orbitals guess was supplied from a previous computation.

  ==> Iterations <==

                           Total Energy        Delta E     RMS |[F,P]|

   @DF-RKS iter   0:  -460.80184663377543   -4.60802e+02   7.57922e-05 
   @DF-RKS iter   1:  -460.80325182586023   -1.40519e-03   1.11334e-05 DIIS
   @DF-RKS iter   2:  -460.80325209130632   -2.65446e-07   7.04556e-06 DIIS
   @DF-RKS iter   3:  -460.80325216958448   -7.82782e-08   5.31717e-07 DIIS
   @DF-RKS iter   4:  -460.80325217052268   -9.38201e-10   1.32225e-07 DIIS
   @DF-RKS iter   5:  -460.80325217059124   -6.85532e-11   5.80447e-08 DIIS
   @DF-RKS iter   6:  -460.80325217060209   -1.08571e-11   7.02890e-09 DIIS
  Energy and wave function converged.


  ==> Post-Iterations <==

    Orbital Energies [Eh]
    ---------------------

    Doubly Occupied:                                                      

       1A1  -101.900579     2A1    -9.659412     3A1    -7.364158  
       1B2    -7.356494     1B1    -7.356494     4A1    -0.968115  
       5A1    -0.574206     2B2    -0.435739     2B1    -0.435739  

    Virtual:                                                              

       6A1     0.008682     7A1     0.067053     3B2     0.074214  
       3B1     0.074214     8A1     0.089204     9A1     0.136412  
       4B1     0.168665     4B2     0.168665    10A1     0.222375  
       1A2     0.222375    11A1     0.234387     5B1     0.286315  
       5B2     0.286315    12A1     0.303106    13A1     0.384854  
       6B1     0.424751     6B2     0.424751    14A1     0.429568  
       7B2     0.503766     7B1     0.503766    15A1     0.539414  
       2A2     0.539415    16A1     0.618137     3A2     0.618138  
      17A1     0.628298     8B1     0.660618     8B2     0.660618  
      18A1     0.733271     9B1     0.752488     9B2     0.752488  
      19A1     0.850751    10B2     0.859759    10B1     0.859759  
      20A1     0.889738     4A2     0.889741    21A1     1.004980  
      11B1     1.185991    11B2     1.185991    22A1     1.237438  
      23A1     1.400145    12B1     1.401486    12B2     1.401486  
       5A2     1.416077    24A1     1.416077    13B1     1.499826  
      13B2     1.499826    25A1     1.568082    14B2     1.640778  
      14B1     1.640778    26A1     1.735558     6A2     1.735558  
      27A1     1.745352     7A2     1.745354    28A1     1.757245  
      15B2     1.763301    15B1     1.763301    29A1     1.846558  
       8A2     1.846562    16B2     1.883247    16B1     1.883247  
      17B1     1.944583    17B2     1.944583    18B1     1.963129  
      18B2     1.963129    30A1     1.988870     9A2     1.992678  
      31A1     1.992678    19B1     2.332736    19B2     2.332736  
      32A1     2.366727    33A1     2.592776    34A1     2.860652  
      20B1     2.953042    20B2     2.953042    35A1     2.968140  
      10A2     2.968151    36A1     3.182978    21B2     3.304495  
      21B1     3.304495    37A1     3.476106    11A2     3.476113  
      38A1     3.667738    22B2     3.888113    22B1     3.888113  
      39A1     3.924284    12A2     4.330874    40A1     4.330878  
      23B1     4.373200    23B2     4.373200    24B1     4.409322  
      24B2     4.409322    41A1     4.412038    13A2     4.412045  
      25B1     4.428139    25B2     4.428139    14A2     4.534286  
      42A1     4.534296    43A1     4.714402    26B2     4.983203  
      26B1     4.983203    44A1     4.998755    27B1     5.887948  
      27B2     5.887948    28B2     6.321192    28B1     6.321192  
      15A2     6.769898    45A1     6.769898    46A1     6.891296  
      29B1     7.297003    29B2     7.297003    47A1     7.444696  
      48A1     7.862806    49A1     8.322226    16A2     8.322298  
      30B1     8.437285    30B2     8.437285    31B2     8.991831  
      31B1     8.991831    50A1     9.277096    51A1    10.577582  
      52A1    10.840030    17A2    10.840041    32B2    11.056036  
      32B1    11.056036    53A1    11.748644    54A1    25.269572  

    Final Occupation by Irrep:
             A1    A2    B1    B2 
    DOCC [     5,    0,    2,    2 ]

  @DF-RKS Final Energy:  -460.80325217060209

   => Energetics <=

    Nuclear Repulsion Energy =              7.0294308391154781
    One-Electron Energy =                -649.8204828258818679
    Two-Electron Energy =                 203.9172108594287636
    DFT Exchange-Correlation Energy =     -22.0058028302921826
    Empirical Dispersion Energy =           0.0000000000000000
    VV10 Nonlocal Energy =                  0.0763917870277827
    Total Energy =                       -460.8032521706020361

Computation Completed


Properties will be evaluated at   0.000000,   0.000000,   0.000000 [a0]

Properties computed using the SCF density matrix

  Nuclear Dipole Moment: [e a0]
     X:     0.0000      Y:     0.0000      Z:     1.1989

  Electronic Dipole Moment: [e a0]
     X:     0.0000      Y:     0.0000      Z:    -0.7643

  Dipole Moment: [e a0]
     X:     0.0000      Y:     0.0000      Z:     0.4346     Total:     0.4346

  Dipole Moment: [D]
     X:     0.0000      Y:     0.0000      Z:     1.1047     Total:     1.1047


*** tstop() called on bp1-compute00065.data.bp.acrc.priv at Tue Apr 27 16:48:33 2021
Module time:
	user time   =      54.62 seconds =       0.91 minutes
	system time =       2.13 seconds =       0.04 minutes
	total time  =          3 seconds =       0.05 minutes
Total time:
	user time   =     326.43 seconds =       5.44 minutes
	system time =      12.97 seconds =       0.22 minutes
	total time  =         15 seconds =       0.25 minutes

  //>>>>>>>>>>>>>>>>>>>>>>>>>>>>>>>>>>>//
  //    Loading displacement 3 of 3    //
  //<<<<<<<<<<<<<<<<<<<<<<<<<<<<<<<<<<<//

*** tstart() called on bp1-compute00065.data.bp.acrc.priv
*** at Tue Apr 27 16:48:33 2021

   => Loading Basis Set <=

    Name: AUG-CC-PV(Q+D)Z
    Role: ORBITAL
    Keyword: BASIS
    atoms 1 entry CL         line  1246 file /work/zw18965/.conda/envs/p4env/share/psi4/basis/aug-cc-pv_qpd_z.gbs 
    atoms 2 entry H          line    56 file /work/zw18965/.conda/envs/p4env/share/psi4/basis/aug-cc-pv_qpd_z.gbs 


         ---------------------------------------------------------
                                   SCF
               by Justin Turney, Rob Parrish, Andy Simmonett
                          and Daniel G. A. Smith
                              RKS Reference
                       24 Threads, 137329 MiB Core
         ---------------------------------------------------------

  ==> Geometry <==

    Molecular point group: c2v
    Full point group: C_inf_v

    Geometry (in Angstrom), charge = 0, multiplicity = 1:

       Center              X                  Y                   Z               Mass       
    ------------   -----------------  -----------------  -----------------  -----------------
         CL           0.000000000000     0.000000000000    -0.035700621561    34.968852682000
         H            0.000000000000     0.000000000000     1.238716777309     1.007825032230

  Running in c2v symmetry.

  Rotational constants: A = ************  B =     10.59565  C =     10.59565 [cm^-1]
  Rotational constants: A = ************  B = 317649.62463  C = 317649.62463 [MHz]
  Nuclear repulsion =    7.058921660494732

  Charge       = 0
  Multiplicity = 1
  Electrons    = 18
  Nalpha       = 9
  Nbeta        = 9

  ==> Algorithm <==

  SCF Algorithm Type is DF.
  DIIS enabled.
  MOM disabled.
  Fractional occupation disabled.
  Guess Type is READ.
  Energy threshold   = 1.00e-08
  Density threshold  = 1.00e-08
  Integral threshold = 0.00e+00

  ==> Primary Basis <==

  Basis Set: AUG-CC-PV(Q+D)Z
    Blend: AUG-CC-PV(Q+D)Z
    Number of shells: 37
    Number of basis function: 135
    Number of Cartesian functions: 170
    Spherical Harmonics?: true
    Max angular momentum: 4

  ==> DFT Potential <==

   => Composite Functional: WB97M-V <= 

    wB97M-V Hyb-GGA Exchange-Correlation Functional

    N. Mardirossian and M. Head-Gordon, J. Chem. Phys. 144, 214110 (2016)

    Deriv               =              1
    GGA                 =           TRUE
    Meta                =           TRUE

    Exchange Hybrid     =           TRUE
    MP2 Hybrid          =          FALSE

   => Exchange-Correlation Functionals <=

    1.0000   wB97M-V exchange-correlation functional

   => Exact (HF) Exchange <=

    0.8500            HF,LR [omega = 0.3000]
    0.1500               HF 

   => VV10 Non-Local Parameters <=

    VV10 B              =     6.0000E+00
    VV10 C              =     1.0000E-02

   => Molecular Quadrature <=

    Radial Scheme          =       TREUTLER
    Pruning Scheme         =           FLAT
    Nuclear Scheme         =       TREUTLER

    BS radius alpha        =              1
    Pruning alpha          =              1
    Radial Points          =             75
    Spherical Points       =            302
    Total Points           =          45300
    Total Blocks           =            422
    Max Points             =            256
    Max Functions          =            135

   => Loading Basis Set <=

    Name: (AUG-CC-PV(Q+D)Z AUX)
    Role: JKFIT
    Keyword: DF_BASIS_SCF
    atoms 1 entry CL         line   904 file /work/zw18965/.conda/envs/p4env/share/psi4/basis/aug-cc-pvqz-jkfit.gbs 
    atoms 2 entry H          line    70 file /work/zw18965/.conda/envs/p4env/share/psi4/basis/aug-cc-pvqz-jkfit.gbs 

   => Loading Basis Set <=

    Name: AUG-CC-PV(Q+D)Z
    Role: ORBITAL
    Keyword: BASIS
    atoms 1 entry CL         line  1246 file /work/zw18965/.conda/envs/p4env/share/psi4/basis/aug-cc-pv_qpd_z.gbs 
    atoms 2 entry H          line    56 file /work/zw18965/.conda/envs/p4env/share/psi4/basis/aug-cc-pv_qpd_z.gbs 

  Reading orbitals from file 180, no projection.

  ==> Pre-Iterations <==

   -------------------------------------------------------
    Irrep   Nso     Nmo     Nalpha   Nbeta   Ndocc  Nsocc
   -------------------------------------------------------
     A1        54      54       0       0       0       0
     A2        17      17       0       0       0       0
     B1        32      32       0       0       0       0
     B2        32      32       0       0       0       0
   -------------------------------------------------------
    Total     135     135       9       9       9       0
   -------------------------------------------------------

  ==> Integral Setup <==

  ==> DiskDFJK: Density-Fitted J/K Matrices <==

    J tasked:                  Yes
    K tasked:                  Yes
    wK tasked:                 Yes
    Omega:               3.000E-01
    OpenMP threads:             24
    Integrals threads:          24
    Memory [MiB]:           102573
    Algorithm:                Core
    Integral Cache:           NONE
    Schwarz Cutoff:          1E-12
    Fitting Condition:       1E-10

   => Auxiliary Basis Set <=

  Basis Set: (AUG-CC-PV(Q+D)Z AUX)
    Blend: AUG-CC-PVQZ-JKFIT
    Number of shells: 64
    Number of basis function: 260
    Number of Cartesian functions: 348
    Spherical Harmonics?: true
    Max angular momentum: 5

  Cached 100.0% of DFT collocation blocks in 0.413 [GiB].

  Minimum eigenvalue in the overlap matrix is 9.4315502206E-05.
  Using Symmetric Orthogonalization.

  SCF Guess: Orbitals guess was supplied from a previous computation.

  ==> Iterations <==

                           Total Energy        Delta E     RMS |[F,P]|

   @DF-RKS iter   0:  -460.80466110246300   -4.60805e+02   7.62430e-05 
   @DF-RKS iter   1:  -460.80325211002940    1.40899e-03   1.11094e-05 DIIS
   @DF-RKS iter   2:  -460.80325237454468   -2.64515e-07   7.03066e-06 DIIS
   @DF-RKS iter   3:  -460.80325245248190   -7.79372e-08   5.31154e-07 DIIS
   @DF-RKS iter   4:  -460.80325245341709   -9.35188e-10   1.31762e-07 DIIS
   @DF-RKS iter   5:  -460.80325245348547   -6.83826e-11   5.76540e-08 DIIS
   @DF-RKS iter   6:  -460.80325245349530   -9.83391e-12   6.99715e-09 DIIS
  Energy and wave function converged.


  ==> Post-Iterations <==

    Orbital Energies [Eh]
    ---------------------

    Doubly Occupied:                                                      

       1A1  -101.900322     2A1    -9.659292     3A1    -7.364016  
       1B2    -7.356370     1B1    -7.356370     4A1    -0.968954  
       5A1    -0.575025     2B2    -0.435879     2B1    -0.435879  

    Virtual:                                                              

       6A1     0.008845     7A1     0.067007     3B2     0.074185  
       3B1     0.074185     8A1     0.090094     9A1     0.136499  
       4B1     0.168751     4B2     0.168751    10A1     0.222318  
       1A2     0.222318    11A1     0.234755     5B1     0.286372  
       5B2     0.286372    12A1     0.303527    13A1     0.384956  
       6B1     0.424848     6B2     0.424848    14A1     0.429112  
       7B2     0.503478     7B1     0.503478    15A1     0.539159  
       2A2     0.539160    16A1     0.618230     3A2     0.618231  
      17A1     0.628855     8B1     0.661191     8B2     0.661191  
      18A1     0.734621     9B2     0.752422     9B1     0.752422  
      19A1     0.851248    10B2     0.860154    10B1     0.860154  
      20A1     0.890006     4A2     0.890009    21A1     1.004743  
      11B1     1.187158    11B2     1.187158    22A1     1.238716  
      23A1     1.401251    12B2     1.401411    12B1     1.401411  
       5A2     1.416027    24A1     1.416027    13B1     1.500798  
      13B2     1.500798    25A1     1.567691    14B2     1.639801  
      14B1     1.639801    26A1     1.735462     6A2     1.735463  
      27A1     1.742478     7A2     1.742479    28A1     1.760400  
      15B2     1.764505    15B1     1.764505    29A1     1.848243  
       8A2     1.848246    16B2     1.883091    16B1     1.883091  
      17B2     1.945798    17B1     1.945798    18B1     1.964524  
      18B2     1.964524    30A1     1.988036     9A2     1.993251  
      31A1     1.993251    19B1     2.335615    19B2     2.335615  
      32A1     2.364980    33A1     2.599168    34A1     2.866234  
      20B2     2.957793    20B1     2.957793    35A1     2.975102  
      10A2     2.975113    36A1     3.183942    21B2     3.305242  
      21B1     3.305242    37A1     3.477236    11A2     3.477243  
      38A1     3.664003    22B2     3.888866    22B1     3.888866  
      39A1     3.931647    12A2     4.329888    40A1     4.329891  
      23B2     4.373166    23B1     4.373166    41A1     4.411954  
      13A2     4.411960    24B2     4.412315    24B1     4.412315  
      25B2     4.427753    25B1     4.427753    14A2     4.536330  
      42A1     4.536340    43A1     4.715603    26B2     4.987256  
      26B1     4.987256    44A1     5.003294    27B1     5.894267  
      27B2     5.894267    28B2     6.322806    28B1     6.322806  
      45A1     6.778653    15A2     6.778654    46A1     6.907694  
      29B2     7.306237    29B1     7.306237    47A1     7.434078  
      48A1     7.880894    49A1     8.329487    16A2     8.329554  
      30B2     8.455799    30B1     8.455799    31B2     8.995295  
      31B1     8.995295    50A1     9.281901    51A1    10.592236  
      52A1    10.840344    17A2    10.840355    32B1    11.056918  
      32B2    11.056918    53A1    11.777332    54A1    25.324907  

    Final Occupation by Irrep:
             A1    A2    B1    B2 
    DOCC [     5,    0,    2,    2 ]

  @DF-RKS Final Energy:  -460.80325245349530

   => Energetics <=

    Nuclear Repulsion Energy =              7.0589216604947325
    One-Electron Energy =                -649.8762453527851903
    Two-Electron Energy =                 203.9449579706122506
    DFT Exchange-Correlation Energy =     -22.0072804147830148
    Empirical Dispersion Energy =           0.0000000000000000
    VV10 Nonlocal Energy =                  0.0763936829659129
    Total Energy =                       -460.8032524534953041

Computation Completed


Properties will be evaluated at   0.000000,   0.000000,   0.000000 [a0]

Properties computed using the SCF density matrix

  Nuclear Dipole Moment: [e a0]
     X:     0.0000      Y:     0.0000      Z:     1.1939

  Electronic Dipole Moment: [e a0]
     X:     0.0000      Y:     0.0000      Z:    -0.7615

  Dipole Moment: [e a0]
     X:     0.0000      Y:     0.0000      Z:     0.4324     Total:     0.4324

  Dipole Moment: [D]
     X:     0.0000      Y:     0.0000      Z:     1.0991     Total:     1.0991


*** tstop() called on bp1-compute00065.data.bp.acrc.priv at Tue Apr 27 16:48:35 2021
Module time:
	user time   =      51.33 seconds =       0.86 minutes
	system time =       1.61 seconds =       0.03 minutes
	total time  =          2 seconds =       0.03 minutes
Total time:
	user time   =     377.89 seconds =       6.30 minutes
	system time =      14.59 seconds =       0.24 minutes
	total time  =         17 seconds =       0.28 minutes

         ----------------------------------------------------------
                                   FINDIF
                     R. A. King and Jonathon Misiewicz
         ---------------------------------------------------------

  Computing gradient from energies.
    Using 3-point formula.
    Energy without displacement: -460.8032565471
    Check energies below for precision!
    Forces are for mass-weighted, symmetry-adapted cartesians (in au).

     Coord      Energy(-1)        Energy(+1)            Force
        0   -460.8032521706   -460.8032524535     -0.0000282893


-------------------------------------------------------------
  ## New Matrix (Symmetry 0) ##
  Irrep: 1 Size: 2 x 3

                 1                   2                   3

    1     0.00000000000000     0.00000000000000    -0.00002799917660
    2     0.00000000000000     0.00000000000000     0.00002799917660




			-----------------------------------------
			 OPTKING 2.0: for geometry optimizations 
			  - R.A. King,  Bethel University        
			-----------------------------------------
	At level 1: Red. Int., RFO, no backsteps, dynamic trust

	Previous internal coordinate definitions found.
	---Fragment 1 Geometry and Gradient---
	 CL          0.0000000000        0.0000000000       -0.0676059152
	 H           0.0000000000        0.0000000000        2.3457457513
	             0.0000000000        0.0000000000       -0.0000279992
	             0.0000000000        0.0000000000        0.0000279992

	---Fragment 1 Intrafragment Coordinates---
	 - Coordinate -           - BOHR/RAD -       - ANG/DEG -
	 R(1,2)           =         2.413352	       1.277091

	Current energy   :      -460.8032565471

	Energy change for the previous step:
		Projected    :         0.0000013947
		Actual       :        -0.0000012225

	Performing BFGS update.
	Previous computed or guess Hessian on step 1.
	Steps to be used in Hessian update: 1
	Taking RFO optimization step.
	Going to follow RFO solution 1.
	Using RFO vector 1.
	Norm of target step-size    0.00008
	Projected energy change by RFO approximation:         0.0000000012

	Back-transformation to cartesian coordinates...
	Successfully converged to displaced geometry.

	--- Internal Coordinate Step in ANG or DEG, aJ/ANG or AJ/DEG ---
	 ---------------------------------------------------------------------------
	   Coordinate                Previous        Force       Change         New 
	   ----------                --------       ------       ------       ------
	    1 R(1,2)          =      1.277091    -0.000231    -0.000044     1.277046
	 ---------------------------------------------------------------------------
	Successfully symmetrized geometry.

  ==> Convergence Check <==

  Measures of convergence in internal coordinates in au.
  Criteria marked as inactive (o), active & met (*), and active & unmet ( ).
  ---------------------------------------------------------------------------------------------
   Step     Total Energy     Delta E     MAX Force     RMS Force      MAX Disp      RMS Disp   
  ---------------------------------------------------------------------------------------------
    Convergence Criteria    1.00e-06 *    3.00e-04 *             o    1.20e-03 *             o
  ---------------------------------------------------------------------------------------------
      2    -460.80325655   -1.22e-06      2.80e-05 *    2.80e-05 o    8.40e-05 *    8.40e-05 o  ~
  ---------------------------------------------------------------------------------------------


  **** Optimization is complete! (in 2 steps) ****

  ==> Optimization Summary <==

  Measures of convergence in internal coordinates in au.
  --------------------------------------------------------------------------------------------------------------- ~
   Step         Total Energy             Delta E       MAX Force       RMS Force        MAX Disp        RMS Disp  ~
  --------------------------------------------------------------------------------------------------------------- ~
      1    -460.803255324646   -460.803255324646      0.00090801      0.00090801      0.00280903      0.00280903  ~
      2    -460.803256547138     -0.000001222492      0.00002800      0.00002800      0.00008403      0.00008403  ~
  --------------------------------------------------------------------------------------------------------------- ~

	Writing optimization data to binary file.
	Final energy is   -460.8032565471380
	Final (previous) structure:
	Cartesian Geometry (in Angstrom)
	   CL     0.0000000000   0.0000000000  -0.0357755095
	    H     0.0000000000   0.0000000000   1.2413151887
	Saving final (previous) structure.
			--------------------------
			 OPTKING Finished Execution 
			--------------------------

    Final optimized geometry and variables:
    Molecular point group: c2v
    Full point group: C_inf_v

    Geometry (in Angstrom), charge = 0, multiplicity = 1:

    CL           0.000000000000     0.000000000000    -0.035775509605
    H            0.000000000000     0.000000000000     1.241315193600

	Removing binary optimization data file.
	Cleaning optimization helper files.
gradient() will perform gradient computation by finite difference of analytic energies.

         ----------------------------------------------------------
                                   FINDIF
                     R. A. King and Jonathon Misiewicz
         ---------------------------------------------------------

[...]
      32B1    11.056036    53A1    11.748644    54A1    25.269572  

    Final Occupation by Irrep:
             A1    A2    B1    B2 
    DOCC [     5,    0,    2,    2 ]

  @DF-RKS Final Energy:  -460.80325217060221

   => Energetics <=

    Nuclear Repulsion Energy =              7.0294308391154781
    One-Electron Energy =                -649.8204811790516260
    Two-Electron Energy =                 203.9172091386792260
    DFT Exchange-Correlation Energy =     -22.0058027566568164
    Empirical Dispersion Energy =           0.0000000000000000
    VV10 Nonlocal Energy =                  0.0763917873115420
    Total Energy =                       -460.8032521706022067

Computation Completed


Properties will be evaluated at   0.000000,   0.000000,   0.000000 [a0]

Properties computed using the SCF density matrix

  Nuclear Dipole Moment: [e a0]
     X:     0.0000      Y:     0.0000      Z:     1.1989

  Electronic Dipole Moment: [e a0]
     X:     0.0000      Y:     0.0000      Z:    -0.7643

  Dipole Moment: [e a0]
     X:     0.0000      Y:     0.0000      Z:     0.4346     Total:     0.4346

  Dipole Moment: [D]
     X:     0.0000      Y:     0.0000      Z:     1.1047     Total:     1.1047


*** tstop() called on bp1-compute00065.data.bp.acrc.priv at Tue Apr 27 16:48:52 2021
Module time:
	user time   =      76.24 seconds =       1.27 minutes
	system time =       2.22 seconds =       0.04 minutes
	total time  =          4 seconds =       0.07 minutes
Total time:
	user time   =     747.33 seconds =      12.46 minutes
	system time =      26.77 seconds =       0.45 minutes
	total time  =         34 seconds =       0.57 minutes

  //>>>>>>>>>>>>>>>>>>>>>>>>>>>>>>>>>>>//
  //    Loading displacement 3 of 3    //
  //<<<<<<<<<<<<<<<<<<<<<<<<<<<<<<<<<<<//

*** tstart() called on bp1-compute00065.data.bp.acrc.priv
*** at Tue Apr 27 16:48:52 2021

   => Loading Basis Set <=

    Name: AUG-CC-PV(Q+D)Z
    Role: ORBITAL
    Keyword: BASIS
    atoms 1 entry CL         line  1246 file /work/zw18965/.conda/envs/p4env/share/psi4/basis/aug-cc-pv_qpd_z.gbs 
    atoms 2 entry H          line    56 file /work/zw18965/.conda/envs/p4env/share/psi4/basis/aug-cc-pv_qpd_z.gbs 


         ---------------------------------------------------------
                                   SCF
               by Justin Turney, Rob Parrish, Andy Simmonett
                          and Daniel G. A. Smith
                              RKS Reference
                       24 Threads, 137329 MiB Core
         ---------------------------------------------------------

  ==> Geometry <==

    Molecular point group: c2v
    Full point group: C_inf_v

    Geometry (in Angstrom), charge = 0, multiplicity = 1:

       Center              X                  Y                   Z               Mass       
    ------------   -----------------  -----------------  -----------------  -----------------
         CL           0.000000000000     0.000000000000    -0.035700621561    34.968852682000
         H            0.000000000000     0.000000000000     1.238716777309     1.007825032230

  Running in c2v symmetry.

  Rotational constants: A = ************  B =     10.59565  C =     10.59565 [cm^-1]
  Rotational constants: A = ************  B = 317649.62463  C = 317649.62463 [MHz]
  Nuclear repulsion =    7.058921660494732

  Charge       = 0
  Multiplicity = 1
  Electrons    = 18
  Nalpha       = 9
  Nbeta        = 9

  ==> Algorithm <==

  SCF Algorithm Type is DF.
  DIIS enabled.
  MOM disabled.
  Fractional occupation disabled.
  Guess Type is SAD.
  Energy threshold   = 1.00e-10
  Density threshold  = 1.00e-10
  Integral threshold = 0.00e+00

  ==> Primary Basis <==

  Basis Set: AUG-CC-PV(Q+D)Z
    Blend: AUG-CC-PV(Q+D)Z
    Number of shells: 37
    Number of basis function: 135
    Number of Cartesian functions: 170
    Spherical Harmonics?: true
    Max angular momentum: 4

  ==> DFT Potential <==

   => Composite Functional: WB97M-V <= 

    wB97M-V Hyb-GGA Exchange-Correlation Functional

    N. Mardirossian and M. Head-Gordon, J. Chem. Phys. 144, 214110 (2016)

    Deriv               =              1
    GGA                 =           TRUE
    Meta                =           TRUE

    Exchange Hybrid     =           TRUE
    MP2 Hybrid          =          FALSE

   => Exchange-Correlation Functionals <=

    1.0000   wB97M-V exchange-correlation functional

   => Exact (HF) Exchange <=

    0.8500            HF,LR [omega = 0.3000]
    0.1500               HF 

   => VV10 Non-Local Parameters <=

    VV10 B              =     6.0000E+00
    VV10 C              =     1.0000E-02

   => Molecular Quadrature <=

    Radial Scheme          =       TREUTLER
    Pruning Scheme         =           FLAT
    Nuclear Scheme         =       TREUTLER

    BS radius alpha        =              1
    Pruning alpha          =              1
    Radial Points          =             75
    Spherical Points       =            302
    Total Points           =          45300
    Total Blocks           =            422
    Max Points             =            256
    Max Functions          =            135

   => Loading Basis Set <=

    Name: (AUG-CC-PV(Q+D)Z AUX)
    Role: JKFIT
    Keyword: DF_BASIS_SCF
    atoms 1 entry CL         line   904 file /work/zw18965/.conda/envs/p4env/share/psi4/basis/aug-cc-pvqz-jkfit.gbs 
    atoms 2 entry H          line    70 file /work/zw18965/.conda/envs/p4env/share/psi4/basis/aug-cc-pvqz-jkfit.gbs 

  ==> Pre-Iterations <==

   -------------------------------------------------------
    Irrep   Nso     Nmo     Nalpha   Nbeta   Ndocc  Nsocc
   -------------------------------------------------------
     A1        54      54       0       0       0       0
     A2        17      17       0       0       0       0
     B1        32      32       0       0       0       0
     B2        32      32       0       0       0       0
   -------------------------------------------------------
    Total     135     135       9       9       9       0
   -------------------------------------------------------

  ==> Integral Setup <==

  ==> DiskDFJK: Density-Fitted J/K Matrices <==

    J tasked:                  Yes
    K tasked:                  Yes
    wK tasked:                 Yes
    Omega:               3.000E-01
    OpenMP threads:             24
    Integrals threads:          24
    Memory [MiB]:           102573
    Algorithm:                Core
    Integral Cache:           NONE
    Schwarz Cutoff:          1E-12
    Fitting Condition:       1E-10

   => Auxiliary Basis Set <=

  Basis Set: (AUG-CC-PV(Q+D)Z AUX)
    Blend: AUG-CC-PVQZ-JKFIT
    Number of shells: 64
    Number of basis function: 260
    Number of Cartesian functions: 348
    Spherical Harmonics?: true
    Max angular momentum: 5

  Cached 100.0% of DFT collocation blocks in 0.413 [GiB].

  Minimum eigenvalue in the overlap matrix is 9.4315502206E-05.
  Using Symmetric Orthogonalization.

  SCF Guess: Superposition of Atomic Densities via on-the-fly atomic UHF.

  ==> Iterations <==

                           Total Energy        Delta E     RMS |[F,P]|

   @DF-RKS iter SAD:  -460.63995151965509   -4.60640e+02   0.00000e+00 
   @DF-RKS iter   1:  -460.78013165811518   -1.40180e-01   3.19090e-03 DIIS
   @DF-RKS iter   2:  -460.79584172952127   -1.57101e-02   2.01077e-03 DIIS
   @DF-RKS iter   3:  -460.80317570181705   -7.33397e-03   1.17477e-04 DIIS
   @DF-RKS iter   4:  -460.80324432002305   -6.86182e-05   4.14117e-05 DIIS
   @DF-RKS iter   5:  -460.80325205149023   -7.73147e-06   9.55176e-06 DIIS
   @DF-RKS iter   6:  -460.80325243731653   -3.85826e-07   1.80826e-06 DIIS
   @DF-RKS iter   7:  -460.80325245302606   -1.57095e-08   2.65686e-07 DIIS
   @DF-RKS iter   8:  -460.80325245348484   -4.58783e-10   3.37364e-08 DIIS
   @DF-RKS iter   9:  -460.80325245349542   -1.05729e-11   5.33118e-09 DIIS
   @DF-RKS iter  10:  -460.80325245349593   -5.11591e-13   7.16080e-10 DIIS
   @DF-RKS iter  11:  -460.80325245349610   -1.70530e-13   5.95842e-11 DIIS
  Energy and wave function converged.


  ==> Post-Iterations <==

    Orbital Energies [Eh]
    ---------------------

    Doubly Occupied:                                                      

       1A1  -101.900322     2A1    -9.659292     3A1    -7.364016  
       1B2    -7.356370     1B1    -7.356370     4A1    -0.968954  
       5A1    -0.575025     2B2    -0.435879     2B1    -0.435879  

    Virtual:                                                              

       6A1     0.008845     7A1     0.067007     3B2     0.074185  
       3B1     0.074185     8A1     0.090094     9A1     0.136499  
       4B1     0.168751     4B2     0.168751    10A1     0.222318  
       1A2     0.222318    11A1     0.234755     5B1     0.286372  
       5B2     0.286372    12A1     0.303527    13A1     0.384956  
       6B1     0.424848     6B2     0.424848    14A1     0.429112  
       7B2     0.503478     7B1     0.503478    15A1     0.539159  
       2A2     0.539160    16A1     0.618230     3A2     0.618231  
      17A1     0.628855     8B1     0.661191     8B2     0.661191  
      18A1     0.734621     9B2     0.752422     9B1     0.752422  
      19A1     0.851248    10B2     0.860154    10B1     0.860154  
      20A1     0.890006     4A2     0.890009    21A1     1.004743  
      11B1     1.187158    11B2     1.187158    22A1     1.238716  
      23A1     1.401251    12B2     1.401411    12B1     1.401411  
       5A2     1.416027    24A1     1.416027    13B1     1.500798  
      13B2     1.500798    25A1     1.567691    14B2     1.639801  
      14B1     1.639801    26A1     1.735462     6A2     1.735463  
      27A1     1.742478     7A2     1.742479    28A1     1.760400  
      15B2     1.764505    15B1     1.764505    29A1     1.848243  
       8A2     1.848246    16B2     1.883091    16B1     1.883091  
      17B2     1.945798    17B1     1.945798    18B1     1.964524  
      18B2     1.964524    30A1     1.988035     9A2     1.993251  
      31A1     1.993251    19B1     2.335615    19B2     2.335615  
      32A1     2.364980    33A1     2.599168    34A1     2.866234  
      20B2     2.957793    20B1     2.957793    35A1     2.975102  
      10A2     2.975113    36A1     3.183942    21B2     3.305242  
      21B1     3.305242    37A1     3.477236    11A2     3.477243  
      38A1     3.664003    22B2     3.888866    22B1     3.888866  
      39A1     3.931647    12A2     4.329888    40A1     4.329891  
      23B2     4.373166    23B1     4.373166    41A1     4.411954  
      13A2     4.411960    24B2     4.412315    24B1     4.412315  
      25B2     4.427753    25B1     4.427753    14A2     4.536330  
      42A1     4.536340    43A1     4.715603    26B2     4.987256  
      26B1     4.987256    44A1     5.003294    27B1     5.894267  
      27B2     5.894267    28B2     6.322806    28B1     6.322806  
      45A1     6.778653    15A2     6.778654    46A1     6.907694  
      29B2     7.306237    29B1     7.306237    47A1     7.434078  
      48A1     7.880894    49A1     8.329487    16A2     8.329554  
      30B2     8.455799    30B1     8.455799    31B2     8.995295  
      31B1     8.995295    50A1     9.281901    51A1    10.592236  
      52A1    10.840344    17A2    10.840355    32B1    11.056918  
      32B2    11.056918    53A1    11.777332    54A1    25.324907  

    Final Occupation by Irrep:
             A1    A2    B1    B2 
    DOCC [     5,    0,    2,    2 ]

  @DF-RKS Final Energy:  -460.80325245349610

   => Energetics <=

    Nuclear Repulsion Energy =              7.0589216604947325
    One-Electron Energy =                -649.8762470140567302
    Two-Electron Energy =                 203.9449597075149825
    DFT Exchange-Correlation Energy =     -22.0072804901410848
    Empirical Dispersion Energy =           0.0000000000000000
    VV10 Nonlocal Energy =                  0.0763936826920013
    Total Energy =                       -460.8032524534960430

Computation Completed


Properties will be evaluated at   0.000000,   0.000000,   0.000000 [a0]

Properties computed using the SCF density matrix

  Nuclear Dipole Moment: [e a0]
     X:     0.0000      Y:     0.0000      Z:     1.1939

  Electronic Dipole Moment: [e a0]
     X:     0.0000      Y:     0.0000      Z:    -0.7615

  Dipole Moment: [e a0]
     X:     0.0000      Y:     0.0000      Z:     0.4324     Total:     0.4324

  Dipole Moment: [D]
     X:     0.0000      Y:     0.0000      Z:     1.0991     Total:     1.0991


*** tstop() called on bp1-compute00065.data.bp.acrc.priv at Tue Apr 27 16:48:55 2021
Module time:
	user time   =      75.70 seconds =       1.26 minutes
	system time =       2.17 seconds =       0.04 minutes
	total time  =          3 seconds =       0.05 minutes
Total time:
	user time   =     823.17 seconds =      13.72 minutes
	system time =      28.94 seconds =       0.48 minutes
	total time  =         37 seconds =       0.62 minutes

         ----------------------------------------------------------
                                   FINDIF
                     R. A. King and Jonathon Misiewicz
         ---------------------------------------------------------

  Computing second-derivative from energies using projected, 
  symmetry-adapted, cartesian coordinates.

  3 energies passed in, including the reference geometry.
    Using 3-point formula.
    Energy without displacement: -460.8032565471
    Check energies below for precision!
    0: -1 :      -460.8032521706
    0: 1  :      -460.8032524535

-------------------------------------------------------------


  ==> Harmonic Vibrational Analysis <==

  non-mass-weighted Hessian:       Symmetric? True   Hermitian? True   Lin Dep Dim?  5 (0)
  projection of translations (True) and rotations (True) removed 5 degrees of freedom (5)
  total projector:                 Symmetric? True   Hermitian? True   Lin Dep Dim?  5 (5)
  mass-weighted Hessian:           Symmetric? True   Hermitian? True   Lin Dep Dim?  5 (0)
  pre-proj  low-frequency mode:    0.0000  [cm^-1]
  pre-proj  low-frequency mode:    0.0000  [cm^-1]
  pre-proj  low-frequency mode:    0.0000  [cm^-1]
  pre-proj  low-frequency mode:    0.0000  [cm^-1]
  pre-proj  low-frequency mode:    0.0000  [cm^-1]
  pre-proj  all modes:['0.0000' '0.0000' '0.0000' '0.0000' '0.0000' '2992.1306']
  projected mass-weighted Hessian: Symmetric? True   Hermitian? True   Lin Dep Dim?  5 (5)
  post-proj low-frequency mode:    0.0000  [cm^-1] (TR)
  post-proj low-frequency mode:    0.0000  [cm^-1] (TR)
  post-proj low-frequency mode:    0.0000  [cm^-1] (TR)
  post-proj low-frequency mode:    0.0000  [cm^-1] (TR)
  post-proj low-frequency mode:    0.0000  [cm^-1] (TR)
  post-proj  all modes:['0.0000' '0.0000' '0.0000' '0.0000' '0.0000' '2992.1306']

  Vibration                       6           
  Freq [cm^-1]                2992.1306       
  Irrep                           A1          
  Reduced mass [u]              1.0360        
  Force const [mDyne/A]         5.4648        
  Turning point v=0 [a0]        0.1971        
  RMS dev v=0 [a0 u^1/2]        0.1418        
  Char temp [K]               4305.0097       
  ----------------------------------------------------------------------------------
      1   CL               0.00  0.00 -0.03   
      2   H                0.00  0.00  1.00   

  ==> Thermochemistry Components <==

  Entropy, S
    Electronic S            0.000 [cal/(mol K)]        0.000 [J/(mol K)]       0.00000000 [mEh/K] (multiplicity = 1)
    Translational S        36.671 [cal/(mol K)]      153.430 [J/(mol K)]       0.05843851 [mEh/K] (mol. weight = 35.9767 [u], P = 101325.00 [Pa])
    Rotational S            7.904 [cal/(mol K)]       33.071 [J/(mol K)]       0.01259615 [mEh/K] (symmetry no. = 1)
    Vibrational S           0.000 [cal/(mol K)]        0.000 [J/(mol K)]       0.00000003 [mEh/K]
  Total S                  44.575 [cal/(mol K)]      186.502 [J/(mol K)]       0.07103468 [mEh/K]
  Correction S              0.000 [cal/(mol K)]        0.000 [J/(mol K)]       0.00000000 [mEh/K]

  Constant volume heat capacity, Cv
    Electronic Cv           0.000 [cal/(mol K)]        0.000 [J/(mol K)]       0.00000000 [mEh/K]
    Translational Cv        2.981 [cal/(mol K)]       12.472 [J/(mol K)]       0.00475022 [mEh/K]
    Rotational Cv           1.987 [cal/(mol K)]        8.314 [J/(mol K)]       0.00316681 [mEh/K]
    Vibrational Cv          0.000 [cal/(mol K)]        0.001 [J/(mol K)]       0.00000035 [mEh/K]
  Total Cv                  4.968 [cal/(mol K)]       20.787 [J/(mol K)]       0.00791738 [mEh/K]
  Correction Cv             0.000 [cal/(mol K)]        0.000 [J/(mol K)]       0.00000000 [mEh/K]

  Constant pressure heat capacity, Cp
    Electronic Cp           0.000 [cal/(mol K)]        0.000 [J/(mol K)]       0.00000000 [mEh/K]
    Translational Cp        4.968 [cal/(mol K)]       20.786 [J/(mol K)]       0.00791703 [mEh/K]
    Rotational Cp           1.987 [cal/(mol K)]        8.314 [J/(mol K)]       0.00316681 [mEh/K]
    Vibrational Cp          0.000 [cal/(mol K)]        0.001 [J/(mol K)]       0.00000035 [mEh/K]
  Total Cp                  6.955 [cal/(mol K)]       29.102 [J/(mol K)]       0.01108419 [mEh/K]
  Correction Cp             0.000 [cal/(mol K)]        0.000 [J/(mol K)]       0.00000000 [mEh/K]

  ==> Thermochemistry Energy Analysis <==

  Raw electronic energy, E0
  Total E0, Electronic energy at well bottom at 0 [K]                 -460.80325655 [Eh]

  Zero-point energy, ZPE_vib = Sum_i nu_i / 2
    Electronic ZPE          0.000 [kcal/mol]        0.000 [kJ/mol]       0.00000000 [Eh]
    Translational ZPE       0.000 [kcal/mol]        0.000 [kJ/mol]       0.00000000 [Eh]
    Rotational ZPE          0.000 [kcal/mol]        0.000 [kJ/mol]       0.00000000 [Eh]
    Vibrational ZPE         4.277 [kcal/mol]       17.897 [kJ/mol]       0.00681657 [Eh]        1496.065 [cm^-1]
  Correction ZPE            4.277 [kcal/mol]       17.897 [kJ/mol]       0.00681657 [Eh]        1496.065 [cm^-1]
  Total ZPE, Electronic energy at 0 [K]                               -460.79643997 [Eh]

  Thermal Energy, E (includes ZPE)
    Electronic E            0.000 [kcal/mol]        0.000 [kJ/mol]       0.00000000 [Eh]
    Translational E         0.889 [kcal/mol]        3.718 [kJ/mol]       0.00141628 [Eh]
    Rotational E            0.592 [kcal/mol]        2.479 [kJ/mol]       0.00094418 [Eh]
    Vibrational E           4.277 [kcal/mol]       17.897 [kJ/mol]       0.00681658 [Eh]
  Correction E              5.759 [kcal/mol]       24.094 [kJ/mol]       0.00917704 [Eh]
  Total E, Electronic energy at  298.15 [K]                           -460.79407950 [Eh]

  Enthalpy, H_trans = E_trans + k_B * T
    Electronic H            0.000 [kcal/mol]        0.000 [kJ/mol]       0.00000000 [Eh]
    Translational H         1.481 [kcal/mol]        6.197 [kJ/mol]       0.00236046 [Eh]
    Rotational H            0.592 [kcal/mol]        2.479 [kJ/mol]       0.00094418 [Eh]
    Vibrational H           4.277 [kcal/mol]       17.897 [kJ/mol]       0.00681658 [Eh]
  Correction H              6.351 [kcal/mol]       26.573 [kJ/mol]       0.01012123 [Eh]
  Total H, Enthalpy at  298.15 [K]                                    -460.79313532 [Eh]

  Gibbs free energy, G = H - T * S
    Electronic G            0.000 [kcal/mol]        0.000 [kJ/mol]       0.00000000 [Eh]
    Translational G        -9.452 [kcal/mol]      -39.548 [kJ/mol]      -0.01506298 [Eh]
    Rotational G           -1.764 [kcal/mol]       -7.381 [kJ/mol]      -0.00281136 [Eh]
    Vibrational G           4.277 [kcal/mol]       17.897 [kJ/mol]       0.00681657 [Eh]
  Correction G             -6.939 [kcal/mol]      -29.032 [kJ/mol]      -0.01105776 [Eh]
  Total G, Free enthalpy at  298.15 [K]                               -460.81431431 [Eh]

    Psi4 stopped on: Tuesday, 27 April 2021 04:48PM
    Psi4 wall time for execution: 0:00:37.82

*** Psi4 exiting successfully. Buy a developer a beer!
