
    -----------------------------------------------------------------------
          Psi4: An Open-Source Ab Initio Electronic Structure Package
                               Psi4 1.3.2 release

                         Git: Rev {HEAD} ecbda83 


    R. M. Parrish, L. A. Burns, D. G. A. Smith, A. C. Simmonett,
    A. E. DePrince III, E. G. Hohenstein, U. Bozkaya, A. Yu. Sokolov,
    R. Di Remigio, R. M. Richard, J. F. Gonthier, A. M. James,
    H. R. McAlexander, A. Kumar, M. Saitow, X. Wang, B. P. Pritchard,
    P. Verma, H. F. Schaefer III, K. Patkowski, R. A. King, E. F. Valeev,
    F. A. Evangelista, J. M. Turney, T. D. Crawford, and C. D. Sherrill,
    J. Chem. Theory Comput. 13(7) pp 3185--3197 (2017).
    (doi: 10.1021/acs.jctc.7b00174)


                         Additional Contributions by
    P. Kraus, H. Kruse, M. H. Lechner, M. C. Schieber, R. A. Shaw,
    A. Alenaizan, R. Galvelis, Z. L. Glick, S. Lehtola, and J. P. Misiewicz

    -----------------------------------------------------------------------


    Psi4 started on: Tuesday, 27 April 2021 04:50PM

    Process ID: 11400
    Host:       bp1-compute00047.data.bp.acrc.priv
    PSIDATADIR: /work/zw18965/.conda/envs/p4env/share/psi4
    Memory:     500.0 MiB
    Threads:    24
    
  ==> Input File <==

--------------------------------------------------------------------------
memory 144 GB

molecule {
0 1
O 0.0000000000 0.0000000000 0.0000000000
H 0.0000000000 0.0000000000 0.9638997500
Cl 1.6530447720 0.0000000000 -0.3711121967
}

set dynamic_level 1
set basis aug-cc-pV(Q+d)Z
 
optimize("wB97M-V")
frequencies("wB97M-V")
--------------------------------------------------------------------------

  Memory set to 134.110 GiB by Python driver.
gradient() will perform gradient computation by finite difference of analytic energies.

         ----------------------------------------------------------
                                   FINDIF
                     R. A. King and Jonathon Misiewicz
         ---------------------------------------------------------

  Using finite-differences of energies to determine gradients.
    Generating geometries for use with 3-point formula.
    Displacement size will be 5.00e-03.
    Number of atoms is 3.
    Number of symmetric SALCs is 3.
    Translations projected? 1. Rotations projected? 1.
    Number of geometries (including reference) is 7.

  //>>>>>>>>>>>>>>>>>>>>>>>>>>>>>>>>>>>//
  //    Loading displacement 1 of 7    //
  //<<<<<<<<<<<<<<<<<<<<<<<<<<<<<<<<<<<//

*** tstart() called on bp1-compute00047.data.bp.acrc.priv
*** at Tue Apr 27 16:50:09 2021

   => Loading Basis Set <=

    Name: AUG-CC-PV(Q+D)Z
    Role: ORBITAL
    Keyword: BASIS
    atoms 1 entry O          line   439 file /work/zw18965/.conda/envs/p4env/share/psi4/basis/aug-cc-pv_qpd_z.gbs 
    atoms 2 entry H          line    56 file /work/zw18965/.conda/envs/p4env/share/psi4/basis/aug-cc-pv_qpd_z.gbs 
    atoms 3 entry CL         line  1246 file /work/zw18965/.conda/envs/p4env/share/psi4/basis/aug-cc-pv_qpd_z.gbs 


         ---------------------------------------------------------
                                   SCF
               by Justin Turney, Rob Parrish, Andy Simmonett
                          and Daniel G. A. Smith
                              RKS Reference
                       24 Threads, 137329 MiB Core
         ---------------------------------------------------------

  ==> Geometry <==

    Molecular point group: cs
    Full point group: Cs

    Geometry (in Angstrom), charge = 0, multiplicity = 1:

       Center              X                  Y                   Z               Mass       
    ------------   -----------------  -----------------  -----------------  -----------------
         O            1.112243756888     0.231009382225     0.000000000000    15.994914619570
         H            1.112243756888     1.194909132225     0.000000000000     1.007825032230
         CL          -0.540801015112    -0.140102814475     0.000000000000    34.968852682000

  Running in cs symmetry.

  Rotational constants: A =     20.45666  B =      0.50448  C =      0.49234 [cm^-1]
  Rotational constants: A = 613275.14863  B =  15123.89441  C =  14759.90248 [MHz]
  Nuclear repulsion =   51.105111811406950

  Charge       = 0
  Multiplicity = 1
  Electrons    = 26
  Nalpha       = 13
  Nbeta        = 13

  ==> Algorithm <==

  SCF Algorithm Type is DF.
  DIIS enabled.
  MOM disabled.
  Fractional occupation disabled.
  Guess Type is SAD.
  Energy threshold   = 1.00e-08
  Density threshold  = 1.00e-08
  Integral threshold = 0.00e+00

  ==> Primary Basis <==

  Basis Set: AUG-CC-PV(Q+D)Z
    Blend: AUG-CC-PV(Q+D)Z
    Number of shells: 57
    Number of basis function: 215
    Number of Cartesian functions: 275
    Spherical Harmonics?: true
    Max angular momentum: 4

  ==> DFT Potential <==

   => Composite Functional: WB97M-V <= 

    wB97M-V Hyb-GGA Exchange-Correlation Functional

    N. Mardirossian and M. Head-Gordon, J. Chem. Phys. 144, 214110 (2016)

    Deriv               =              1
    GGA                 =           TRUE
    Meta                =           TRUE

    Exchange Hybrid     =           TRUE
    MP2 Hybrid          =          FALSE

   => Exchange-Correlation Functionals <=

    1.0000   wB97M-V exchange-correlation functional

   => Exact (HF) Exchange <=

    0.8500            HF,LR [omega = 0.3000]
    0.1500               HF 

   => VV10 Non-Local Parameters <=

    VV10 B              =     6.0000E+00
    VV10 C              =     1.0000E-02

   => Molecular Quadrature <=

    Radial Scheme          =       TREUTLER
    Pruning Scheme         =           FLAT
    Nuclear Scheme         =       TREUTLER

    BS radius alpha        =              1
    Pruning alpha          =              1
    Radial Points          =             75
    Spherical Points       =            302
    Total Points           =          67950
    Total Blocks           =            573
    Max Points             =            255
    Max Functions          =            215

   => Loading Basis Set <=

    Name: (AUG-CC-PV(Q+D)Z AUX)
    Role: JKFIT
    Keyword: DF_BASIS_SCF
    atoms 1 entry O          line   318 file /work/zw18965/.conda/envs/p4env/share/psi4/basis/aug-cc-pvqz-jkfit.gbs 
    atoms 2 entry H          line    70 file /work/zw18965/.conda/envs/p4env/share/psi4/basis/aug-cc-pvqz-jkfit.gbs 
    atoms 3 entry CL         line   904 file /work/zw18965/.conda/envs/p4env/share/psi4/basis/aug-cc-pvqz-jkfit.gbs 

  ==> Pre-Iterations <==

   -------------------------------------------------------
    Irrep   Nso     Nmo     Nalpha   Nbeta   Ndocc  Nsocc
   -------------------------------------------------------
     A'       136     136       0       0       0       0
     A"        79      79       0       0       0       0
   -------------------------------------------------------
    Total     215     215      13      13      13       0
   -------------------------------------------------------

  ==> Integral Setup <==

  ==> DiskDFJK: Density-Fitted J/K Matrices <==

    J tasked:                  Yes
    K tasked:                  Yes
    wK tasked:                 Yes
    Omega:               3.000E-01
    OpenMP threads:             24
    Integrals threads:          24
    Memory [MiB]:           102048
    Algorithm:                Core
    Integral Cache:           NONE
    Schwarz Cutoff:          1E-12
    Fitting Condition:       1E-10

   => Auxiliary Basis Set <=

  Basis Set: (AUG-CC-PV(Q+D)Z AUX)
    Blend: AUG-CC-PVQZ-JKFIT
    Number of shells: 98
    Number of basis function: 402
    Number of Cartesian functions: 546
    Spherical Harmonics?: true
    Max angular momentum: 5

  Cached 100.0% of DFT collocation blocks in 0.926 [GiB].

  Minimum eigenvalue in the overlap matrix is 8.0405237068E-05.
  Using Symmetric Orthogonalization.

  SCF Guess: Superposition of Atomic Densities via on-the-fly atomic UHF.

  ==> Iterations <==

                           Total Energy        Delta E     RMS |[F,P]|

   @DF-RKS iter SAD:  -535.60467277260034   -5.35605e+02   0.00000e+00 
   @DF-RKS iter   1:  -535.90699221960040   -3.02319e-01   2.85531e-03 DIIS
   @DF-RKS iter   2:  -535.90038635182350    6.60587e-03   3.07787e-03 DIIS
   @DF-RKS iter   3:  -535.97644156509773   -7.60552e-02   4.31653e-04 DIIS
   @DF-RKS iter   4:  -535.97796236857425   -1.52080e-03   6.27386e-05 DIIS
   @DF-RKS iter   5:  -535.97802710778080   -6.47392e-05   1.51471e-05 DIIS
   @DF-RKS iter   6:  -535.97803154208214   -4.43430e-06   3.89039e-06 DIIS
   @DF-RKS iter   7:  -535.97803220648495   -6.64403e-07   1.50141e-06 DIIS
   @DF-RKS iter   8:  -535.97803234734147   -1.40857e-07   6.51374e-07 DIIS
   @DF-RKS iter   9:  -535.97803237389144   -2.65500e-08   2.00199e-07 DIIS
   @DF-RKS iter  10:  -535.97803237586788   -1.97645e-09   4.55168e-08 DIIS
   @DF-RKS iter  11:  -535.97803237591791   -5.00222e-11   1.25391e-08 DIIS
   @DF-RKS iter  12:  -535.97803237592382   -5.91172e-12   2.71813e-09 DIIS
  Energy and wave function converged.


  ==> Post-Iterations <==

    Orbital Energies [Eh]
    ---------------------

    Doubly Occupied:                                                      

       1Ap  -101.939798     2Ap   -19.407179     3Ap    -9.693322  
       4Ap    -7.402228     5Ap    -7.388823     1App   -7.388506  
       6Ap    -1.204160     7Ap    -0.925120     8Ap    -0.644555  
       9Ap    -0.553606     2App   -0.527405    10Ap    -0.423409  
       3App   -0.391104  

    Virtual:                                                              

      11Ap    -0.003897    12Ap     0.017718    13Ap     0.067571  
       4App    0.073535    14Ap     0.078177    15Ap     0.105442  
      16Ap     0.115159    17Ap     0.121152     5App    0.131980  
      18Ap     0.167854     6App    0.171639    19Ap     0.223354  
      20Ap     0.237253     7App    0.262897    21Ap     0.280220  
       8App    0.282456    22Ap     0.286246    23Ap     0.308391  
      24Ap     0.309694     9App    0.405924    25Ap     0.410027  
      26Ap     0.457717    10App    0.474363    27Ap     0.477061  
      28Ap     0.484658    11App    0.509593    29Ap     0.515768  
      30Ap     0.562749    12App    0.567484    13App    0.589144  
      31Ap     0.598005    14App    0.615482    32Ap     0.617466  
      33Ap     0.645089    34Ap     0.662814    35Ap     0.679538  
      15App    0.692283    36Ap     0.703615    16App    0.753740  
      37Ap     0.768947    38Ap     0.814339    17App    0.819464  
      39Ap     0.884687    40Ap     0.922952    41Ap     0.940675  
      18App    0.958461    19App    0.968412    42Ap     0.976307  
      20App    1.072639    43Ap     1.093000    44Ap     1.172949  
      45Ap     1.224757    46Ap     1.358703    21App    1.371053  
      47Ap     1.385412    22App    1.403444    48Ap     1.409458  
      23App    1.417876    49Ap     1.445591    50Ap     1.466825  
      51Ap     1.478151    24App    1.483562    25App    1.494652  
      52Ap     1.520872    26App    1.540905    53Ap     1.584274  
      27App    1.599906    54Ap     1.622900    55Ap     1.636237  
      28App    1.644728    56Ap     1.725496    57Ap     1.755225  
      58Ap     1.774307    29App    1.774969    59Ap     1.798971  
      30App    1.852215    31App    1.864081    60Ap     1.874544  
      61Ap     1.920070    32App    1.924403    62Ap     1.932732  
      33App    1.958682    34App    1.997785    63Ap     2.001163  
      64Ap     2.040178    65Ap     2.058458    35App    2.064869  
      36App    2.120506    66Ap     2.133951    67Ap     2.181882  
      68Ap     2.216353    37App    2.275090    69Ap     2.304861  
      38App    2.331116    70Ap     2.431926    71Ap     2.465080  
      72Ap     2.582142    73Ap     2.720294    39App    2.836267  
      40App    2.903388    74Ap     2.928062    41App    2.954428  
      75Ap     2.983749    76Ap     3.224626    77Ap     3.310673  
      78Ap     3.441108    42App    3.442459    79Ap     3.448427  
      43App    3.452080    80Ap     3.541753    44App    3.576765  
      81Ap     3.616550    82Ap     3.754189    83Ap     3.807037  
      45App    3.809016    46App    3.845208    84Ap     3.869537  
      47App    3.937881    85Ap     3.945941    86Ap     4.023751  
      48App    4.043477    49App    4.119950    87Ap     4.121028  
      88Ap     4.212683    89Ap     4.277356    90Ap     4.298630  
      50App    4.357406    51App    4.372949    91Ap     4.375169  
      52App    4.404796    92Ap     4.411102    53App    4.427126  
      93Ap     4.427761    94Ap     4.444452    54App    4.464559  
      95Ap     4.528023    55App    4.586251    96Ap     4.612679  
      56App    4.716520    97Ap     4.737359    57App    4.790281  
      98Ap     4.826530    58App    4.862581    99Ap     4.937544  
     100Ap     5.015293   101Ap     5.041458    59App    5.293479  
     102Ap     5.357259    60App    5.582173   103Ap     5.604904  
     104Ap     5.686686   105Ap     5.910145    61App    5.973198  
     106Ap     6.193614    62App    6.624372   107Ap     6.657280  
     108Ap     7.408905    63App    7.470136   109Ap     7.554792  
      64App    7.555578   110Ap     7.688026   111Ap     7.841959  
     112Ap     8.259839    65App    8.368136    66App    8.455093  
     113Ap     8.555423   114Ap     8.813849   115Ap     9.439697  
      67App    9.523395   116Ap     9.710257   117Ap    10.355866  
      68App   10.437650   118Ap    10.470965    69App   10.497268  
     119Ap    10.523059    70App   10.544241   120Ap    10.834297  
      71App   10.839915   121Ap    10.879843    72App   10.913105  
      73App   11.003549   122Ap    11.036138   123Ap    11.098497  
      74App   11.175385   124Ap    11.274209   125Ap    11.453520  
      75App   11.604830   126Ap    11.625162   127Ap    11.768408  
      76App   11.839578   128Ap    11.898510    77App   12.309689  
     129Ap    12.325510   130Ap    12.513438    78App   12.803533  
     131Ap    12.928778   132Ap    14.096684    79App   14.106272  
     133Ap    14.162045   134Ap    16.444528   135Ap    24.560101  
     136Ap    43.094401  

    Final Occupation by Irrep:
             Ap   App 
    DOCC [    10,    3 ]

  @DF-RKS Final Energy:  -535.97803237592382

   => Energetics <=

    Nuclear Repulsion Energy =             51.1051118114069496
    One-Electron Energy =                -840.7121918271865297
    Two-Electron Energy =                 281.7903350779276934
    DFT Exchange-Correlation Energy =     -28.2699848145610630
    Empirical Dispersion Energy =           0.0000000000000000
    VV10 Nonlocal Energy =                  0.1086973764891590
    Total Energy =                       -535.9780323759238172

Computation Completed


Properties will be evaluated at   0.000000,   0.000000,   0.000000 [a0]

Properties computed using the SCF density matrix

  Nuclear Dipole Moment: [e a0]
     X:     1.5431      Y:     1.2496      Z:     0.0000

  Electronic Dipole Moment: [e a0]
     X:    -1.5560      Y:    -0.6518      Z:     0.0000

  Dipole Moment: [e a0]
     X:    -0.0129      Y:     0.5977      Z:     0.0000     Total:     0.5979

  Dipole Moment: [D]
     X:    -0.0328      Y:     1.5193      Z:     0.0000     Total:     1.5196


*** tstop() called on bp1-compute00047.data.bp.acrc.priv at Tue Apr 27 16:50:16 2021
Module time:
	user time   =     132.28 seconds =       2.20 minutes
	system time =       8.98 seconds =       0.15 minutes
	total time  =          7 seconds =       0.12 minutes
Total time:
	user time   =     132.28 seconds =       2.20 minutes
	system time =       8.98 seconds =       0.15 minutes
	total time  =          7 seconds =       0.12 minutes

  //>>>>>>>>>>>>>>>>>>>>>>>>>>>>>>>>>>>//
  //    Loading displacement 2 of 7    //
  //<<<<<<<<<<<<<<<<<<<<<<<<<<<<<<<<<<<//

*** tstart() called on bp1-compute00047.data.bp.acrc.priv
*** at Tue Apr 27 16:50:16 2021

   => Loading Basis Set <=

    Name: AUG-CC-PV(Q+D)Z
    Role: ORBITAL
    Keyword: BASIS
    atoms 1 entry O          line   439 file /work/zw18965/.conda/envs/p4env/share/psi4/basis/aug-cc-pv_qpd_z.gbs 
    atoms 2 entry H          line    56 file /work/zw18965/.conda/envs/p4env/share/psi4/basis/aug-cc-pv_qpd_z.gbs 
    atoms 3 entry CL         line  1246 file /work/zw18965/.conda/envs/p4env/share/psi4/basis/aug-cc-pv_qpd_z.gbs 


         ---------------------------------------------------------
                                   SCF
               by Justin Turney, Rob Parrish, Andy Simmonett
                          and Daniel G. A. Smith
                              RKS Reference
                       24 Threads, 137329 MiB Core
         ---------------------------------------------------------

  ==> Geometry <==

    Molecular point group: cs
    Full point group: Cs

    Geometry (in Angstrom), charge = 0, multiplicity = 1:

       Center              X                  Y                   Z               Mass       
    ------------   -----------------  -----------------  -----------------  -----------------
         O            1.111703321963     0.230912175849     0.000000000000    15.994914619570
         H            1.112597436607     1.194811925849     0.000000000000     1.007825032230
         CL          -0.540564010961    -0.140055550279     0.000000000000    34.968852682000

  Running in cs symmetry.

  Rotational constants: A =     20.46704  B =      0.50491  C =      0.49275 [cm^-1]
  Rotational constants: A = 613586.42524  B =  15136.75480  C =  14772.33155 [MHz]
  Nuclear repulsion =   51.124932358011193

  Charge       = 0
  Multiplicity = 1
  Electrons    = 26
  Nalpha       = 13
  Nbeta        = 13

  ==> Algorithm <==

  SCF Algorithm Type is DF.
  DIIS enabled.
  MOM disabled.
  Fractional occupation disabled.
  Guess Type is SAD.
  Energy threshold   = 1.00e-08
  Density threshold  = 1.00e-08
  Integral threshold = 0.00e+00

  ==> Primary Basis <==

  Basis Set: AUG-CC-PV(Q+D)Z
    Blend: AUG-CC-PV(Q+D)Z
    Number of shells: 57
    Number of basis function: 215
    Number of Cartesian functions: 275
    Spherical Harmonics?: true
    Max angular momentum: 4

  ==> DFT Potential <==

   => Composite Functional: WB97M-V <= 

    wB97M-V Hyb-GGA Exchange-Correlation Functional

    N. Mardirossian and M. Head-Gordon, J. Chem. Phys. 144, 214110 (2016)

    Deriv               =              1
    GGA                 =           TRUE
    Meta                =           TRUE

    Exchange Hybrid     =           TRUE
    MP2 Hybrid          =          FALSE

   => Exchange-Correlation Functionals <=

    1.0000   wB97M-V exchange-correlation functional

   => Exact (HF) Exchange <=

    0.8500            HF,LR [omega = 0.3000]
    0.1500               HF 

   => VV10 Non-Local Parameters <=

    VV10 B              =     6.0000E+00
    VV10 C              =     1.0000E-02

   => Molecular Quadrature <=

    Radial Scheme          =       TREUTLER
    Pruning Scheme         =           FLAT
    Nuclear Scheme         =       TREUTLER

    BS radius alpha        =              1
    Pruning alpha          =              1
    Radial Points          =             75
    Spherical Points       =            302
    Total Points           =          67950
    Total Blocks           =            574
    Max Points             =            255
    Max Functions          =            215

   => Loading Basis Set <=

    Name: (AUG-CC-PV(Q+D)Z AUX)
    Role: JKFIT
    Keyword: DF_BASIS_SCF
    atoms 1 entry O          line   318 file /work/zw18965/.conda/envs/p4env/share/psi4/basis/aug-cc-pvqz-jkfit.gbs 
    atoms 2 entry H          line    70 file /work/zw18965/.conda/envs/p4env/share/psi4/basis/aug-cc-pvqz-jkfit.gbs 
    atoms 3 entry CL         line   904 file /work/zw18965/.conda/envs/p4env/share/psi4/basis/aug-cc-pvqz-jkfit.gbs 

  ==> Pre-Iterations <==

   -------------------------------------------------------
    Irrep   Nso     Nmo     Nalpha   Nbeta   Ndocc  Nsocc
   -------------------------------------------------------
     A'       136     136       0       0       0       0
     A"        79      79       0       0       0       0
   -------------------------------------------------------
    Total     215     215      13      13      13       0
   -------------------------------------------------------

  ==> Integral Setup <==

  ==> DiskDFJK: Density-Fitted J/K Matrices <==

    J tasked:                  Yes
    K tasked:                  Yes
    wK tasked:                 Yes
    Omega:               3.000E-01
    OpenMP threads:             24
    Integrals threads:          24
    Memory [MiB]:           102048
    Algorithm:                Core
    Integral Cache:           NONE
    Schwarz Cutoff:          1E-12
    Fitting Condition:       1E-10

   => Auxiliary Basis Set <=

  Basis Set: (AUG-CC-PV(Q+D)Z AUX)
    Blend: AUG-CC-PVQZ-JKFIT
    Number of shells: 98
    Number of basis function: 402
    Number of Cartesian functions: 546
    Spherical Harmonics?: true
    Max angular momentum: 5

  Cached 100.0% of DFT collocation blocks in 0.926 [GiB].

  Minimum eigenvalue in the overlap matrix is 8.0331006045E-05.
  Using Symmetric Orthogonalization.

  SCF Guess: Superposition of Atomic Densities via on-the-fly atomic UHF.

  ==> Iterations <==

                           Total Energy        Delta E     RMS |[F,P]|

   @DF-RKS iter SAD:  -535.60570949590044   -5.35606e+02   0.00000e+00 
   @DF-RKS iter   1:  -535.90700643623063   -3.01297e-01   2.85543e-03 DIIS
   @DF-RKS iter   2:  -535.90051842437379    6.48801e-03   3.07599e-03 DIIS
   @DF-RKS iter   3:  -535.97645292772188   -7.59345e-02   4.31629e-04 DIIS
   @DF-RKS iter   4:  -535.97797321275732   -1.52029e-03   6.27235e-05 DIIS
   @DF-RKS iter   5:  -535.97803799102167   -6.47783e-05   1.51469e-05 DIIS
   @DF-RKS iter   6:  -535.97804242925474   -4.43823e-06   3.89164e-06 DIIS
   @DF-RKS iter   7:  -535.97804309386322   -6.64608e-07   1.50071e-06 DIIS
   @DF-RKS iter   8:  -535.97804323453079   -1.40668e-07   6.50787e-07 DIIS
   @DF-RKS iter   9:  -535.97804326099538   -2.64646e-08   2.00017e-07 DIIS
   @DF-RKS iter  10:  -535.97804326296523   -1.96985e-09   4.55026e-08 DIIS
   @DF-RKS iter  11:  -535.97804326301468   -4.94538e-11   1.25256e-08 DIIS
   @DF-RKS iter  12:  -535.97804326302025   -5.57066e-12   2.71377e-09 DIIS
  Energy and wave function converged.


  ==> Post-Iterations <==

    Orbital Energies [Eh]
    ---------------------

    Doubly Occupied:                                                      

       1Ap  -101.939763     2Ap   -19.407122     3Ap    -9.693294  
       4Ap    -7.402199     5Ap    -7.388794     1App   -7.388476  
       6Ap    -1.204343     7Ap    -0.925080     8Ap    -0.644686  
       9Ap    -0.553663     2App   -0.527520    10Ap    -0.423326  
       3App   -0.391004  

    Virtual:                                                              

      11Ap    -0.003782    12Ap     0.017794    13Ap     0.067565  
       4App    0.073530    14Ap     0.078265    15Ap     0.105438  
      16Ap     0.115181    17Ap     0.121143     5App    0.131971  
      18Ap     0.167856     6App    0.171640    19Ap     0.223354  
      20Ap     0.237265     7App    0.262895    21Ap     0.280260  
       8App    0.282514    22Ap     0.286232    23Ap     0.308427  
      24Ap     0.309713     9App    0.405850    25Ap     0.410030  
      26Ap     0.457707    10App    0.474354    27Ap     0.477057  
      28Ap     0.484685    11App    0.509615    29Ap     0.515662  
      30Ap     0.562794    12App    0.567524    13App    0.589185  
      31Ap     0.598018    14App    0.615460    32Ap     0.617518  
      33Ap     0.645102    34Ap     0.662991    35Ap     0.679546  
      15App    0.692324    36Ap     0.703598    16App    0.753768  
      37Ap     0.768974    38Ap     0.814430    17App    0.819521  
      39Ap     0.884784    40Ap     0.922942    41Ap     0.940648  
      18App    0.958507    19App    0.968389    42Ap     0.976355  
      20App    1.072661    43Ap     1.093129    44Ap     1.172951  
      45Ap     1.224851    46Ap     1.358657    21App    1.371012  
      47Ap     1.385413    22App    1.403435    48Ap     1.409409  
      23App    1.417899    49Ap     1.445618    50Ap     1.466965  
      51Ap     1.478120    24App    1.483692    25App    1.494661  
      52Ap     1.520892    26App    1.541042    53Ap     1.584345  
      27App    1.599901    54Ap     1.622954    55Ap     1.636274  
      28App    1.644918    56Ap     1.725735    57Ap     1.755286  
      58Ap     1.774401    29App    1.775042    59Ap     1.799037  
      30App    1.852404    31App    1.864001    60Ap     1.874522  
      61Ap     1.919992    32App    1.924432    62Ap     1.932824  
      33App    1.958841    34App    1.997825    63Ap     2.001291  
      64Ap     2.040251    65Ap     2.058712    35App    2.064897  
      36App    2.120682    66Ap     2.133973    67Ap     2.182402  
      68Ap     2.216463    37App    2.274868    69Ap     2.304965  
      38App    2.331284    70Ap     2.432029    71Ap     2.466006  
      72Ap     2.582601    73Ap     2.720093    39App    2.836506  
      40App    2.903997    74Ap     2.928282    41App    2.954824  
      75Ap     2.983787    76Ap     3.224461    77Ap     3.310735  
      78Ap     3.441079    42App    3.442839    79Ap     3.448479  
      43App    3.452216    80Ap     3.541858    44App    3.576752  
      81Ap     3.616681    82Ap     3.754150    83Ap     3.807513  
      45App    3.809016    46App    3.845165    84Ap     3.869617  
      47App    3.937874    85Ap     3.946054    86Ap     4.023837  
      48App    4.043507    49App    4.119901    87Ap     4.121036  
      88Ap     4.212490    89Ap     4.277749    90Ap     4.299086  
      50App    4.357485    51App    4.373061    91Ap     4.375204  
      52App    4.404686    92Ap     4.411168    53App    4.427209  
      93Ap     4.427747    94Ap     4.445107    54App    4.464697  
      95Ap     4.528361    55App    4.586420    96Ap     4.612925  
      56App    4.717142    97Ap     4.737897    57App    4.791113  
      98Ap     4.827078    58App    4.863204    99Ap     4.938236  
     100Ap     5.016152   101Ap     5.041070    59App    5.293830  
     102Ap     5.357709    60App    5.582818   103Ap     5.605653  
     104Ap     5.687496   105Ap     5.911396    61App    5.974197  
     106Ap     6.194264    62App    6.624455   107Ap     6.657697  
     108Ap     7.410213    63App    7.470149   109Ap     7.554963  
      64App    7.555840   110Ap     7.688049   111Ap     7.842375  
     112Ap     8.260021    65App    8.368429    66App    8.455349  
     113Ap     8.555508   114Ap     8.814088   115Ap     9.439787  
      67App    9.523500   116Ap     9.710523   117Ap    10.356181  
      68App   10.437732   118Ap    10.470929    69App   10.497412  
     119Ap    10.523449    70App   10.544482   120Ap    10.834389  
      71App   10.839959   121Ap    10.880382    72App   10.913136  
      73App   11.003994   122Ap    11.036209   123Ap    11.099224  
      74App   11.175467   124Ap    11.274605   125Ap    11.453477  
      75App   11.604853   126Ap    11.625677   127Ap    11.768486  
      76App   11.840643   128Ap    11.898391    77App   12.309738  
     129Ap    12.327394   130Ap    12.514185    78App   12.803774  
     131Ap    12.928813   132Ap    14.097203    79App   14.106277  
     133Ap    14.162372   134Ap    16.444645   135Ap    24.563587  
     136Ap    43.096915  

    Final Occupation by Irrep:
             Ap   App 
    DOCC [    10,    3 ]

  @DF-RKS Final Energy:  -535.97804326302025

   => Energetics <=

    Nuclear Repulsion Energy =             51.1249323580111934
    One-Electron Energy =                -840.7515873098643624
    Two-Electron Energy =                 281.8101636426043228
    DFT Exchange-Correlation Energy =     -28.2702482036341181
    Empirical Dispersion Energy =           0.0000000000000000
    VV10 Nonlocal Energy =                  0.1086962498627448
    Total Energy =                       -535.9780432630202540

Computation Completed


Properties will be evaluated at   0.000000,   0.000000,   0.000000 [a0]

Properties computed using the SCF density matrix

  Nuclear Dipole Moment: [e a0]
     X:     1.5432      Y:     1.2494      Z:     0.0000

  Electronic Dipole Moment: [e a0]
     X:    -1.5554      Y:    -0.6515      Z:     0.0000

  Dipole Moment: [e a0]
     X:    -0.0122      Y:     0.5979      Z:     0.0000     Total:     0.5980

  Dipole Moment: [D]
     X:    -0.0310      Y:     1.5197      Z:     0.0000     Total:     1.5201


*** tstop() called on bp1-compute00047.data.bp.acrc.priv at Tue Apr 27 16:50:22 2021
Module time:
	user time   =     141.20 seconds =       2.35 minutes
	system time =       6.92 seconds =       0.12 minutes
	total time  =          6 seconds =       0.10 minutes
Total time:
	user time   =     273.68 seconds =       4.56 minutes
	system time =      15.91 seconds =       0.27 minutes
	total time  =         13 seconds =       0.22 minutes

  //>>>>>>>>>>>>>>>>>>>>>>>>>>>>>>>>>>>//
  //    Loading displacement 3 of 7    //
  //<<<<<<<<<<<<<<<<<<<<<<<<<<<<<<<<<<<//

*** tstart() called on bp1-compute00047.data.bp.acrc.priv
*** at Tue Apr 27 16:50:22 2021

   => Loading Basis Set <=

    Name: AUG-CC-PV(Q+D)Z
    Role: ORBITAL
    Keyword: BASIS
    atoms 1 entry O          line   439 file /work/zw18965/.conda/envs/p4env/share/psi4/basis/aug-cc-pv_qpd_z.gbs 
    atoms 2 entry H          line    56 file /work/zw18965/.conda/envs/p4env/share/psi4/basis/aug-cc-pv_qpd_z.gbs 
    atoms 3 entry CL         line  1246 file /work/zw18965/.conda/envs/p4env/share/psi4/basis/aug-cc-pv_qpd_z.gbs 


         ---------------------------------------------------------
                                   SCF
               by Justin Turney, Rob Parrish, Andy Simmonett
                          and Daniel G. A. Smith
                              RKS Reference
                       24 Threads, 137329 MiB Core
         ---------------------------------------------------------

  ==> Geometry <==

    Molecular point group: cs
    Full point group: Cs

    Geometry (in Angstrom), charge = 0, multiplicity = 1:

       Center              X                  Y                   Z               Mass       
    ------------   -----------------  -----------------  -----------------  -----------------
         O            1.112784191814     0.231106588601     0.000000000000    15.994914619570
         H            1.111890077169     1.195006338601     0.000000000000     1.007825032230
         CL          -0.541038019262    -0.140150078671     0.000000000000    34.968852682000

  Running in cs symmetry.

  Rotational constants: A =     20.44629  B =      0.50405  C =      0.49192 [cm^-1]
  Rotational constants: A = 612964.21034  B =  15111.04952  C =  14747.48828 [MHz]
  Nuclear repulsion =   51.085305923245024

  Charge       = 0
  Multiplicity = 1
  Electrons    = 26
  Nalpha       = 13
  Nbeta        = 13

  ==> Algorithm <==

  SCF Algorithm Type is DF.
  DIIS enabled.
  MOM disabled.
  Fractional occupation disabled.
  Guess Type is SAD.
  Energy threshold   = 1.00e-08
  Density threshold  = 1.00e-08
  Integral threshold = 0.00e+00

  ==> Primary Basis <==

  Basis Set: AUG-CC-PV(Q+D)Z
    Blend: AUG-CC-PV(Q+D)Z
    Number of shells: 57
    Number of basis function: 215
    Number of Cartesian functions: 275
    Spherical Harmonics?: true
    Max angular momentum: 4

  ==> DFT Potential <==

   => Composite Functional: WB97M-V <= 

    wB97M-V Hyb-GGA Exchange-Correlation Functional

    N. Mardirossian and M. Head-Gordon, J. Chem. Phys. 144, 214110 (2016)

    Deriv               =              1
    GGA                 =           TRUE
    Meta                =           TRUE

    Exchange Hybrid     =           TRUE
    MP2 Hybrid          =          FALSE

   => Exchange-Correlation Functionals <=

    1.0000   wB97M-V exchange-correlation functional

   => Exact (HF) Exchange <=

    0.8500            HF,LR [omega = 0.3000]
    0.1500               HF 

   => VV10 Non-Local Parameters <=

    VV10 B              =     6.0000E+00
    VV10 C              =     1.0000E-02

   => Molecular Quadrature <=

    Radial Scheme          =       TREUTLER
    Pruning Scheme         =           FLAT
    Nuclear Scheme         =       TREUTLER

    BS radius alpha        =              1
    Pruning alpha          =              1
    Radial Points          =             75
    Spherical Points       =            302
    Total Points           =          67950
    Total Blocks           =            576
    Max Points             =            254
    Max Functions          =            215

   => Loading Basis Set <=

    Name: (AUG-CC-PV(Q+D)Z AUX)
    Role: JKFIT
    Keyword: DF_BASIS_SCF
    atoms 1 entry O          line   318 file /work/zw18965/.conda/envs/p4env/share/psi4/basis/aug-cc-pvqz-jkfit.gbs 
    atoms 2 entry H          line    70 file /work/zw18965/.conda/envs/p4env/share/psi4/basis/aug-cc-pvqz-jkfit.gbs 
    atoms 3 entry CL         line   904 file /work/zw18965/.conda/envs/p4env/share/psi4/basis/aug-cc-pvqz-jkfit.gbs 

  ==> Pre-Iterations <==

   -------------------------------------------------------
    Irrep   Nso     Nmo     Nalpha   Nbeta   Ndocc  Nsocc
   -------------------------------------------------------
     A'       136     136       0       0       0       0
     A"        79      79       0       0       0       0
   -------------------------------------------------------
    Total     215     215      13      13      13       0
   -------------------------------------------------------

  ==> Integral Setup <==

  ==> DiskDFJK: Density-Fitted J/K Matrices <==

    J tasked:                  Yes
    K tasked:                  Yes
    wK tasked:                 Yes
    Omega:               3.000E-01
    OpenMP threads:             24
    Integrals threads:          24
    Memory [MiB]:           102048
    Algorithm:                Core
    Integral Cache:           NONE
    Schwarz Cutoff:          1E-12
    Fitting Condition:       1E-10

   => Auxiliary Basis Set <=

  Basis Set: (AUG-CC-PV(Q+D)Z AUX)
    Blend: AUG-CC-PVQZ-JKFIT
    Number of shells: 98
    Number of basis function: 402
    Number of Cartesian functions: 546
    Spherical Harmonics?: true
    Max angular momentum: 5

  Cached 100.0% of DFT collocation blocks in 0.926 [GiB].

  Minimum eigenvalue in the overlap matrix is 8.0479539414E-05.
  Using Symmetric Orthogonalization.

  SCF Guess: Superposition of Atomic Densities via on-the-fly atomic UHF.

  ==> Iterations <==

                           Total Energy        Delta E     RMS |[F,P]|

   @DF-RKS iter SAD:  -535.60364775419487   -5.35604e+02   0.00000e+00 
   @DF-RKS iter   1:  -535.90697741002737   -3.03330e-01   2.85519e-03 DIIS
   @DF-RKS iter   2:  -535.90025393801693    6.72347e-03   3.07974e-03 DIIS
   @DF-RKS iter   3:  -535.97642960279586   -7.61757e-02   4.31677e-04 DIIS
   @DF-RKS iter   4:  -535.97795092317654   -1.52132e-03   6.27551e-05 DIIS
   @DF-RKS iter   5:  -535.97801562665836   -6.47035e-05   1.51475e-05 DIIS
   @DF-RKS iter   6:  -535.97802005720098   -4.43054e-06   3.88925e-06 DIIS
   @DF-RKS iter   7:  -535.97802072146044   -6.64259e-07   1.50215e-06 DIIS
   @DF-RKS iter   8:  -535.97802086252318   -1.41063e-07   6.51983e-07 DIIS
   @DF-RKS iter   9:  -535.97802088915876   -2.66356e-08   2.00380e-07 DIIS
   @DF-RKS iter  10:  -535.97802089114055   -1.98179e-09   4.55315e-08 DIIS
   @DF-RKS iter  11:  -535.97802089118989   -4.93401e-11   1.25526e-08 DIIS
   @DF-RKS iter  12:  -535.97802089119659   -6.70752e-12   2.72243e-09 DIIS
  Energy and wave function converged.


  ==> Post-Iterations <==

    Orbital Energies [Eh]
    ---------------------

    Doubly Occupied:                                                      

       1Ap  -101.939832     2Ap   -19.407237     3Ap    -9.693350  
       4Ap    -7.402256     5Ap    -7.388851     1App   -7.388535  
       6Ap    -1.203976     7Ap    -0.925161     8Ap    -0.644424  
       9Ap    -0.553548     2App   -0.527290    10Ap    -0.423492  
       3App   -0.391204  

    Virtual:                                                              

      11Ap    -0.004013    12Ap     0.017642    13Ap     0.067577  
       4App    0.073540    14Ap     0.078089    15Ap     0.105445  
      16Ap     0.115138    17Ap     0.121160     5App    0.131989  
      18Ap     0.167851     6App    0.171639    19Ap     0.223354  
      20Ap     0.237240     7App    0.262898    21Ap     0.280179  
       8App    0.282398    22Ap     0.286260    23Ap     0.308354  
      24Ap     0.309675     9App    0.405998    25Ap     0.410024  
      26Ap     0.457728    10App    0.474372    27Ap     0.477066  
      28Ap     0.484631    11App    0.509571    29Ap     0.515874  
      30Ap     0.562704    12App    0.567443    13App    0.589103  
      31Ap     0.597991    14App    0.615503    32Ap     0.617415  
      33Ap     0.645075    34Ap     0.662638    35Ap     0.679529  
      15App    0.692241    36Ap     0.703632    16App    0.753713  
      37Ap     0.768920    38Ap     0.814247    17App    0.819407  
      39Ap     0.884590    40Ap     0.922963    41Ap     0.940703  
      18App    0.958415    19App    0.968435    42Ap     0.976259  
      20App    1.072617    43Ap     1.092871    44Ap     1.172946  
      45Ap     1.224664    46Ap     1.358749    21App    1.371094  
      47Ap     1.385410    22App    1.403454    48Ap     1.409508  
      23App    1.417853    49Ap     1.445563    50Ap     1.466685  
      51Ap     1.478181    24App    1.483431    25App    1.494644  
      52Ap     1.520851    26App    1.540769    53Ap     1.584204  
      27App    1.599912    54Ap     1.622844    55Ap     1.636200  
      28App    1.644540    56Ap     1.725257    57Ap     1.755163  
      58Ap     1.774214    29App    1.774897    59Ap     1.798906  
      30App    1.852026    31App    1.864160    60Ap     1.874565  
      61Ap     1.920148    32App    1.924376    62Ap     1.932641  
      33App    1.958523    34App    1.997746    63Ap     2.001034  
      64Ap     2.040104    65Ap     2.058204    35App    2.064841  
      36App    2.120330    66Ap     2.133931    67Ap     2.181364  
      68Ap     2.216243    37App    2.275311    69Ap     2.304757  
      38App    2.330949    70Ap     2.431811    71Ap     2.464166  
      72Ap     2.581683    73Ap     2.720494    39App    2.836024  
      40App    2.902782    74Ap     2.927841    41App    2.954032  
      75Ap     2.983710    76Ap     3.224791    77Ap     3.310611  
      78Ap     3.441138    42App    3.442067    79Ap     3.448374  
      43App    3.451958    80Ap     3.541647    44App    3.576779  
      81Ap     3.616418    82Ap     3.754228    83Ap     3.806561  
      45App    3.809016    46App    3.845250    84Ap     3.869455  
      47App    3.937889    85Ap     3.945830    86Ap     4.023666  
      48App    4.043447    49App    4.119999    87Ap     4.121018  
      88Ap     4.212876    89Ap     4.276954    90Ap     4.298187  
      50App    4.357327    51App    4.372838    91Ap     4.375134  
      52App    4.404904    92Ap     4.411034    53App    4.427043  
      93Ap     4.427775    94Ap     4.443796    54App    4.464421  
      95Ap     4.527687    55App    4.586083    96Ap     4.612435  
      56App    4.715895    97Ap     4.736817    57App    4.789451  
      98Ap     4.825984    58App    4.861960    99Ap     4.936850  
     100Ap     5.014435   101Ap     5.041855    59App    5.293126  
     102Ap     5.356808    60App    5.581523   103Ap     5.604137  
     104Ap     5.685889   105Ap     5.908897    61App    5.972205  
     106Ap     6.192966    62App    6.624289   107Ap     6.656861  
     108Ap     7.407593    63App    7.470123   109Ap     7.554621  
      64App    7.555315   110Ap     7.688005   111Ap     7.841541  
     112Ap     8.259655    65App    8.367844    66App    8.454838  
     113Ap     8.555338   114Ap     8.813611   115Ap     9.439605  
      67App    9.523288   116Ap     9.709988   117Ap    10.355556  
      68App   10.437568   118Ap    10.471001    69App   10.497125  
     119Ap    10.522672    70App   10.543999   120Ap    10.834205  
      71App   10.839872   121Ap    10.879301    72App   10.913073  
      73App   11.003105   122Ap    11.036065   123Ap    11.097773  
      74App   11.175303   124Ap    11.273815   125Ap    11.453563  
      75App   11.604806   126Ap    11.624640   127Ap    11.768327  
      76App   11.838515   128Ap    11.898624    77App   12.309638  
     129Ap    12.323628   130Ap    12.512690    78App   12.803290  
     131Ap    12.928742   132Ap    14.096160    79App   14.106261  
     133Ap    14.161713   134Ap    16.444405   135Ap    24.556627  
     136Ap    43.091889  

    Final Occupation by Irrep:
             Ap   App 
    DOCC [    10,    3 ]

  @DF-RKS Final Energy:  -535.97802089119659

   => Energetics <=

    Nuclear Repulsion Energy =             51.0853059232450235
    One-Electron Energy =                -840.6728243798000904
    Two-Electron Energy =                 281.7705206207644437
    DFT Exchange-Correlation Energy =     -28.2697215578633489
    Empirical Dispersion Energy =           0.0000000000000000
    VV10 Nonlocal Energy =                  0.1086985024573585
    Total Energy =                       -535.9780208911964792

Computation Completed


Properties will be evaluated at   0.000000,   0.000000,   0.000000 [a0]

Properties computed using the SCF density matrix

  Nuclear Dipole Moment: [e a0]
     X:     1.5430      Y:     1.2497      Z:     0.0000

  Electronic Dipole Moment: [e a0]
     X:    -1.5566      Y:    -0.6521      Z:     0.0000

  Dipole Moment: [e a0]
     X:    -0.0136      Y:     0.5975      Z:     0.0000     Total:     0.5977

  Dipole Moment: [D]
     X:    -0.0345      Y:     1.5188      Z:     0.0000     Total:     1.5192


*** tstop() called on bp1-compute00047.data.bp.acrc.priv at Tue Apr 27 16:50:28 2021
Module time:
	user time   =     129.84 seconds =       2.16 minutes
	system time =       3.85 seconds =       0.06 minutes
	total time  =          6 seconds =       0.10 minutes
Total time:
	user time   =     403.67 seconds =       6.73 minutes
	system time =      19.77 seconds =       0.33 minutes
	total time  =         19 seconds =       0.32 minutes

  //>>>>>>>>>>>>>>>>>>>>>>>>>>>>>>>>>>>//
  //    Loading displacement 4 of 7    //
  //<<<<<<<<<<<<<<<<<<<<<<<<<<<<<<<<<<<//

*** tstart() called on bp1-compute00047.data.bp.acrc.priv
*** at Tue Apr 27 16:50:28 2021

   => Loading Basis Set <=

    Name: AUG-CC-PV(Q+D)Z
    Role: ORBITAL
    Keyword: BASIS
    atoms 1 entry O          line   439 file /work/zw18965/.conda/envs/p4env/share/psi4/basis/aug-cc-pv_qpd_z.gbs 
    atoms 2 entry H          line    56 file /work/zw18965/.conda/envs/p4env/share/psi4/basis/aug-cc-pv_qpd_z.gbs 
    atoms 3 entry CL         line  1246 file /work/zw18965/.conda/envs/p4env/share/psi4/basis/aug-cc-pv_qpd_z.gbs 


         ---------------------------------------------------------
                                   SCF
               by Justin Turney, Rob Parrish, Andy Simmonett
                          and Daniel G. A. Smith
                              RKS Reference
                       24 Threads, 137329 MiB Core
         ---------------------------------------------------------

  ==> Geometry <==

    Molecular point group: cs
    Full point group: Cs

    Geometry (in Angstrom), charge = 0, multiplicity = 1:

       Center              X                  Y                   Z               Mass       
    ------------   -----------------  -----------------  -----------------  -----------------
         O            1.112243756888     0.230807894878     0.000000000000    15.994914619570
         H            1.110724487436     1.196879908696     0.000000000000     1.007825032230
         CL          -0.540757228780    -0.140067452289     0.000000000000    34.968852682000

  Running in cs symmetry.

  Rotational constants: A =     20.34748  B =      0.50458  C =      0.49237 [cm^-1]
  Rotational constants: A = 610002.12483  B =  15126.86654  C =  14760.82674 [MHz]
  Nuclear repulsion =   51.097599763107823

  Charge       = 0
  Multiplicity = 1
  Electrons    = 26
  Nalpha       = 13
  Nbeta        = 13

  ==> Algorithm <==

  SCF Algorithm Type is DF.
  DIIS enabled.
  MOM disabled.
  Fractional occupation disabled.
  Guess Type is SAD.
  Energy threshold   = 1.00e-08
  Density threshold  = 1.00e-08
  Integral threshold = 0.00e+00

  ==> Primary Basis <==

  Basis Set: AUG-CC-PV(Q+D)Z
    Blend: AUG-CC-PV(Q+D)Z
    Number of shells: 57
    Number of basis function: 215
    Number of Cartesian functions: 275
    Spherical Harmonics?: true
    Max angular momentum: 4

  ==> DFT Potential <==

   => Composite Functional: WB97M-V <= 

    wB97M-V Hyb-GGA Exchange-Correlation Functional

    N. Mardirossian and M. Head-Gordon, J. Chem. Phys. 144, 214110 (2016)

    Deriv               =              1
    GGA                 =           TRUE
    Meta                =           TRUE

    Exchange Hybrid     =           TRUE
    MP2 Hybrid          =          FALSE

   => Exchange-Correlation Functionals <=

    1.0000   wB97M-V exchange-correlation functional

   => Exact (HF) Exchange <=

    0.8500            HF,LR [omega = 0.3000]
    0.1500               HF 

   => VV10 Non-Local Parameters <=

    VV10 B              =     6.0000E+00
    VV10 C              =     1.0000E-02

   => Molecular Quadrature <=

    Radial Scheme          =       TREUTLER
    Pruning Scheme         =           FLAT
    Nuclear Scheme         =       TREUTLER

    BS radius alpha        =              1
    Pruning alpha          =              1
    Radial Points          =             75
    Spherical Points       =            302
    Total Points           =          67950
    Total Blocks           =            574
    Max Points             =            256
    Max Functions          =            215

   => Loading Basis Set <=

    Name: (AUG-CC-PV(Q+D)Z AUX)
    Role: JKFIT
    Keyword: DF_BASIS_SCF
    atoms 1 entry O          line   318 file /work/zw18965/.conda/envs/p4env/share/psi4/basis/aug-cc-pvqz-jkfit.gbs 
    atoms 2 entry H          line    70 file /work/zw18965/.conda/envs/p4env/share/psi4/basis/aug-cc-pvqz-jkfit.gbs 
    atoms 3 entry CL         line   904 file /work/zw18965/.conda/envs/p4env/share/psi4/basis/aug-cc-pvqz-jkfit.gbs 

  ==> Pre-Iterations <==

   -------------------------------------------------------
    Irrep   Nso     Nmo     Nalpha   Nbeta   Ndocc  Nsocc
   -------------------------------------------------------
     A'       136     136       0       0       0       0
     A"        79      79       0       0       0       0
   -------------------------------------------------------
    Total     215     215      13      13      13       0
   -------------------------------------------------------

  ==> Integral Setup <==

  ==> DiskDFJK: Density-Fitted J/K Matrices <==

    J tasked:                  Yes
    K tasked:                  Yes
    wK tasked:                 Yes
    Omega:               3.000E-01
    OpenMP threads:             24
    Integrals threads:          24
    Memory [MiB]:           102048
    Algorithm:                Core
    Integral Cache:           NONE
    Schwarz Cutoff:          1E-12
    Fitting Condition:       1E-10

   => Auxiliary Basis Set <=

  Basis Set: (AUG-CC-PV(Q+D)Z AUX)
    Blend: AUG-CC-PVQZ-JKFIT
    Number of shells: 98
    Number of basis function: 402
    Number of Cartesian functions: 546
    Spherical Harmonics?: true
    Max angular momentum: 5

  Cached 100.0% of DFT collocation blocks in 0.926 [GiB].

  Minimum eigenvalue in the overlap matrix is 8.0940728259E-05.
  Using Symmetric Orthogonalization.

  SCF Guess: Superposition of Atomic Densities via on-the-fly atomic UHF.

  ==> Iterations <==

                           Total Energy        Delta E     RMS |[F,P]|

   @DF-RKS iter SAD:  -535.60402854408153   -5.35604e+02   0.00000e+00 
   @DF-RKS iter   1:  -535.90707778237459   -3.03049e-01   2.85212e-03 DIIS
   @DF-RKS iter   2:  -535.90047401571928    6.60377e-03   3.07566e-03 DIIS
   @DF-RKS iter   3:  -535.97643152582134   -7.59575e-02   4.32071e-04 DIIS
   @DF-RKS iter   4:  -535.97795512965274   -1.52360e-03   6.27619e-05 DIIS
   @DF-RKS iter   5:  -535.97801993340647   -6.48038e-05   1.51489e-05 DIIS
   @DF-RKS iter   6:  -535.97802436253312   -4.42913e-06   3.87879e-06 DIIS
   @DF-RKS iter   7:  -535.97802502229320   -6.59760e-07   1.49335e-06 DIIS
   @DF-RKS iter   8:  -535.97802516179593   -1.39503e-07   6.49686e-07 DIIS
   @DF-RKS iter   9:  -535.97802518817264   -2.63767e-08   2.00146e-07 DIIS
   @DF-RKS iter  10:  -535.97802519014908   -1.97645e-09   4.55675e-08 DIIS
   @DF-RKS iter  11:  -535.97802519019979   -5.07043e-11   1.25679e-08 DIIS
   @DF-RKS iter  12:  -535.97802519020581   -6.02540e-12   2.72811e-09 DIIS
  Energy and wave function converged.


  ==> Post-Iterations <==

    Orbital Energies [Eh]
    ---------------------

    Doubly Occupied:                                                      

       1Ap  -101.939723     2Ap   -19.407373     3Ap    -9.693255  
       4Ap    -7.402157     5Ap    -7.388756     1App   -7.388439  
       6Ap    -1.203827     7Ap    -0.924850     8Ap    -0.644200  
       9Ap    -0.553631     2App   -0.527373    10Ap    -0.423339  
       3App   -0.391036  

    Virtual:                                                              

      11Ap    -0.003905    12Ap     0.017728    13Ap     0.067559  
       4App    0.073535    14Ap     0.078212    15Ap     0.105395  
      16Ap     0.115047    17Ap     0.121139     5App    0.132016  
      18Ap     0.167772     6App    0.171559    19Ap     0.223314  
      20Ap     0.237294     7App    0.262924    21Ap     0.280168  
       8App    0.282449    22Ap     0.285953    23Ap     0.308438  
      24Ap     0.309458     9App    0.405935    25Ap     0.409919  
      26Ap     0.457816    10App    0.474214    27Ap     0.477009  
      28Ap     0.484623    11App    0.509623    29Ap     0.515745  
      30Ap     0.562700    12App    0.567612    13App    0.589094  
      31Ap     0.597835    14App    0.615565    32Ap     0.617392  
      33Ap     0.645206    34Ap     0.662780    35Ap     0.679010  
      15App    0.692374    36Ap     0.703507    16App    0.753887  
      37Ap     0.768962    38Ap     0.814315    17App    0.819378  
      39Ap     0.884580    40Ap     0.922855    41Ap     0.940742  
      18App    0.958392    19App    0.968458    42Ap     0.976288  
      20App    1.072088    43Ap     1.092883    44Ap     1.173054  
      45Ap     1.224680    46Ap     1.358451    21App    1.371189  
      47Ap     1.384649    22App    1.403420    48Ap     1.409445  
      23App    1.417941    49Ap     1.445648    50Ap     1.466710  
      51Ap     1.477578    24App    1.483483    25App    1.494666  
      52Ap     1.521000    26App    1.540961    53Ap     1.584171  
      27App    1.600266    54Ap     1.623060    55Ap     1.636420  
      28App    1.644609    56Ap     1.724961    57Ap     1.755880  
      58Ap     1.774262    29App    1.774843    59Ap     1.799035  
      30App    1.852681    31App    1.864103    60Ap     1.874395  
      61Ap     1.919685    32App    1.924458    62Ap     1.932735  
      33App    1.959243    34App    1.997868    63Ap     2.001108  
      64Ap     2.040194    65Ap     2.058369    35App    2.064965  
      36App    2.120413    66Ap     2.133948    67Ap     2.181574  
      68Ap     2.215635    37App    2.273564    69Ap     2.304188  
      38App    2.330644    70Ap     2.430850    71Ap     2.465316  
      72Ap     2.581125    73Ap     2.720310    39App    2.835964  
      40App    2.901998    74Ap     2.927182    41App    2.951383  
      75Ap     2.981847    76Ap     3.224934    77Ap     3.309898  
      78Ap     3.441040    42App    3.442328    79Ap     3.448073  
      43App    3.452189    80Ap     3.541424    44App    3.576830  
      81Ap     3.616320    82Ap     3.753421    83Ap     3.807022  
      45App    3.809093    46App    3.845169    84Ap     3.868810  
      47App    3.938321    85Ap     3.946234    86Ap     4.022801  
      48App    4.043882    49App    4.120934    87Ap     4.120954  
      88Ap     4.211847    89Ap     4.276545    90Ap     4.297781  
      50App    4.356220    51App    4.372770    91Ap     4.375239  
      52App    4.404250    92Ap     4.411149    53App    4.427027  
      93Ap     4.428149    94Ap     4.444415    54App    4.464451  
      95Ap     4.527989    55App    4.584449    96Ap     4.612643  
      56App    4.715245    97Ap     4.737166    57App    4.790397  
      98Ap     4.824948    58App    4.862435    99Ap     4.936258  
     100Ap     5.015712   101Ap     5.039987    59App    5.289364  
     102Ap     5.358731    60App    5.581433   103Ap     5.600354  
     104Ap     5.684641   105Ap     5.908413    61App    5.973377  
     106Ap     6.193090    62App    6.622018   107Ap     6.654587  
     108Ap     7.409231    63App    7.468705   109Ap     7.547057  
      64App    7.548270   110Ap     7.685267   111Ap     7.836727  
     112Ap     8.254399    65App    8.367214    66App    8.456274  
     113Ap     8.553246   114Ap     8.814099   115Ap     9.432493  
      67App    9.513687   116Ap     9.699988   117Ap    10.365608  
      68App   10.438093   118Ap    10.471498    69App   10.498170  
     119Ap    10.522961    70App   10.543533   120Ap    10.834383  
      71App   10.839962   121Ap    10.877760    72App   10.908705  
      73App   11.003587   122Ap    11.035372   123Ap    11.098192  
      74App   11.175759   124Ap    11.272439   125Ap    11.453893  
      75App   11.604600   126Ap    11.625967   127Ap    11.764372  
      76App   11.839084   128Ap    11.892123    77App   12.300819  
     129Ap    12.321250   130Ap    12.507718    78App   12.802896  
     131Ap    12.928462   132Ap    14.080320    79App   14.088208  
     133Ap    14.145198   134Ap    16.427091   135Ap    24.560363  
     136Ap    43.080782  

    Final Occupation by Irrep:
             Ap   App 
    DOCC [    10,    3 ]

  @DF-RKS Final Energy:  -535.97802519020581

   => Energetics <=

    Nuclear Repulsion Energy =             51.0975997631078229
    One-Electron Energy =                -840.7000999608412712
    Two-Electron Energy =                 281.7850187511661488
    DFT Exchange-Correlation Energy =     -28.2692388675498947
    Empirical Dispersion Energy =           0.0000000000000000
    VV10 Nonlocal Energy =                  0.1086951239114009
    Total Energy =                       -535.9780251902058126

Computation Completed


Properties will be evaluated at   0.000000,   0.000000,   0.000000 [a0]

Properties computed using the SCF density matrix

  Nuclear Dipole Moment: [e a0]
     X:     1.5416      Y:     1.2514      Z:     0.0000

  Electronic Dipole Moment: [e a0]
     X:    -1.5546      Y:    -0.6527      Z:     0.0000

  Dipole Moment: [e a0]
     X:    -0.0129      Y:     0.5987      Z:     0.0000     Total:     0.5988

  Dipole Moment: [D]
     X:    -0.0329      Y:     1.5217      Z:     0.0000     Total:     1.5221


*** tstop() called on bp1-compute00047.data.bp.acrc.priv at Tue Apr 27 16:50:34 2021
Module time:
	user time   =     129.77 seconds =       2.16 minutes
	system time =       3.80 seconds =       0.06 minutes
	total time  =          6 seconds =       0.10 minutes
Total time:
	user time   =     533.59 seconds =       8.89 minutes
	system time =      23.57 seconds =       0.39 minutes
	total time  =         25 seconds =       0.42 minutes

  //>>>>>>>>>>>>>>>>>>>>>>>>>>>>>>>>>>>//
  //    Loading displacement 5 of 7    //
  //<<<<<<<<<<<<<<<<<<<<<<<<<<<<<<<<<<<//

*** tstart() called on bp1-compute00047.data.bp.acrc.priv
*** at Tue Apr 27 16:50:34 2021

   => Loading Basis Set <=

    Name: AUG-CC-PV(Q+D)Z
    Role: ORBITAL
    Keyword: BASIS
    atoms 1 entry O          line   439 file /work/zw18965/.conda/envs/p4env/share/psi4/basis/aug-cc-pv_qpd_z.gbs 
    atoms 2 entry H          line    56 file /work/zw18965/.conda/envs/p4env/share/psi4/basis/aug-cc-pv_qpd_z.gbs 
    atoms 3 entry CL         line  1246 file /work/zw18965/.conda/envs/p4env/share/psi4/basis/aug-cc-pv_qpd_z.gbs 


         ---------------------------------------------------------
                                   SCF
               by Justin Turney, Rob Parrish, Andy Simmonett
                          and Daniel G. A. Smith
                              RKS Reference
                       24 Threads, 137329 MiB Core
         ---------------------------------------------------------

  ==> Geometry <==

    Molecular point group: cs
    Full point group: Cs

    Geometry (in Angstrom), charge = 0, multiplicity = 1:

       Center              X                  Y                   Z               Mass       
    ------------   -----------------  -----------------  -----------------  -----------------
         O            1.112243756888     0.231210869573     0.000000000000    15.994914619570
         H            1.113763026341     1.192938355754     0.000000000000     1.007825032230
         CL          -0.540844801443    -0.140138176660     0.000000000000    34.968852682000

  Running in cs symmetry.

  Rotational constants: A =     20.56672  B =      0.50438  C =      0.49231 [cm^-1]
  Rotational constants: A = 616574.67125  B =  15120.92241  C =  14758.97230 [MHz]
  Nuclear repulsion =   51.112651295524337

  Charge       = 0
  Multiplicity = 1
  Electrons    = 26
  Nalpha       = 13
  Nbeta        = 13

  ==> Algorithm <==

  SCF Algorithm Type is DF.
  DIIS enabled.
  MOM disabled.
  Fractional occupation disabled.
  Guess Type is SAD.
  Energy threshold   = 1.00e-08
  Density threshold  = 1.00e-08
  Integral threshold = 0.00e+00

  ==> Primary Basis <==

  Basis Set: AUG-CC-PV(Q+D)Z
    Blend: AUG-CC-PV(Q+D)Z
    Number of shells: 57
    Number of basis function: 215
    Number of Cartesian functions: 275
    Spherical Harmonics?: true
    Max angular momentum: 4

  ==> DFT Potential <==

   => Composite Functional: WB97M-V <= 

    wB97M-V Hyb-GGA Exchange-Correlation Functional

    N. Mardirossian and M. Head-Gordon, J. Chem. Phys. 144, 214110 (2016)

    Deriv               =              1
    GGA                 =           TRUE
    Meta                =           TRUE

    Exchange Hybrid     =           TRUE
    MP2 Hybrid          =          FALSE

   => Exchange-Correlation Functionals <=

    1.0000   wB97M-V exchange-correlation functional

   => Exact (HF) Exchange <=

    0.8500            HF,LR [omega = 0.3000]
    0.1500               HF 

   => VV10 Non-Local Parameters <=

    VV10 B              =     6.0000E+00
    VV10 C              =     1.0000E-02

   => Molecular Quadrature <=

    Radial Scheme          =       TREUTLER
    Pruning Scheme         =           FLAT
    Nuclear Scheme         =       TREUTLER

    BS radius alpha        =              1
    Pruning alpha          =              1
    Radial Points          =             75
    Spherical Points       =            302
    Total Points           =          67950
    Total Blocks           =            572
    Max Points             =            255
    Max Functions          =            215

   => Loading Basis Set <=

    Name: (AUG-CC-PV(Q+D)Z AUX)
    Role: JKFIT
    Keyword: DF_BASIS_SCF
    atoms 1 entry O          line   318 file /work/zw18965/.conda/envs/p4env/share/psi4/basis/aug-cc-pvqz-jkfit.gbs 
    atoms 2 entry H          line    70 file /work/zw18965/.conda/envs/p4env/share/psi4/basis/aug-cc-pvqz-jkfit.gbs 
    atoms 3 entry CL         line   904 file /work/zw18965/.conda/envs/p4env/share/psi4/basis/aug-cc-pvqz-jkfit.gbs 

  ==> Pre-Iterations <==

   -------------------------------------------------------
    Irrep   Nso     Nmo     Nalpha   Nbeta   Ndocc  Nsocc
   -------------------------------------------------------
     A'       136     136       0       0       0       0
     A"        79      79       0       0       0       0
   -------------------------------------------------------
    Total     215     215      13      13      13       0
   -------------------------------------------------------

  ==> Integral Setup <==

  ==> DiskDFJK: Density-Fitted J/K Matrices <==

    J tasked:                  Yes
    K tasked:                  Yes
    wK tasked:                 Yes
    Omega:               3.000E-01
    OpenMP threads:             24
    Integrals threads:          24
    Memory [MiB]:           102048
    Algorithm:                Core
    Integral Cache:           NONE
    Schwarz Cutoff:          1E-12
    Fitting Condition:       1E-10

   => Auxiliary Basis Set <=

  Basis Set: (AUG-CC-PV(Q+D)Z AUX)
    Blend: AUG-CC-PVQZ-JKFIT
    Number of shells: 98
    Number of basis function: 402
    Number of Cartesian functions: 546
    Spherical Harmonics?: true
    Max angular momentum: 5

  Cached 100.0% of DFT collocation blocks in 0.926 [GiB].

  Minimum eigenvalue in the overlap matrix is 7.9871001361E-05.
  Using Symmetric Orthogonalization.

  SCF Guess: Superposition of Atomic Densities via on-the-fly atomic UHF.

  ==> Iterations <==

                           Total Energy        Delta E     RMS |[F,P]|

   @DF-RKS iter SAD:  -535.60531332520986   -5.35605e+02   0.00000e+00 
   @DF-RKS iter   1:  -535.90689448401247   -3.01581e-01   2.85856e-03 DIIS
   @DF-RKS iter   2:  -535.90028505511714    6.60943e-03   3.08015e-03 DIIS
   @DF-RKS iter   3:  -535.97644221103440   -7.61572e-02   4.31240e-04 DIIS
   @DF-RKS iter   4:  -535.97796025307616   -1.51804e-03   6.27178e-05 DIIS
   @DF-RKS iter   5:  -535.97802493528320   -6.46822e-05   1.51464e-05 DIIS
   @DF-RKS iter   6:  -535.97802937597294   -4.44069e-06   3.90258e-06 DIIS
   @DF-RKS iter   7:  -535.97803004530715   -6.69334e-07   1.50967e-06 DIIS
   @DF-RKS iter   8:  -535.97803018757247   -1.42265e-07   6.53098e-07 DIIS
   @DF-RKS iter   9:  -535.97803021429695   -2.67245e-08   2.00256e-07 DIIS
   @DF-RKS iter  10:  -535.97803021627283   -1.97588e-09   4.54723e-08 DIIS
   @DF-RKS iter  11:  -535.97803021632205   -4.92264e-11   1.25154e-08 DIIS
   @DF-RKS iter  12:  -535.97803021632853   -6.48015e-12   2.70890e-09 DIIS
  Energy and wave function converged.


  ==> Post-Iterations <==

    Orbital Energies [Eh]
    ---------------------

    Doubly Occupied:                                                      

       1Ap  -101.939873     2Ap   -19.406985     3Ap    -9.693390  
       4Ap    -7.402299     5Ap    -7.388889     1App   -7.388572  
       6Ap    -1.204494     7Ap    -0.925392     8Ap    -0.644910  
       9Ap    -0.553579     2App   -0.527436    10Ap    -0.423478  
       3App   -0.391172  

    Virtual:                                                              

      11Ap    -0.003890    12Ap     0.017708    13Ap     0.067583  
       4App    0.073535    14Ap     0.078141    15Ap     0.105488  
      16Ap     0.115271    17Ap     0.121165     5App    0.131944  
      18Ap     0.167935     6App    0.171720    19Ap     0.223394  
      20Ap     0.237211     7App    0.262869    21Ap     0.280265  
       8App    0.282463    22Ap     0.286537    23Ap     0.308342  
      24Ap     0.309939     9App    0.405913    25Ap     0.410137  
      26Ap     0.457619    10App    0.474512    27Ap     0.477113  
      28Ap     0.484694    11App    0.509563    29Ap     0.515790  
      30Ap     0.562797    12App    0.567355    13App    0.589195  
      31Ap     0.598170    14App    0.615397    32Ap     0.617541  
      33Ap     0.644970    34Ap     0.662842    35Ap     0.680066  
      15App    0.692190    36Ap     0.703739    16App    0.753594  
      37Ap     0.768932    38Ap     0.814363    17App    0.819548  
      39Ap     0.884793    40Ap     0.923047    41Ap     0.940612  
      18App    0.958528    19App    0.968365    42Ap     0.976327  
      20App    1.073194    43Ap     1.093117    44Ap     1.172843  
      45Ap     1.224837    46Ap     1.358937    21App    1.370915  
      47Ap     1.386171    22App    1.403468    48Ap     1.409471  
      23App    1.417812    49Ap     1.445529    50Ap     1.466934  
      51Ap     1.478750    24App    1.483641    25App    1.494638  
      52Ap     1.520748    26App    1.540853    53Ap     1.584381  
      27App    1.599551    54Ap     1.622735    55Ap     1.636062  
      28App    1.644851    56Ap     1.726023    57Ap     1.754569  
      58Ap     1.774359    29App    1.775095    59Ap     1.798908  
      30App    1.851742    31App    1.864057    60Ap     1.874688  
      61Ap     1.920455    32App    1.924348    62Ap     1.932730  
      33App    1.958119    34App    1.997696    63Ap     2.001218  
      64Ap     2.040161    65Ap     2.058547    35App    2.064765  
      36App    2.120600    66Ap     2.133954    67Ap     2.182186  
      68Ap     2.217071    37App    2.276627    69Ap     2.305536  
      38App    2.331592    70Ap     2.432985    71Ap     2.464851  
      72Ap     2.583179    73Ap     2.720277    39App    2.836568  
      40App    2.904777    74Ap     2.928949    41App    2.957497  
      75Ap     2.985661    76Ap     3.224320    77Ap     3.311430  
      78Ap     3.441147    42App    3.442591    79Ap     3.448750  
      43App    3.451970    80Ap     3.542088    44App    3.576677  
      81Ap     3.616775    82Ap     3.754960    83Ap     3.807057  
      45App    3.808932    46App    3.845247    84Ap     3.870267  
      47App    3.937444    85Ap     3.945647    86Ap     4.024732  
      48App    4.043055    49App    4.118968    87Ap     4.121092  
      88Ap     4.213518    89Ap     4.278162    90Ap     4.299478  
      50App    4.358544    51App    4.373164    91Ap     4.375099  
      52App    4.405336    92Ap     4.411053    53App    4.427228  
      93Ap     4.427363    94Ap     4.444497    54App    4.464667  
      95Ap     4.528058    55App    4.588066    96Ap     4.612712  
      56App    4.717799    97Ap     4.737543    57App    4.790170  
      98Ap     4.828125    58App    4.862725    99Ap     4.938840  
     100Ap     5.014816   101Ap     5.043019    59App    5.297600  
     102Ap     5.355783    60App    5.582940   103Ap     5.609436  
     104Ap     5.688762   105Ap     5.911948    61App    5.973021  
     106Ap     6.194144    62App    6.626739   107Ap     6.659984  
     108Ap     7.408521    63App    7.471483   109Ap     7.562517  
      64App    7.562973   110Ap     7.690732   111Ap     7.847233  
     112Ap     8.265260    65App    8.369041    66App    8.453960  
     113Ap     8.557660   114Ap     8.813669   115Ap     9.446960  
      67App    9.533020   116Ap     9.720486   117Ap    10.345756  
      68App   10.437218   118Ap    10.470534    69App   10.496383  
     119Ap    10.523192    70App   10.544965   120Ap    10.834211  
      71App   10.839865   121Ap    10.881858    72App   10.917533  
      73App   11.003513   122Ap    11.036952   123Ap    11.098802  
      74App   11.174981   124Ap    11.276002   125Ap    11.453127  
      75App   11.605076   126Ap    11.624300   127Ap    11.772002  
      76App   11.840070   128Ap    11.905563    77App   12.318668  
     129Ap    12.329566   130Ap    12.519433    78App   12.804178  
     131Ap    12.929101   132Ap    14.113110    79App   14.124374  
     133Ap    14.178998   134Ap    16.461779   135Ap    24.559844  
     136Ap    43.108164  

    Final Occupation by Irrep:
             Ap   App 
    DOCC [    10,    3 ]

  @DF-RKS Final Energy:  -535.97803021632853

   => Energetics <=

    Nuclear Repulsion Energy =             51.1126512955243371
    One-Electron Energy =                -840.7243127481876854
    Two-Electron Energy =                 281.7956652206227659
    DFT Exchange-Correlation Energy =     -28.2707336187374310
    Empirical Dispersion Energy =           0.0000000000000000
    VV10 Nonlocal Energy =                  0.1086996344495592
    Total Energy =                       -535.9780302163285342

Computation Completed


Properties will be evaluated at   0.000000,   0.000000,   0.000000 [a0]

Properties computed using the SCF density matrix

  Nuclear Dipole Moment: [e a0]
     X:     1.5446      Y:     1.2477      Z:     0.0000

  Electronic Dipole Moment: [e a0]
     X:    -1.5574      Y:    -0.6510      Z:     0.0000

  Dipole Moment: [e a0]
     X:    -0.0128      Y:     0.5968      Z:     0.0000     Total:     0.5969

  Dipole Moment: [D]
     X:    -0.0327      Y:     1.5168      Z:     0.0000     Total:     1.5172


*** tstop() called on bp1-compute00047.data.bp.acrc.priv at Tue Apr 27 16:50:40 2021
Module time:
	user time   =     130.27 seconds =       2.17 minutes
	system time =       3.65 seconds =       0.06 minutes
	total time  =          6 seconds =       0.10 minutes
Total time:
	user time   =     664.02 seconds =      11.07 minutes
	system time =      27.23 seconds =       0.45 minutes
	total time  =         31 seconds =       0.52 minutes

  //>>>>>>>>>>>>>>>>>>>>>>>>>>>>>>>>>>>//
  //    Loading displacement 6 of 7    //
  //<<<<<<<<<<<<<<<<<<<<<<<<<<<<<<<<<<<//

*** tstart() called on bp1-compute00047.data.bp.acrc.priv
*** at Tue Apr 27 16:50:40 2021

   => Loading Basis Set <=

    Name: AUG-CC-PV(Q+D)Z
    Role: ORBITAL
    Keyword: BASIS
    atoms 1 entry O          line   439 file /work/zw18965/.conda/envs/p4env/share/psi4/basis/aug-cc-pv_qpd_z.gbs 
    atoms 2 entry H          line    56 file /work/zw18965/.conda/envs/p4env/share/psi4/basis/aug-cc-pv_qpd_z.gbs 
    atoms 3 entry CL         line  1246 file /work/zw18965/.conda/envs/p4env/share/psi4/basis/aug-cc-pv_qpd_z.gbs 


         ---------------------------------------------------------
                                   SCF
               by Justin Turney, Rob Parrish, Andy Simmonett
                          and Daniel G. A. Smith
                              RKS Reference
                       24 Threads, 137329 MiB Core
         ---------------------------------------------------------

  ==> Geometry <==

    Molecular point group: cs
    Full point group: Cs

    Geometry (in Angstrom), charge = 0, multiplicity = 1:

       Center              X                  Y                   Z               Mass       
    ------------   -----------------  -----------------  -----------------  -----------------
         O            1.112243756888     0.231009382225     0.000000000000    15.994914619570
         H            1.110222258407     1.193276554168     0.000000000000     1.007825032230
         CL          -0.540742754213    -0.140055762516     0.000000000000    34.968852682000

  Running in cs symmetry.

  Rotational constants: A =     20.50253  B =      0.50462  C =      0.49250 [cm^-1]
  Rotational constants: A = 614650.53533  B =  15128.09462  C =  14764.69828 [MHz]
  Nuclear repulsion =   51.119570726180498

  Charge       = 0
  Multiplicity = 1
  Electrons    = 26
  Nalpha       = 13
  Nbeta        = 13

  ==> Algorithm <==

  SCF Algorithm Type is DF.
  DIIS enabled.
  MOM disabled.
  Fractional occupation disabled.
  Guess Type is SAD.
  Energy threshold   = 1.00e-08
  Density threshold  = 1.00e-08
  Integral threshold = 0.00e+00

  ==> Primary Basis <==

  Basis Set: AUG-CC-PV(Q+D)Z
    Blend: AUG-CC-PV(Q+D)Z
    Number of shells: 57
    Number of basis function: 215
    Number of Cartesian functions: 275
    Spherical Harmonics?: true
    Max angular momentum: 4

  ==> DFT Potential <==

   => Composite Functional: WB97M-V <= 

    wB97M-V Hyb-GGA Exchange-Correlation Functional

    N. Mardirossian and M. Head-Gordon, J. Chem. Phys. 144, 214110 (2016)

    Deriv               =              1
    GGA                 =           TRUE
    Meta                =           TRUE

    Exchange Hybrid     =           TRUE
    MP2 Hybrid          =          FALSE

   => Exchange-Correlation Functionals <=

    1.0000   wB97M-V exchange-correlation functional

   => Exact (HF) Exchange <=

    0.8500            HF,LR [omega = 0.3000]
    0.1500               HF 

   => VV10 Non-Local Parameters <=

    VV10 B              =     6.0000E+00
    VV10 C              =     1.0000E-02

   => Molecular Quadrature <=

    Radial Scheme          =       TREUTLER
    Pruning Scheme         =           FLAT
    Nuclear Scheme         =       TREUTLER

    BS radius alpha        =              1
    Pruning alpha          =              1
    Radial Points          =             75
    Spherical Points       =            302
    Total Points           =          67950
    Total Blocks           =            573
    Max Points             =            256
    Max Functions          =            215

   => Loading Basis Set <=

    Name: (AUG-CC-PV(Q+D)Z AUX)
    Role: JKFIT
    Keyword: DF_BASIS_SCF
    atoms 1 entry O          line   318 file /work/zw18965/.conda/envs/p4env/share/psi4/basis/aug-cc-pvqz-jkfit.gbs 
    atoms 2 entry H          line    70 file /work/zw18965/.conda/envs/p4env/share/psi4/basis/aug-cc-pvqz-jkfit.gbs 
    atoms 3 entry CL         line   904 file /work/zw18965/.conda/envs/p4env/share/psi4/basis/aug-cc-pvqz-jkfit.gbs 

  ==> Pre-Iterations <==

   -------------------------------------------------------
    Irrep   Nso     Nmo     Nalpha   Nbeta   Ndocc  Nsocc
   -------------------------------------------------------
     A'       136     136       0       0       0       0
     A"        79      79       0       0       0       0
   -------------------------------------------------------
    Total     215     215      13      13      13       0
   -------------------------------------------------------

  ==> Integral Setup <==

  ==> DiskDFJK: Density-Fitted J/K Matrices <==

    J tasked:                  Yes
    K tasked:                  Yes
    wK tasked:                 Yes
    Omega:               3.000E-01
    OpenMP threads:             24
    Integrals threads:          24
    Memory [MiB]:           102047
    Algorithm:                Core
    Integral Cache:           NONE
    Schwarz Cutoff:          1E-12
    Fitting Condition:       1E-10

   => Auxiliary Basis Set <=

  Basis Set: (AUG-CC-PV(Q+D)Z AUX)
    Blend: AUG-CC-PVQZ-JKFIT
    Number of shells: 98
    Number of basis function: 402
    Number of Cartesian functions: 546
    Spherical Harmonics?: true
    Max angular momentum: 5

  Cached 100.0% of DFT collocation blocks in 0.927 [GiB].

  Minimum eigenvalue in the overlap matrix is 8.0062030918E-05.
  Using Symmetric Orthogonalization.

  SCF Guess: Superposition of Atomic Densities via on-the-fly atomic UHF.

  ==> Iterations <==

                           Total Energy        Delta E     RMS |[F,P]|

   @DF-RKS iter SAD:  -535.60576005097607   -5.35606e+02   0.00000e+00 
   @DF-RKS iter   1:  -535.90691151845522   -3.01151e-01   2.85762e-03 DIIS
   @DF-RKS iter   2:  -535.90028428545634    6.62723e-03   3.07989e-03 DIIS
   @DF-RKS iter   3:  -535.97643738263764   -7.61531e-02   4.31297e-04 DIIS
   @DF-RKS iter   4:  -535.97795529100597   -1.51791e-03   6.26848e-05 DIIS
   @DF-RKS iter   5:  -535.97801985314265   -6.45621e-05   1.51287e-05 DIIS
   @DF-RKS iter   6:  -535.97802426250871   -4.40937e-06   3.88331e-06 DIIS
   @DF-RKS iter   7:  -535.97802492242670   -6.59918e-07   1.50067e-06 DIIS
   @DF-RKS iter   8:  -535.97802506253697   -1.40110e-07   6.49958e-07 DIIS
   @DF-RKS iter   9:  -535.97802508904044   -2.65035e-08   1.99842e-07 DIIS
   @DF-RKS iter  10:  -535.97802509101109   -1.97065e-09   4.53832e-08 DIIS
   @DF-RKS iter  11:  -535.97802509106020   -4.91127e-11   1.24807e-08 DIIS
   @DF-RKS iter  12:  -535.97802509106691   -6.70752e-12   2.71221e-09 DIIS
  Energy and wave function converged.


  ==> Post-Iterations <==

    Orbital Energies [Eh]
    ---------------------

    Doubly Occupied:                                                      

       1Ap  -101.939823     2Ap   -19.407108     3Ap    -9.693353  
       4Ap    -7.402258     5Ap    -7.388854     1App   -7.388536  
       6Ap    -1.204594     7Ap    -0.925240     8Ap    -0.644784  
       9Ap    -0.553778     2App   -0.527505    10Ap    -0.423494  
       3App   -0.391157  

    Virtual:                                                              

      11Ap    -0.003843    12Ap     0.017715    13Ap     0.067566  
       4App    0.073526    14Ap     0.078160    15Ap     0.105508  
      16Ap     0.115186    17Ap     0.121181     5App    0.131970  
      18Ap     0.167868     6App    0.171655    19Ap     0.223476  
      20Ap     0.237254     7App    0.262961    21Ap     0.280216  
       8App    0.282420    22Ap     0.286405    23Ap     0.308403  
      24Ap     0.309892     9App    0.405931    25Ap     0.409937  
      26Ap     0.457620    10App    0.474326    27Ap     0.477211  
      28Ap     0.484642    11App    0.509606    29Ap     0.515984  
      30Ap     0.562731    12App    0.567340    13App    0.589197  
      31Ap     0.598026    14App    0.615534    32Ap     0.617556  
      33Ap     0.645158    34Ap     0.662938    35Ap     0.679957  
      15App    0.692288    36Ap     0.703778    16App    0.753691  
      37Ap     0.769072    38Ap     0.814250    17App    0.819531  
      39Ap     0.884601    40Ap     0.923339    41Ap     0.940582  
      18App    0.958519    19App    0.968371    42Ap     0.976196  
      20App    1.073010    43Ap     1.093097    44Ap     1.173089  
      45Ap     1.224761    46Ap     1.358856    21App    1.371141  
      47Ap     1.385976    22App    1.403528    48Ap     1.409473  
      23App    1.417961    49Ap     1.445200    50Ap     1.467021  
      51Ap     1.478610    24App    1.483583    25App    1.494788  
      52Ap     1.520752    26App    1.540723    53Ap     1.584449  
      27App    1.599661    54Ap     1.622474    55Ap     1.636880  
      28App    1.644475    56Ap     1.725411    57Ap     1.754736  
      58Ap     1.774453    29App    1.775199    59Ap     1.799134  
      30App    1.852177    31App    1.864558    60Ap     1.875172  
      61Ap     1.921095    32App    1.924956    62Ap     1.933054  
      33App    1.958382    34App    1.997922    63Ap     2.001091  
      64Ap     2.040231    65Ap     2.058475    35App    2.065171  
      36App    2.120474    66Ap     2.133727    67Ap     2.181222  
      68Ap     2.217068    37App    2.275907    69Ap     2.305821  
      38App    2.331727    70Ap     2.433710    71Ap     2.465120  
      72Ap     2.582424    73Ap     2.720307    39App    2.837215  
      40App    2.903895    74Ap     2.928685    41App    2.955910  
      75Ap     2.985186    76Ap     3.225969    77Ap     3.311649  
      78Ap     3.441202    42App    3.442393    79Ap     3.448575  
      43App    3.452104    80Ap     3.541721    44App    3.576798  
      81Ap     3.617082    82Ap     3.754986    83Ap     3.807063  
      45App    3.808981    46App    3.845381    84Ap     3.869896  
      47App    3.937539    85Ap     3.945583    86Ap     4.024366  
      48App    4.043449    49App    4.120204    87Ap     4.121551  
      88Ap     4.213524    89Ap     4.278307    90Ap     4.298275  
      50App    4.357980    51App    4.373002    91Ap     4.375128  
      52App    4.405703    92Ap     4.411088    53App    4.427312  
      93Ap     4.427968    94Ap     4.444697    54App    4.464547  
      95Ap     4.527959    55App    4.587579    96Ap     4.613582  
      56App    4.716339    97Ap     4.738056    57App    4.790364  
      98Ap     4.827090    58App    4.863527    99Ap     4.938370  
     100Ap     5.014214   101Ap     5.041937    59App    5.295864  
     102Ap     5.357627    60App    5.583283   103Ap     5.608229  
[...]
  Rotational constants: A = 618216.54868  B =  15367.27204  C =  14994.54621 [MHz]
  Nuclear repulsion =   51.477027301533511

  Charge       = 0
  Multiplicity = 1
  Electrons    = 26
  Nalpha       = 13
  Nbeta        = 13

  ==> Algorithm <==

  SCF Algorithm Type is DF.
  DIIS enabled.
  MOM disabled.
  Fractional occupation disabled.
  Guess Type is SAD.
  Energy threshold   = 1.00e-10
  Density threshold  = 1.00e-10
  Integral threshold = 0.00e+00

  ==> Primary Basis <==

  Basis Set: AUG-CC-PV(Q+D)Z
    Blend: AUG-CC-PV(Q+D)Z
    Number of shells: 57
    Number of basis function: 215
    Number of Cartesian functions: 275
    Spherical Harmonics?: true
    Max angular momentum: 4

  ==> DFT Potential <==

   => Composite Functional: WB97M-V <= 

    wB97M-V Hyb-GGA Exchange-Correlation Functional

    N. Mardirossian and M. Head-Gordon, J. Chem. Phys. 144, 214110 (2016)

    Deriv               =              1
    GGA                 =           TRUE
    Meta                =           TRUE

    Exchange Hybrid     =           TRUE
    MP2 Hybrid          =          FALSE

   => Exchange-Correlation Functionals <=

    1.0000   wB97M-V exchange-correlation functional

   => Exact (HF) Exchange <=

    0.8500            HF,LR [omega = 0.3000]
    0.1500               HF 

   => VV10 Non-Local Parameters <=

    VV10 B              =     6.0000E+00
    VV10 C              =     1.0000E-02

   => Molecular Quadrature <=

    Radial Scheme          =       TREUTLER
    Pruning Scheme         =           FLAT
    Nuclear Scheme         =       TREUTLER

    BS radius alpha        =              1
    Pruning alpha          =              1
    Radial Points          =             75
    Spherical Points       =            302
    Total Points           =          67950
    Total Blocks           =            569
    Max Points             =            256
    Max Functions          =            215

   => Loading Basis Set <=

    Name: (AUG-CC-PV(Q+D)Z AUX)
    Role: JKFIT
    Keyword: DF_BASIS_SCF
    atoms 1 entry O          line   318 file /work/zw18965/.conda/envs/p4env/share/psi4/basis/aug-cc-pvqz-jkfit.gbs 
    atoms 2 entry H          line    70 file /work/zw18965/.conda/envs/p4env/share/psi4/basis/aug-cc-pvqz-jkfit.gbs 
    atoms 3 entry CL         line   904 file /work/zw18965/.conda/envs/p4env/share/psi4/basis/aug-cc-pvqz-jkfit.gbs 

  ==> Pre-Iterations <==

   -------------------------------------------------------
    Irrep   Nso     Nmo     Nalpha   Nbeta   Ndocc  Nsocc
   -------------------------------------------------------
     A'       136     136       0       0       0       0
     A"        79      79       0       0       0       0
   -------------------------------------------------------
    Total     215     215      13      13      13       0
   -------------------------------------------------------

  ==> Integral Setup <==

  ==> DiskDFJK: Density-Fitted J/K Matrices <==

    J tasked:                  Yes
    K tasked:                  Yes
    wK tasked:                 Yes
    Omega:               3.000E-01
    OpenMP threads:             24
    Integrals threads:          24
    Memory [MiB]:           102047
    Algorithm:                Core
    Integral Cache:           NONE
    Schwarz Cutoff:          1E-12
    Fitting Condition:       1E-10

   => Auxiliary Basis Set <=

  Basis Set: (AUG-CC-PV(Q+D)Z AUX)
    Blend: AUG-CC-PVQZ-JKFIT
    Number of shells: 98
    Number of basis function: 402
    Number of Cartesian functions: 546
    Spherical Harmonics?: true
    Max angular momentum: 5

  Cached 100.0% of DFT collocation blocks in 0.927 [GiB].

  Minimum eigenvalue in the overlap matrix is 7.9119137199E-05.
  Using Symmetric Orthogonalization.

  SCF Guess: Superposition of Atomic Densities via on-the-fly atomic UHF.

  ==> Iterations <==

                           Total Energy        Delta E     RMS |[F,P]|

   @DF-RKS iter SAD:  -535.62427291741233   -5.35624e+02   0.00000e+00 
   @DF-RKS iter   1:  -535.90715145826118   -2.82879e-01   2.85721e-03 DIIS
   @DF-RKS iter   2:  -535.90266455301173    4.48691e-03   3.04384e-03 DIIS
   @DF-RKS iter   3:  -535.97655287299403   -7.38883e-02   4.31180e-04 DIIS
   @DF-RKS iter   4:  -535.97806376495248   -1.51089e-03   6.24649e-05 DIIS
   @DF-RKS iter   5:  -535.97812918947511   -6.54245e-05   1.51277e-05 DIIS
   @DF-RKS iter   6:  -535.97813367772881   -4.48825e-06   3.90257e-06 DIIS
   @DF-RKS iter   7:  -535.97813434040268   -6.62674e-07   1.48239e-06 DIIS
   @DF-RKS iter   8:  -535.97813447647354   -1.36071e-07   6.38701e-07 DIIS
   @DF-RKS iter   9:  -535.97813450138551   -2.49120e-08   1.96540e-07 DIIS
   @DF-RKS iter  10:  -535.97813450324952   -1.86401e-09   4.52047e-08 DIIS
   @DF-RKS iter  11:  -535.97813450329795   -4.84306e-11   1.22832e-08 DIIS
   @DF-RKS iter  12:  -535.97813450330375   -5.79803e-12   2.64150e-09 DIIS
   @DF-RKS iter  13:  -535.97813450330364    1.13687e-13   4.55440e-10 DIIS
   @DF-RKS iter  14:  -535.97813450330364    0.00000e+00   1.04997e-10 DIIS
   @DF-RKS iter  15:  -535.97813450330455   -9.09495e-13   2.18026e-11 DIIS
  Energy and wave function converged.


  ==> Post-Iterations <==

    Orbital Energies [Eh]
    ---------------------

    Doubly Occupied:                                                      

       1Ap  -101.939121     2Ap   -19.406186     3Ap    -9.692777  
       4Ap    -7.401679     5Ap    -7.388266     1App   -7.387941  
       6Ap    -1.207678     7Ap    -0.924296     8Ap    -0.646928  
       9Ap    -0.554784     2App   -0.529600    10Ap    -0.421849  
       3App   -0.389232  

    Virtual:                                                              

      11Ap    -0.001941    12Ap     0.019240    13Ap     0.067454  
       4App    0.073440    14Ap     0.079869    15Ap     0.105379  
      16Ap     0.115542    17Ap     0.121000     5App    0.131819  
      18Ap     0.167872     6App    0.171621    19Ap     0.223390  
      20Ap     0.237507     7App    0.262912    21Ap     0.280937  
       8App    0.283508    22Ap     0.285909    23Ap     0.309118  
      24Ap     0.310035     9App    0.404541    25Ap     0.410004  
      26Ap     0.457516    10App    0.474104    27Ap     0.477030  
      28Ap     0.485144    11App    0.510028    29Ap     0.513887  
      30Ap     0.563546    12App    0.568242    13App    0.589933  
      31Ap     0.598174    14App    0.615139    32Ap     0.618425  
      33Ap     0.645368    34Ap     0.666236    35Ap     0.679629  
      15App    0.693102    36Ap     0.703335    16App    0.754280  
      37Ap     0.769509    38Ap     0.815969    17App    0.820504  
      39Ap     0.886385    40Ap     0.922878    41Ap     0.940202  
      18App    0.959263    19App    0.968021    42Ap     0.977122  
      20App    1.072955    43Ap     1.095390    44Ap     1.173076  
      45Ap     1.226519    46Ap     1.357796    21App    1.370415  
      47Ap     1.385341    22App    1.403291    48Ap     1.408556  
      23App    1.418366    49Ap     1.445971    50Ap     1.469438  
      51Ap     1.477488    24App    1.485788    25App    1.494971  
      52Ap     1.521241    26App    1.543411    53Ap     1.585662  
      27App    1.599874    54Ap     1.623580    55Ap     1.637348  
      28App    1.648143    56Ap     1.729769    57Ap     1.756368  
      58Ap     1.776177    29App    1.776377    59Ap     1.800377  
      30App    1.855718    31App    1.862868    60Ap     1.874317  
      61Ap     1.918867    32App    1.925346    62Ap     1.934558  
      33App    1.961720    34App    1.998665    63Ap     2.003385  
      64Ap     2.041137    65Ap     2.063004    35App    2.065584  
      36App    2.123774    66Ap     2.134492    67Ap     2.191235  
      68Ap     2.218594    37App    2.270647    69Ap     2.306980  
      38App    2.334280    70Ap     2.433006    71Ap     2.483682  
      72Ap     2.590034    73Ap     2.716638    39App    2.840416  
      40App    2.914556    74Ap     2.932007    41App    2.961092  
      75Ap     2.984268    76Ap     3.222366    77Ap     3.311974  
      78Ap     3.440769    42App    3.446702    79Ap     3.449342  
      43App    3.457712    80Ap     3.543463    44App    3.576612  
      81Ap     3.619138    82Ap     3.753497    45App    3.809015  
      83Ap     3.815869    46App    3.844384    84Ap     3.870747  
      47App    3.937824    85Ap     3.948032    86Ap     4.025246  
      48App    4.044226    49App    4.119398    87Ap     4.120990  
      88Ap     4.209290    89Ap     4.283194    90Ap     4.308277  
      50App    4.358548    51App    4.375194    91Ap     4.375841  
      52App    4.402857    92Ap     4.412234    93Ap     4.427725  
      53App    4.428868    94Ap     4.456286    54App    4.467110  
      95Ap     4.534445    55App    4.589145    96Ap     4.617950  
      56App    4.726943    97Ap     4.747071    57App    4.806112  
      98Ap     4.836402    58App    4.874727    99Ap     4.949961  
     100Ap     5.028429   101Ap     5.037590    59App    5.298968  
     102Ap     5.366118    60App    5.593463   103Ap     5.615984  
     104Ap     5.703202   105Ap     5.933791    61App    5.992845  
     106Ap     6.206095    62App    6.625759   107Ap     6.664356  
     108Ap     7.433507    63App    7.470253   109Ap     7.557225  
      64App    7.559305   110Ap     7.688628   111Ap     7.848377  
     112Ap     8.262497    65App    8.373190    66App    8.459854  
     113Ap     8.557077   114Ap     8.818865   115Ap     9.440282  
      67App    9.523906   116Ap     9.713516   117Ap    10.363013  
      68App   10.439168   118Ap    10.470458    69App   10.500597  
     119Ap    10.530446    70App   10.548037   120Ap    10.836072  
      71App   10.840837   121Ap    10.889261    72App   10.913221  
      73App   11.012038   122Ap    11.037629   123Ap    11.112206  
      74App   11.176894   124Ap    11.281245   125Ap    11.453216  
      75App   11.605365   126Ap    11.633611   127Ap    11.769425  
      76App   11.859175   128Ap    11.896066    77App   12.309307  
     129Ap    12.359254   130Ap    12.527147    78App   12.807711  
     131Ap    12.929746    79App   14.103770   132Ap    14.104203  
     133Ap    14.165703   134Ap    16.444209   135Ap    24.626314  
     136Ap    43.140120  

    Final Occupation by Irrep:
             Ap   App 
    DOCC [    10,    3 ]

  @DF-RKS Final Energy:  -535.97813450330455

   => Energetics <=

    Nuclear Repulsion Energy =             51.4770273015335107
    One-Electron Energy =                -841.4511550843255918
    Two-Electron Energy =                 282.1621854537914942
    DFT Exchange-Correlation Energy =     -28.2748680516531792
    Empirical Dispersion Energy =           0.0000000000000000
    VV10 Nonlocal Energy =                  0.1086758773492315
    Total Energy =                       -535.9781345033044317

Computation Completed


Properties will be evaluated at   0.000000,   0.000000,   0.000000 [a0]

Properties computed using the SCF density matrix

  Nuclear Dipole Moment: [e a0]
     X:     1.5395      Y:     1.2521      Z:     0.0000

  Electronic Dipole Moment: [e a0]
     X:    -1.5421      Y:    -0.6509      Z:     0.0000

  Dipole Moment: [e a0]
     X:    -0.0026      Y:     0.6012      Z:     0.0000     Total:     0.6012

  Dipole Moment: [D]
     X:    -0.0066      Y:     1.5281      Z:     0.0000     Total:     1.5282


*** tstop() called on bp1-compute00047.data.bp.acrc.priv at Tue Apr 27 16:53:52 2021
Module time:
	user time   =     144.60 seconds =       2.41 minutes
	system time =       3.40 seconds =       0.06 minutes
	total time  =          6 seconds =       0.10 minutes
Total time:
	user time   =    4911.86 seconds =      81.86 minutes
	system time =     139.19 seconds =       2.32 minutes
	total time  =        223 seconds =       3.72 minutes

         ----------------------------------------------------------
                                   FINDIF
                     R. A. King and Jonathon Misiewicz
         ---------------------------------------------------------

  Computing second-derivative from energies using projected, 
  symmetry-adapted, cartesian coordinates.

  13 energies passed in, including the reference geometry.
    Using 3-point formula.
    Energy without displacement: -535.9781368913
    Check energies below for precision!
    0: -1        :      -535.9781363905
    0: 1         :      -535.9781367653
    1: -1        :      -535.9781319464
    1: 1         :      -535.9781326648
    2: -1        :      -535.9781335409
    2: 1         :      -535.9781341479
    0: 1, 1: 1   :      -535.9781325240
    0: -1, 1: -1 :      -535.9781314395
    0: 1, 2: 1   :      -535.9781342599
    0: -1, 2: -1 :      -535.9781332680
    1: 1, 2: 1   :      -535.9781358703
    1: -1, 2: -1 :      -535.9781345033

-------------------------------------------------------------


  ==> Harmonic Vibrational Analysis <==

  non-mass-weighted Hessian:       Symmetric? True   Hermitian? True   Lin Dep Dim?  6 (0)
  projection of translations (True) and rotations (True) removed 6 degrees of freedom (6)
  total projector:                 Symmetric? True   Hermitian? True   Lin Dep Dim?  6 (6)
  mass-weighted Hessian:           Symmetric? True   Hermitian? True   Lin Dep Dim?  6 (0)
  pre-proj  low-frequency mode:    0.0000i [cm^-1]
  pre-proj  low-frequency mode:    0.0000  [cm^-1]
  pre-proj  low-frequency mode:    0.0000  [cm^-1]
  pre-proj  low-frequency mode:    0.0000  [cm^-1]
  pre-proj  low-frequency mode:    0.0000  [cm^-1]
  pre-proj  low-frequency mode:    0.0000  [cm^-1]
  pre-proj  all modes:['0.0000i' '0.0000' '0.0000' '0.0000' '0.0000' '0.0000' '790.0443'
 '1276.8481' '3813.4971']
  projected mass-weighted Hessian: Symmetric? True   Hermitian? True   Lin Dep Dim?  6 (6)
  post-proj low-frequency mode:    0.0000i [cm^-1] (TR)
  post-proj low-frequency mode:    0.0000i [cm^-1] (TR)
  post-proj low-frequency mode:    0.0000i [cm^-1] (TR)
  post-proj low-frequency mode:    0.0000i [cm^-1] (TR)
  post-proj low-frequency mode:    0.0000  [cm^-1] (TR)
  post-proj low-frequency mode:    0.0000  [cm^-1] (TR)
  post-proj  all modes:['0.0000i' '0.0000i' '0.0000i' '0.0000i' '0.0000' '0.0000' '790.0443'
 '1276.8481' '3813.4971']

  Vibration                       7                   8                   9           
  Freq [cm^-1]                 790.0443           1276.8481           3813.4971       
  Irrep                           Ap                  Ap                  Ap          
  Reduced mass [u]             17.6266              1.0731              1.0679        
  Force const [mDyne/A]         6.4822              1.0308              9.1497        
  Turning point v=0 [a0]        0.0930              0.2964              0.1719        
  RMS dev v=0 [a0 u^1/2]        0.2760              0.2171              0.1256        
  Char temp [K]               1136.6978           1837.1001           5486.7733       
  ----------------------------------------------------------------------------------
      1   O                0.84  0.19 -0.00   -0.04  0.04  0.00   -0.00 -0.06 -0.00   
      2   H                0.21  0.23  0.00    1.00  0.02 -0.00    0.02  1.00 -0.00   
      3   CL              -0.39 -0.09  0.00   -0.01 -0.02 -0.00    0.00  0.00 -0.00   

  ==> Thermochemistry Components <==

  Entropy, S
    Electronic S            0.000 [cal/(mol K)]        0.000 [J/(mol K)]       0.00000000 [mEh/K] (multiplicity = 1)
    Translational S        37.767 [cal/(mol K)]      158.018 [J/(mol K)]       0.06018576 [mEh/K] (mol. weight = 51.9716 [u], P = 101325.00 [Pa])
    Rotational S           18.360 [cal/(mol K)]       76.820 [J/(mol K)]       0.02925912 [mEh/K] (symmetry no. = 1)
    Vibrational S           0.246 [cal/(mol K)]        1.028 [J/(mol K)]       0.00039143 [mEh/K]
  Total S                  56.373 [cal/(mol K)]      235.865 [J/(mol K)]       0.08983631 [mEh/K]
  Correction S              0.000 [cal/(mol K)]        0.000 [J/(mol K)]       0.00000000 [mEh/K]

  Constant volume heat capacity, Cv
    Electronic Cv           0.000 [cal/(mol K)]        0.000 [J/(mol K)]       0.00000000 [mEh/K]
    Translational Cv        2.981 [cal/(mol K)]       12.472 [J/(mol K)]       0.00475022 [mEh/K]
    Rotational Cv           2.981 [cal/(mol K)]       12.472 [J/(mol K)]       0.00475022 [mEh/K]
    Vibrational Cv          0.827 [cal/(mol K)]        3.460 [J/(mol K)]       0.00131802 [mEh/K]
  Total Cv                  6.789 [cal/(mol K)]       28.404 [J/(mol K)]       0.01081846 [mEh/K]
  Correction Cv             0.000 [cal/(mol K)]        0.000 [J/(mol K)]       0.00000000 [mEh/K]

  Constant pressure heat capacity, Cp
    Electronic Cp           0.000 [cal/(mol K)]        0.000 [J/(mol K)]       0.00000000 [mEh/K]
    Translational Cp        4.968 [cal/(mol K)]       20.786 [J/(mol K)]       0.00791703 [mEh/K]
    Rotational Cp           2.981 [cal/(mol K)]       12.472 [J/(mol K)]       0.00475022 [mEh/K]
    Vibrational Cp          0.827 [cal/(mol K)]        3.460 [J/(mol K)]       0.00131802 [mEh/K]
  Total Cp                  8.776 [cal/(mol K)]       36.718 [J/(mol K)]       0.01398527 [mEh/K]
  Correction Cp             0.000 [cal/(mol K)]        0.000 [J/(mol K)]       0.00000000 [mEh/K]

  ==> Thermochemistry Energy Analysis <==

  Raw electronic energy, E0
  Total E0, Electronic energy at well bottom at 0 [K]                 -535.97813689 [Eh]

  Zero-point energy, ZPE_vib = Sum_i nu_i / 2
    Electronic ZPE          0.000 [kcal/mol]        0.000 [kJ/mol]       0.00000000 [Eh]
    Translational ZPE       0.000 [kcal/mol]        0.000 [kJ/mol]       0.00000000 [Eh]
    Rotational ZPE          0.000 [kcal/mol]        0.000 [kJ/mol]       0.00000000 [Eh]
    Vibrational ZPE         8.406 [kcal/mol]       35.173 [kJ/mol]       0.01339651 [Eh]        2940.195 [cm^-1]
  Correction ZPE            8.406 [kcal/mol]       35.173 [kJ/mol]       0.01339651 [Eh]        2940.195 [cm^-1]
  Total ZPE, Electronic energy at 0 [K]                               -535.96474038 [Eh]

  Thermal Energy, E (includes ZPE)
    Electronic E            0.000 [kcal/mol]        0.000 [kJ/mol]       0.00000000 [Eh]
    Translational E         0.889 [kcal/mol]        3.718 [kJ/mol]       0.00141628 [Eh]
    Rotational E            0.889 [kcal/mol]        3.718 [kJ/mol]       0.00141628 [Eh]
    Vibrational E           8.465 [kcal/mol]       35.418 [kJ/mol]       0.01349013 [Eh]
  Correction E             10.243 [kcal/mol]       42.855 [kJ/mol]       0.01632269 [Eh]
  Total E, Electronic energy at  298.15 [K]                           -535.96181421 [Eh]

  Enthalpy, H_trans = E_trans + k_B * T
    Electronic H            0.000 [kcal/mol]        0.000 [kJ/mol]       0.00000000 [Eh]
    Translational H         1.481 [kcal/mol]        6.197 [kJ/mol]       0.00236046 [Eh]
    Rotational H            0.889 [kcal/mol]        3.718 [kJ/mol]       0.00141628 [Eh]
    Vibrational H           8.465 [kcal/mol]       35.418 [kJ/mol]       0.01349013 [Eh]
  Correction H             10.835 [kcal/mol]       45.334 [kJ/mol]       0.01726687 [Eh]
  Total H, Enthalpy at  298.15 [K]                                    -535.96087002 [Eh]

  Gibbs free energy, G = H - T * S
    Electronic G            0.000 [kcal/mol]        0.000 [kJ/mol]       0.00000000 [Eh]
    Translational G        -9.779 [kcal/mol]      -40.916 [kJ/mol]      -0.01558392 [Eh]
    Rotational G           -4.585 [kcal/mol]      -19.185 [kJ/mol]      -0.00730733 [Eh]
    Vibrational G           8.392 [kcal/mol]       35.112 [kJ/mol]       0.01337343 [Eh]
  Correction G             -5.973 [kcal/mol]      -24.989 [kJ/mol]      -0.00951783 [Eh]
  Total G, Free enthalpy at  298.15 [K]                               -535.98765472 [Eh]

    Psi4 stopped on: Tuesday, 27 April 2021 04:53PM
    Psi4 wall time for execution: 0:03:43.51

*** Psi4 exiting successfully. Buy a developer a beer!
