
    -----------------------------------------------------------------------
          Psi4: An Open-Source Ab Initio Electronic Structure Package
                               Psi4 1.3.2 release

                         Git: Rev {HEAD} ecbda83 


    R. M. Parrish, L. A. Burns, D. G. A. Smith, A. C. Simmonett,
    A. E. DePrince III, E. G. Hohenstein, U. Bozkaya, A. Yu. Sokolov,
    R. Di Remigio, R. M. Richard, J. F. Gonthier, A. M. James,
    H. R. McAlexander, A. Kumar, M. Saitow, X. Wang, B. P. Pritchard,
    P. Verma, H. F. Schaefer III, K. Patkowski, R. A. King, E. F. Valeev,
    F. A. Evangelista, J. M. Turney, T. D. Crawford, and C. D. Sherrill,
    J. Chem. Theory Comput. 13(7) pp 3185--3197 (2017).
    (doi: 10.1021/acs.jctc.7b00174)


                         Additional Contributions by
    P. Kraus, H. Kruse, M. H. Lechner, M. C. Schieber, R. A. Shaw,
    A. Alenaizan, R. Galvelis, Z. L. Glick, S. Lehtola, and J. P. Misiewicz

    -----------------------------------------------------------------------


    Psi4 started on: Monday, 19 April 2021 04:02PM

    Process ID: 203763
    Host:       bp1-compute00148.data.bp.acrc.priv
    PSIDATADIR: /work/zw18965/.conda/envs/p4env/share/psi4
    Memory:     500.0 MiB
    Threads:    24
    
  ==> Input File <==

--------------------------------------------------------------------------
memory 144 GB

molecule {
0 1
N     0.549269328753   0.000000000000   0.000000000000
N    -0.549269328753   0.000000000000   0.000000000000}

set basis aug-cc-pV(Q+d)Z
 
optimize("WB97M-V")
frequencies("WB97M-V")--------------------------------------------------------------------------

  Memory set to 134.110 GiB by Python driver.
gradient() will perform gradient computation by finite difference of analytic energies.

         ----------------------------------------------------------
                                   FINDIF
                     R. A. King and Jonathon Misiewicz
         ---------------------------------------------------------

  Using finite-differences of energies to determine gradients.
    Generating geometries for use with 3-point formula.
    Displacement size will be 5.00e-03.
    Number of atoms is 2.
    Number of symmetric SALCs is 1.
    Translations projected? 1. Rotations projected? 1.
    Number of geometries (including reference) is 3.

  //>>>>>>>>>>>>>>>>>>>>>>>>>>>>>>>>>>>//
  //    Loading displacement 1 of 3    //
  //<<<<<<<<<<<<<<<<<<<<<<<<<<<<<<<<<<<//

*** tstart() called on bp1-compute00148.data.bp.acrc.priv
*** at Mon Apr 19 16:02:22 2021

   => Loading Basis Set <=

    Name: AUG-CC-PV(Q+D)Z
    Role: ORBITAL
    Keyword: BASIS
    atoms 1-2 entry N          line   379 file /work/zw18965/.conda/envs/p4env/share/psi4/basis/aug-cc-pv_qpd_z.gbs 


         ---------------------------------------------------------
                                   SCF
               by Justin Turney, Rob Parrish, Andy Simmonett
                          and Daniel G. A. Smith
                              RKS Reference
                       24 Threads, 137329 MiB Core
         ---------------------------------------------------------

  ==> Geometry <==

    Molecular point group: d2h
    Full point group: D_inf_h

    Geometry (in Angstrom), charge = 0, multiplicity = 1:

       Center              X                  Y                   Z               Mass       
    ------------   -----------------  -----------------  -----------------  -----------------
         N            0.549269328753     0.000000000000     0.000000000000    14.003074004430
         N           -0.549269328753    -0.000000000000     0.000000000000    14.003074004430

  Running in d2h symmetry.

  Rotational constants: A = ************  B =      1.99514  C =      1.99514 [cm^-1]
  Rotational constants: A = ************  B =  59812.66075  C =  59812.66075 [MHz]
  Nuclear repulsion =   23.603796867465611

  Charge       = 0
  Multiplicity = 1
  Electrons    = 14
  Nalpha       = 7
  Nbeta        = 7

  ==> Algorithm <==

  SCF Algorithm Type is DF.
  DIIS enabled.
  MOM disabled.
  Fractional occupation disabled.
  Guess Type is SAD.
  Energy threshold   = 1.00e-08
  Density threshold  = 1.00e-08
  Integral threshold = 0.00e+00

  ==> Primary Basis <==

  Basis Set: AUG-CC-PV(Q+D)Z
    Blend: AUG-CC-PV(Q+D)Z
    Number of shells: 40
    Number of basis function: 160
    Number of Cartesian functions: 210
    Spherical Harmonics?: true
    Max angular momentum: 4

  ==> DFT Potential <==

   => Composite Functional: WB97M-V <= 

    wB97M-V Hyb-GGA Exchange-Correlation Functional

    N. Mardirossian and M. Head-Gordon, J. Chem. Phys. 144, 214110 (2016)

    Deriv               =              1
    GGA                 =           TRUE
    Meta                =           TRUE

    Exchange Hybrid     =           TRUE
    MP2 Hybrid          =          FALSE

   => Exchange-Correlation Functionals <=

    1.0000   wB97M-V exchange-correlation functional

   => Exact (HF) Exchange <=

    0.8500            HF,LR [omega = 0.3000]
    0.1500               HF 

   => VV10 Non-Local Parameters <=

    VV10 B              =     6.0000E+00
    VV10 C              =     1.0000E-02

   => Molecular Quadrature <=

    Radial Scheme          =       TREUTLER
    Pruning Scheme         =           FLAT
    Nuclear Scheme         =       TREUTLER

    BS radius alpha        =              1
    Pruning alpha          =              1
    Radial Points          =             75
    Spherical Points       =            302
    Total Points           =          45300
    Total Blocks           =            426
    Max Points             =            256
    Max Functions          =            160

   => Loading Basis Set <=

    Name: (AUG-CC-PV(Q+D)Z AUX)
    Role: JKFIT
    Keyword: DF_BASIS_SCF
    atoms 1-2 entry N          line   248 file /work/zw18965/.conda/envs/p4env/share/psi4/basis/aug-cc-pvqz-jkfit.gbs 

  ==> Pre-Iterations <==

   -------------------------------------------------------
    Irrep   Nso     Nmo     Nalpha   Nbeta   Ndocc  Nsocc
   -------------------------------------------------------
     Ag        31      31       0       0       0       0
     B1g       19      19       0       0       0       0
     B2g       19      19       0       0       0       0
     B3g       11      11       0       0       0       0
     Au        11      11       0       0       0       0
     B1u       19      19       0       0       0       0
     B2u       19      19       0       0       0       0
     B3u       31      31       0       0       0       0
   -------------------------------------------------------
    Total     160     160       7       7       7       0
   -------------------------------------------------------

  ==> Integral Setup <==

  ==> DiskDFJK: Density-Fitted J/K Matrices <==

    J tasked:                  Yes
    K tasked:                  Yes
    wK tasked:                 Yes
    Omega:               3.000E-01
    OpenMP threads:             24
    Integrals threads:          24
    Memory [MiB]:           102507
    Algorithm:                Core
    Integral Cache:           NONE
    Schwarz Cutoff:          1E-12
    Fitting Condition:       1E-10

   => Auxiliary Basis Set <=

  Basis Set: (AUG-CC-PV(Q+D)Z AUX)
    Blend: AUG-CC-PVQZ-JKFIT
    Number of shells: 68
    Number of basis function: 284
    Number of Cartesian functions: 396
    Spherical Harmonics?: true
    Max angular momentum: 5

  Cached 100.0% of DFT collocation blocks in 0.478 [GiB].

  Minimum eigenvalue in the overlap matrix is 3.2207725221E-05.
  Using Symmetric Orthogonalization.

  SCF Guess: Superposition of Atomic Densities via on-the-fly atomic UHF.

  ==> Iterations <==

                           Total Energy        Delta E     RMS |[F,P]|

   @DF-RKS iter SAD:  -108.79662917093043   -1.08797e+02   0.00000e+00 
   @DF-RKS iter   1:  -109.53566852016183   -7.39039e-01   3.94176e-03 DIIS
   @DF-RKS iter   2:  -109.55273395325551   -1.70654e-02   1.62108e-03 DIIS
   @DF-RKS iter   3:  -109.55599556853541   -3.26162e-03   1.54157e-04 DIIS
   @DF-RKS iter   4:  -109.55603614896033   -4.05804e-05   2.32623e-05 DIIS
   @DF-RKS iter   5:  -109.55603789623976   -1.74728e-06   5.20926e-06 DIIS
   @DF-RKS iter   6:  -109.55603801913163   -1.22892e-07   4.49730e-07 DIIS
   @DF-RKS iter   7:  -109.55603802033200   -1.20036e-09   3.14589e-08 DIIS
   @DF-RKS iter   8:  -109.55603802033670   -4.70379e-12   2.75230e-09 DIIS
  Energy and wave function converged.


  ==> Post-Iterations <==

    Orbital Energies [Eh]
    ---------------------

    Doubly Occupied:                                                      

       1Ag   -14.608861     1B3u  -14.607162     2Ag    -1.253205  
       2B3u   -0.671653     1B2u   -0.573355     1B1u   -0.573355  
       3Ag    -0.544319  

    Virtual:                                                              

       3B3u    0.056317     1B1g    0.060040     1B2g    0.060040  
       4Ag     0.076375     2B2u    0.081994     2B1u    0.081994  
       5Ag     0.115775     2B1g    0.129478     2B2g    0.129478  
       4B3u    0.220793     6Ag     0.278312     1B3g    0.278312  
       7Ag     0.326605     5B3u    0.368221     3B1g    0.374888  
       3B2g    0.374888     6B3u    0.382287     1Au     0.382287  
       3B2u    0.385247     3B1u    0.385247     4B2u    0.495285  
       4B1u    0.495285     7B3u    0.562920     8Ag     0.578289  
       9Ag     0.711051     4B1g    0.773209     4B2g    0.773209  
       8B3u    0.793683     5B2u    0.872002     5B1u    0.872002  
      10Ag     0.891016     2B3g    0.891017     6B2u    0.955378  
       6B1u    0.955378     9B3u    0.979265     2Au     0.979267  
      10B3u    1.072898    11Ag     1.093678     5B1g    1.105455  
       5B2g    1.105455     6B1g    1.105884     6B2g    1.105884  
      12Ag     1.112411     3B3g    1.112415    11B3u    1.297973  
       7B1u    1.457766     7B2u    1.457766    13Ag     1.465009  
       3Au     1.573603    12B3u    1.573604     7B1g    1.611630  
       7B2g    1.611630    13B3u    1.665382     8B1u    1.895147  
       8B2u    1.895147    14Ag     2.500106     4B3g    2.506141  
      15Ag     2.506143     9B1u    2.631505     9B2u    2.631505  
      16Ag     2.631988     5B3g    2.631988    17Ag     2.652195  
       8B1g    2.725442     8B2g    2.725442    14B3u    2.750997  
      10B1u    2.833341    10B2u    2.833341    15B3u    2.915912  
       4Au     2.915923    16B3u    2.925030     5Au     2.942625  
      17B3u    2.942628    11B1u    2.946452    11B2u    2.946452  
       9B2g    2.959659     9B1g    2.959659    18Ag     2.963343  
       6B3g    2.963359    12B2u    2.963628    12B1u    2.963628  
      19Ag     3.139021    10B1g    3.142228    10B2g    3.142228  
      18B3u    3.204600     6Au     3.204601    19B3u    3.310501  
      20Ag     3.351324    11B1g    3.372230    11B2g    3.372230  
      21Ag     3.640136     7B3g    3.640137    12B2g    3.708407  
      12B1g    3.708407    13B2u    4.527059    13B1u    4.527059  
       7Au     4.879550    20B3u    4.879551    21B3u    4.967214  
      22Ag     5.234550    22B3u    5.428740    13B1g    5.453043  
      13B2g    5.453043    14B1u    7.414855    14B2u    7.414855  
      23Ag     7.472227     8B3g    7.472234    15B1u    7.624980  
      15B2u    7.624980     9B3g    7.711716    24Ag     7.711741  
      25Ag     7.737571    14B1g    7.952697    14B2g    7.952697  
       8Au     8.032349    23B3u    8.032377    16B1u    8.098137  
      16B2u    8.098137    26Ag     8.387795    15B1g    8.457100  
      15B2g    8.457100    24B3u    8.485071     9Au     8.485092  
      16B2g    8.542431    16B1g    8.542431    17B1u    8.689770  
      17B2u    8.689770    25B3u    8.769365    27Ag     8.910889  
      10B3g    8.910906    26B3u    8.932055    17B2g    8.987777  
      17B1g    8.987777    28Ag     9.034047    11B3g    9.178507  
      29Ag     9.178519    18B2u    9.305040    18B1u    9.305040  
      10Au     9.943020    27B3u    9.943032    28B3u   10.181453  
      11Au    10.181458    19B2u   10.351941    19B1u   10.351941  
      18B1g   10.738756    18B2g   10.738756    29B3u   10.897816  
      30Ag    12.489901    19B1g   12.738062    19B2g   12.738062  
      30B3u   13.561622    31B3u   32.286697    31Ag    32.686612  

    Final Occupation by Irrep:
             Ag   B1g   B2g   B3g    Au   B1u   B2u   B3u 
    DOCC [     3,    0,    0,    0,    0,    1,    1,    2 ]

  @DF-RKS Final Energy:  -109.55603802033670

   => Energetics <=

    Nuclear Repulsion Energy =             23.6037968674656113
    One-Electron Energy =                -194.4464939040273066
    Two-Electron Energy =                  71.1165311103767976
    DFT Exchange-Correlation Energy =      -9.8887992612825286
    Empirical Dispersion Energy =           0.0000000000000000
    VV10 Nonlocal Energy =                  0.0589271671307323
    Total Energy =                       -109.5560380203367004

Computation Completed


Properties will be evaluated at   0.000000,   0.000000,   0.000000 [a0]

Properties computed using the SCF density matrix

  Nuclear Dipole Moment: [e a0]
     X:    -0.0000      Y:     0.0000      Z:     0.0000

  Electronic Dipole Moment: [e a0]
     X:     0.0000      Y:     0.0000      Z:     0.0000

  Dipole Moment: [e a0]
     X:    -0.0000      Y:     0.0000      Z:     0.0000     Total:     0.0000

  Dipole Moment: [D]
     X:    -0.0000      Y:     0.0000      Z:     0.0000     Total:     0.0000


*** tstop() called on bp1-compute00148.data.bp.acrc.priv at Mon Apr 19 16:02:26 2021
Module time:
	user time   =      68.19 seconds =       1.14 minutes
	system time =       3.70 seconds =       0.06 minutes
	total time  =          4 seconds =       0.07 minutes
Total time:
	user time   =      68.19 seconds =       1.14 minutes
	system time =       3.70 seconds =       0.06 minutes
	total time  =          4 seconds =       0.07 minutes

  //>>>>>>>>>>>>>>>>>>>>>>>>>>>>>>>>>>>//
  //    Loading displacement 2 of 3    //
  //<<<<<<<<<<<<<<<<<<<<<<<<<<<<<<<<<<<//

*** tstart() called on bp1-compute00148.data.bp.acrc.priv
*** at Mon Apr 19 16:02:26 2021

   => Loading Basis Set <=

    Name: AUG-CC-PV(Q+D)Z
    Role: ORBITAL
    Keyword: BASIS
    atoms 1-2 entry N          line   379 file /work/zw18965/.conda/envs/p4env/share/psi4/basis/aug-cc-pv_qpd_z.gbs 


         ---------------------------------------------------------
                                   SCF
               by Justin Turney, Rob Parrish, Andy Simmonett
                          and Daniel G. A. Smith
                              RKS Reference
                       24 Threads, 137329 MiB Core
         ---------------------------------------------------------

  ==> Geometry <==

    Molecular point group: d2h
    Full point group: D_inf_h

    Geometry (in Angstrom), charge = 0, multiplicity = 1:

       Center              X                  Y                   Z               Mass       
    ------------   -----------------  -----------------  -----------------  -----------------
         N            0.548769358176     0.000000000000     0.000000000000    14.003074004430
         N           -0.548769358176    -0.000000000000     0.000000000000    14.003074004430

  Running in d2h symmetry.

  Rotational constants: A = ************  B =      1.99877  C =      1.99877 [cm^-1]
  Rotational constants: A = ************  B =  59921.69816  C =  59921.69816 [MHz]
  Nuclear repulsion =   23.625301719673992

  Charge       = 0
  Multiplicity = 1
  Electrons    = 14
  Nalpha       = 7
  Nbeta        = 7

  ==> Algorithm <==

  SCF Algorithm Type is DF.
  DIIS enabled.
  MOM disabled.
  Fractional occupation disabled.
  Guess Type is SAD.
  Energy threshold   = 1.00e-08
  Density threshold  = 1.00e-08
  Integral threshold = 0.00e+00

  ==> Primary Basis <==

  Basis Set: AUG-CC-PV(Q+D)Z
    Blend: AUG-CC-PV(Q+D)Z
    Number of shells: 40
    Number of basis function: 160
    Number of Cartesian functions: 210
    Spherical Harmonics?: true
    Max angular momentum: 4

  ==> DFT Potential <==

   => Composite Functional: WB97M-V <= 

    wB97M-V Hyb-GGA Exchange-Correlation Functional

    N. Mardirossian and M. Head-Gordon, J. Chem. Phys. 144, 214110 (2016)

    Deriv               =              1
    GGA                 =           TRUE
    Meta                =           TRUE

    Exchange Hybrid     =           TRUE
    MP2 Hybrid          =          FALSE

   => Exchange-Correlation Functionals <=

    1.0000   wB97M-V exchange-correlation functional

   => Exact (HF) Exchange <=

    0.8500            HF,LR [omega = 0.3000]
    0.1500               HF 

   => VV10 Non-Local Parameters <=

    VV10 B              =     6.0000E+00
    VV10 C              =     1.0000E-02

   => Molecular Quadrature <=

    Radial Scheme          =       TREUTLER
    Pruning Scheme         =           FLAT
    Nuclear Scheme         =       TREUTLER

    BS radius alpha        =              1
    Pruning alpha          =              1
    Radial Points          =             75
    Spherical Points       =            302
    Total Points           =          45300
    Total Blocks           =            426
    Max Points             =            256
    Max Functions          =            160

   => Loading Basis Set <=

    Name: (AUG-CC-PV(Q+D)Z AUX)
    Role: JKFIT
    Keyword: DF_BASIS_SCF
    atoms 1-2 entry N          line   248 file /work/zw18965/.conda/envs/p4env/share/psi4/basis/aug-cc-pvqz-jkfit.gbs 

  ==> Pre-Iterations <==

   -------------------------------------------------------
    Irrep   Nso     Nmo     Nalpha   Nbeta   Ndocc  Nsocc
   -------------------------------------------------------
     Ag        31      31       0       0       0       0
     B1g       19      19       0       0       0       0
     B2g       19      19       0       0       0       0
     B3g       11      11       0       0       0       0
     Au        11      11       0       0       0       0
     B1u       19      19       0       0       0       0
     B2u       19      19       0       0       0       0
     B3u       31      31       0       0       0       0
   -------------------------------------------------------
    Total     160     160       7       7       7       0
   -------------------------------------------------------

  ==> Integral Setup <==

  ==> DiskDFJK: Density-Fitted J/K Matrices <==

    J tasked:                  Yes
    K tasked:                  Yes
    wK tasked:                 Yes
    Omega:               3.000E-01
    OpenMP threads:             24
    Integrals threads:          24
    Memory [MiB]:           102507
    Algorithm:                Core
    Integral Cache:           NONE
    Schwarz Cutoff:          1E-12
    Fitting Condition:       1E-10

   => Auxiliary Basis Set <=

  Basis Set: (AUG-CC-PV(Q+D)Z AUX)
    Blend: AUG-CC-PVQZ-JKFIT
    Number of shells: 68
    Number of basis function: 284
    Number of Cartesian functions: 396
    Spherical Harmonics?: true
    Max angular momentum: 5

  Cached 100.0% of DFT collocation blocks in 0.478 [GiB].

  Minimum eigenvalue in the overlap matrix is 3.2103333973E-05.
  Using Symmetric Orthogonalization.

  SCF Guess: Superposition of Atomic Densities via on-the-fly atomic UHF.

  ==> Iterations <==

                           Total Energy        Delta E     RMS |[F,P]|

   @DF-RKS iter SAD:  -108.79861996377386   -1.08799e+02   0.00000e+00 
   @DF-RKS iter   1:  -109.53560589943763   -7.36986e-01   3.95559e-03 DIIS
   @DF-RKS iter   2:  -109.55275824564868   -1.71523e-02   1.62797e-03 DIIS
   @DF-RKS iter   3:  -109.55604749966479   -3.28925e-03   1.54303e-04 DIIS
   @DF-RKS iter   4:  -109.55608814445841   -4.06448e-05   2.32216e-05 DIIS
   @DF-RKS iter   5:  -109.55608988793236   -1.74347e-06   5.21200e-06 DIIS
   @DF-RKS iter   6:  -109.55609001078567   -1.22853e-07   4.49520e-07 DIIS
   @DF-RKS iter   7:  -109.55609001198457   -1.19890e-09   3.13881e-08 DIIS
   @DF-RKS iter   8:  -109.55609001198934   -4.77485e-12   2.74258e-09 DIIS
  Energy and wave function converged.


  ==> Post-Iterations <==

    Orbital Energies [Eh]
    ---------------------

    Doubly Occupied:                                                      

       1Ag   -14.608568     1B3u  -14.606854     2Ag    -1.253800  
       2B3u   -0.671375     1B1u   -0.573692     1B2u   -0.573692  
       3Ag    -0.544379  

    Virtual:                                                              

       3B3u    0.056328     1B1g    0.060376     1B2g    0.060376  
       4Ag     0.076384     2B1u    0.081981     2B2u    0.081981  
       5Ag     0.115780     2B2g    0.129603     2B1g    0.129603  
       4B3u    0.220813     6Ag     0.278324     1B3g    0.278324  
       7Ag     0.326581     5B3u    0.368289     3B1g    0.374938  
       3B2g    0.374938     6B3u    0.382263     1Au     0.382263  
       3B1u    0.385229     3B2u    0.385229     4B1u    0.495194  
       4B2u    0.495194     7B3u    0.563097     8Ag     0.578280  
       9Ag     0.711086     4B1g    0.773414     4B2g    0.773414  
       8B3u    0.794734     5B1u    0.872041     5B2u    0.872041  
      10Ag     0.891026     2B3g    0.891026     6B2u    0.955358  
       6B1u    0.955358     9B3u    0.979138     2Au     0.979140  
      10B3u    1.073514    11Ag     1.093878     5B1g    1.105530  
       5B2g    1.105530     6B1g    1.106031     6B2g    1.106031  
      12Ag     1.112506     3B3g    1.112511    11B3u    1.298039  
       7B1u    1.458312     7B2u    1.458312    13Ag     1.464566  
       3Au     1.574057    12B3u    1.574057     7B1g    1.611646  
       7B2g    1.611646    13B3u    1.666422     8B1u    1.894828  
       8B2u    1.894828    14Ag     2.500545     4B3g    2.506116  
      15Ag     2.506118     9B1u    2.631772     9B2u    2.631772  
      16Ag     2.631943     5B3g    2.631943    17Ag     2.652993  
       8B1g    2.726213     8B2g    2.726213    14B3u    2.751078  
      10B1u    2.834201    10B2u    2.834201    15B3u    2.916083  
       4Au     2.916094    16B3u    2.924888     5Au     2.943005  
      17B3u    2.943008    11B2u    2.946698    11B1u    2.946698  
       9B1g    2.959436     9B2g    2.959436    18Ag     2.963194  
       6B3g    2.963210    12B1u    2.963735    12B2u    2.963735  
      19Ag     3.138105    10B1g    3.142155    10B2g    3.142155  
      18B3u    3.204526     6Au     3.204526    19B3u    3.311589  
      20Ag     3.352319    11B1g    3.373200    11B2g    3.373200  
      21Ag     3.641633     7B3g    3.641634    12B1g    3.709814  
      12B2g    3.709814    13B1u    4.527929    13B2u    4.527929  
       7Au     4.881637    20B3u    4.881638    21B3u    4.970600  
      22Ag     5.239092    22B3u    5.428124    13B1g    5.454740  
      13B2g    5.454740    14B2u    7.414060    14B1u    7.414060  
      23Ag     7.473102     8B3g    7.473109    15B2u    7.625215  
      15B1u    7.625215     9B3g    7.711210    24Ag     7.711235  
      25Ag     7.737492    14B1g    7.951466    14B2g    7.951466  
       8Au     8.033046    23B3u    8.033073    16B2u    8.099437  
      16B1u    8.099437    26Ag     8.387395    15B1g    8.458034  
      15B2g    8.458034    24B3u    8.483399     9Au     8.483419  
      16B2g    8.543146    16B1g    8.543146    17B2u    8.689924  
      17B1u    8.689924    25B3u    8.770848    27Ag     8.911308  
      10B3g    8.911325    26B3u    8.935225    17B1g    8.989892  
      17B2g    8.989892    28Ag     9.033709    11B3g    9.179512  
      29Ag     9.179524    18B1u    9.304944    18B2u    9.304944  
      10Au     9.946232    27B3u    9.946244    28B3u   10.186515  
      11Au    10.186520    19B1u   10.357326    19B2u   10.357326  
      18B1g   10.742570    18B2g   10.742570    29B3u   10.901236  
      30Ag    12.497218    19B1g   12.745170    19B2g   12.745170  
      30B3u   13.564277    31B3u   32.305854    31Ag    32.691116  

    Final Occupation by Irrep:
             Ag   B1g   B2g   B3g    Au   B1u   B2u   B3u 
    DOCC [     3,    0,    0,    0,    0,    1,    1,    2 ]

  @DF-RKS Final Energy:  -109.55609001198934

   => Energetics <=

    Nuclear Repulsion Energy =             23.6253017196739918
    One-Electron Energy =                -194.4881085469459094
    Two-Electron Energy =                  71.1376200477135683
    DFT Exchange-Correlation Energy =      -9.8898308074016494
    Empirical Dispersion Energy =           0.0000000000000000
    VV10 Nonlocal Energy =                  0.0589275749706582
    Total Energy =                       -109.5560900119893546

Computation Completed


Properties will be evaluated at   0.000000,   0.000000,   0.000000 [a0]

Properties computed using the SCF density matrix

  Nuclear Dipole Moment: [e a0]
     X:     0.0000      Y:     0.0000      Z:     0.0000

  Electronic Dipole Moment: [e a0]
     X:     0.0000      Y:     0.0000      Z:     0.0000

  Dipole Moment: [e a0]
     X:     0.0000      Y:     0.0000      Z:     0.0000     Total:     0.0000

  Dipole Moment: [D]
     X:     0.0000      Y:     0.0000      Z:     0.0000     Total:     0.0000


*** tstop() called on bp1-compute00148.data.bp.acrc.priv at Mon Apr 19 16:02:29 2021
Module time:
	user time   =      76.21 seconds =       1.27 minutes
	system time =       3.35 seconds =       0.06 minutes
	total time  =          3 seconds =       0.05 minutes
Total time:
	user time   =     144.56 seconds =       2.41 minutes
	system time =       7.06 seconds =       0.12 minutes
	total time  =          7 seconds =       0.12 minutes

  //>>>>>>>>>>>>>>>>>>>>>>>>>>>>>>>>>>>//
  //    Loading displacement 3 of 3    //
  //<<<<<<<<<<<<<<<<<<<<<<<<<<<<<<<<<<<//

*** tstart() called on bp1-compute00148.data.bp.acrc.priv
*** at Mon Apr 19 16:02:29 2021

   => Loading Basis Set <=

    Name: AUG-CC-PV(Q+D)Z
    Role: ORBITAL
    Keyword: BASIS
    atoms 1-2 entry N          line   379 file /work/zw18965/.conda/envs/p4env/share/psi4/basis/aug-cc-pv_qpd_z.gbs 


         ---------------------------------------------------------
                                   SCF
               by Justin Turney, Rob Parrish, Andy Simmonett
                          and Daniel G. A. Smith
                              RKS Reference
                       24 Threads, 137329 MiB Core
         ---------------------------------------------------------

  ==> Geometry <==

    Molecular point group: d2h
    Full point group: D_inf_h

    Geometry (in Angstrom), charge = 0, multiplicity = 1:

       Center              X                  Y                   Z               Mass       
    ------------   -----------------  -----------------  -----------------  -----------------
         N            0.549769299330     0.000000000000     0.000000000000    14.003074004430
         N           -0.549769299330    -0.000000000000     0.000000000000    14.003074004430

  Running in d2h symmetry.

  Rotational constants: A = ************  B =      1.99151  C =      1.99151 [cm^-1]
  Rotational constants: A = ************  B =  59703.92070  C =  59703.92070 [MHz]
  Nuclear repulsion =   23.582331129094193

  Charge       = 0
  Multiplicity = 1
  Electrons    = 14
  Nalpha       = 7
  Nbeta        = 7

  ==> Algorithm <==

  SCF Algorithm Type is DF.
  DIIS enabled.
  MOM disabled.
  Fractional occupation disabled.
  Guess Type is SAD.
  Energy threshold   = 1.00e-08
  Density threshold  = 1.00e-08
  Integral threshold = 0.00e+00

  ==> Primary Basis <==

  Basis Set: AUG-CC-PV(Q+D)Z
    Blend: AUG-CC-PV(Q+D)Z
    Number of shells: 40
    Number of basis function: 160
    Number of Cartesian functions: 210
    Spherical Harmonics?: true
    Max angular momentum: 4

  ==> DFT Potential <==

   => Composite Functional: WB97M-V <= 

    wB97M-V Hyb-GGA Exchange-Correlation Functional

    N. Mardirossian and M. Head-Gordon, J. Chem. Phys. 144, 214110 (2016)

    Deriv               =              1
    GGA                 =           TRUE
    Meta                =           TRUE

    Exchange Hybrid     =           TRUE
    MP2 Hybrid          =          FALSE

   => Exchange-Correlation Functionals <=

    1.0000   wB97M-V exchange-correlation functional

   => Exact (HF) Exchange <=

    0.8500            HF,LR [omega = 0.3000]
    0.1500               HF 

   => VV10 Non-Local Parameters <=

    VV10 B              =     6.0000E+00
    VV10 C              =     1.0000E-02

   => Molecular Quadrature <=

    Radial Scheme          =       TREUTLER
    Pruning Scheme         =           FLAT
    Nuclear Scheme         =       TREUTLER

    BS radius alpha        =              1
    Pruning alpha          =              1
    Radial Points          =             75
    Spherical Points       =            302
    Total Points           =          45300
    Total Blocks           =            428
    Max Points             =            255
    Max Functions          =            160

   => Loading Basis Set <=

    Name: (AUG-CC-PV(Q+D)Z AUX)
    Role: JKFIT
    Keyword: DF_BASIS_SCF
    atoms 1-2 entry N          line   248 file /work/zw18965/.conda/envs/p4env/share/psi4/basis/aug-cc-pvqz-jkfit.gbs 

  ==> Pre-Iterations <==

   -------------------------------------------------------
    Irrep   Nso     Nmo     Nalpha   Nbeta   Ndocc  Nsocc
   -------------------------------------------------------
     Ag        31      31       0       0       0       0
     B1g       19      19       0       0       0       0
     B2g       19      19       0       0       0       0
     B3g       11      11       0       0       0       0
     Au        11      11       0       0       0       0
     B1u       19      19       0       0       0       0
     B2u       19      19       0       0       0       0
     B3u       31      31       0       0       0       0
   -------------------------------------------------------
    Total     160     160       7       7       7       0
   -------------------------------------------------------

  ==> Integral Setup <==

  ==> DiskDFJK: Density-Fitted J/K Matrices <==

    J tasked:                  Yes
    K tasked:                  Yes
    wK tasked:                 Yes
    Omega:               3.000E-01
    OpenMP threads:             24
    Integrals threads:          24
    Memory [MiB]:           102507
    Algorithm:                Core
    Integral Cache:           NONE
    Schwarz Cutoff:          1E-12
    Fitting Condition:       1E-10

   => Auxiliary Basis Set <=

  Basis Set: (AUG-CC-PV(Q+D)Z AUX)
    Blend: AUG-CC-PVQZ-JKFIT
    Number of shells: 68
    Number of basis function: 284
    Number of Cartesian functions: 396
    Spherical Harmonics?: true
    Max angular momentum: 5

  Cached 100.0% of DFT collocation blocks in 0.478 [GiB].

  Minimum eigenvalue in the overlap matrix is 3.2312376888E-05.
  Using Symmetric Orthogonalization.

  SCF Guess: Superposition of Atomic Densities via on-the-fly atomic UHF.

  ==> Iterations <==

                           Total Energy        Delta E     RMS |[F,P]|

   @DF-RKS iter SAD:  -108.79463898115885   -1.08795e+02   0.00000e+00 
   @DF-RKS iter   1:  -109.53572476728903   -7.41086e-01   3.92800e-03 DIIS
   @DF-RKS iter   2:  -109.55270395697035   -1.69792e-02   1.61422e-03 DIIS
   @DF-RKS iter   3:  -109.55593817640388   -3.23422e-03   1.54011e-04 DIIS
   @DF-RKS iter   4:  -109.55597869283547   -4.05164e-05   2.33032e-05 DIIS
   @DF-RKS iter   5:  -109.55598044393406   -1.75110e-06   5.20650e-06 DIIS
   @DF-RKS iter   6:  -109.55598056686271   -1.22929e-07   4.49939e-07 DIIS
   @DF-RKS iter   7:  -109.55598056806457   -1.20185e-09   3.15302e-08 DIIS
   @DF-RKS iter   8:  -109.55598056806930   -4.73221e-12   2.76206e-09 DIIS
  Energy and wave function converged.


  ==> Post-Iterations <==

    Orbital Energies [Eh]
    ---------------------

    Doubly Occupied:                                                      

       1Ag   -14.609153     1B3u  -14.607468     2Ag    -1.252611  
       2B3u   -0.671932     1B2u   -0.573019     1B1u   -0.573019  
       3Ag    -0.544260  

    Virtual:                                                              

       3B3u    0.056307     1B1g    0.059703     1B2g    0.059703  
       4Ag     0.076367     2B2u    0.082006     2B1u    0.082006  
       5Ag     0.115771     2B2g    0.129355     2B1g    0.129355  
       4B3u    0.220773     6Ag     0.278300     1B3g    0.278300  
       7Ag     0.326630     5B3u    0.368153     3B1g    0.374839  
       3B2g    0.374839     6B3u    0.382311     1Au     0.382311  
       3B2u    0.385264     3B1u    0.385264     4B2u    0.495377  
       4B1u    0.495377     7B3u    0.562742     8Ag     0.578298  
       9Ag     0.711016     4B1g    0.773005     4B2g    0.773005  
       8B3u    0.792630     5B2u    0.871964     5B1u    0.871964  
      10Ag     0.891007     2B3g    0.891008     6B2u    0.955397  
       6B1u    0.955397     9B3u    0.979392     2Au     0.979395  
      10B3u    1.072285    11Ag     1.093477     5B1g    1.105380  
       5B2g    1.105380     6B1g    1.105736     6B2g    1.105736  
      12Ag     1.112315     3B3g    1.112319    11B3u    1.297909  
       7B2u    1.457221     7B1u    1.457221    13Ag     1.465452  
       3Au     1.573149    12B3u    1.573150     7B2g    1.611614  
       7B1g    1.611614    13B3u    1.664347     8B2u    1.895467  
       8B1u    1.895467    14Ag     2.499664     4B3g    2.506166  
      15Ag     2.506168     9B1u    2.631237     9B2u    2.631237  
      16Ag     2.632033     5B3g    2.632033    17Ag     2.651399  
       8B2g    2.724668     8B1g    2.724668    14B3u    2.750916  
      10B2u    2.832483    10B1u    2.832483    15B3u    2.915743  
       4Au     2.915754    16B3u    2.925174     5Au     2.942246  
      17B3u    2.942249    11B1u    2.946207    11B2u    2.946207  
       9B2g    2.959881     9B1g    2.959881    18Ag     2.963492  
       6B3g    2.963508    12B2u    2.963521    12B1u    2.963521  
      19Ag     3.139933    10B2g    3.142299    10B1g    3.142299  
      18B3u    3.204674     6Au     3.204674    19B3u    3.309417  
      20Ag     3.350333    11B2g    3.371269    11B1g    3.371269  
      21Ag     3.638642     7B3g    3.638643    12B2g    3.707001  
      12B1g    3.707001    13B1u    4.526188    13B2u    4.526188  
       7Au     4.877463    20B3u    4.877464    21B3u    4.963827  
      22Ag     5.230009    22B3u    5.429366    13B2g    5.451343  
      13B1g    5.451343    14B2u    7.415655    14B1u    7.415655  
      23Ag     7.471356     8B3g    7.471363    15B2u    7.624742  
      15B1u    7.624742     9B3g    7.712221    24Ag     7.712246  
      25Ag     7.737627    14B2g    7.953944    14B1g    7.953944  
       8Au     8.031654    23B3u    8.031682    16B1u    8.096834  
      16B2u    8.096834    26Ag     8.388201    15B2g    8.456170  
      15B1g    8.456170    24B3u    8.486735     9Au     8.486756  
      16B2g    8.541707    16B1g    8.541707    17B1u    8.689617  
      17B2u    8.689617    25B3u    8.767771    27Ag     8.910466  
      10B3g    8.910483    26B3u    8.929002    17B2g    8.985677  
      17B1g    8.985677    28Ag     9.034403    11B3g    9.177513  
      29Ag     9.177525    18B1u    9.305141    18B2u    9.305141  
      10Au     9.939816    27B3u    9.939828    28B3u   10.176401  
      11Au    10.176406    19B2u   10.346569    19B1u   10.346569  
      18B2g   10.734937    18B1g   10.734937    29B3u   10.894388  
      30Ag    12.482595    19B2g   12.730962    19B1g   12.730962  
      30B3u   13.558974    31B3u   32.267664    31Ag    32.682013  

    Final Occupation by Irrep:
             Ag   B1g   B2g   B3g    Au   B1u   B2u   B3u 
    DOCC [     3,    0,    0,    0,    0,    1,    1,    2 ]

  @DF-RKS Final Energy:  -109.55598056806930

   => Energetics <=

    Nuclear Repulsion Energy =             23.5823311290941930
    One-Electron Energy =                -194.4049450992524157
    Two-Electron Energy =                  71.0954768460915005
    DFT Exchange-Correlation Energy =      -9.8877702058287831
    Empirical Dispersion Energy =           0.0000000000000000
    VV10 Nonlocal Energy =                  0.0589267618261875
    Total Energy =                       -109.5559805680693160

Computation Completed


Properties will be evaluated at   0.000000,   0.000000,   0.000000 [a0]

Properties computed using the SCF density matrix

  Nuclear Dipole Moment: [e a0]
     X:     0.0000      Y:     0.0000      Z:     0.0000

  Electronic Dipole Moment: [e a0]
     X:     0.0000      Y:     0.0000      Z:     0.0000

  Dipole Moment: [e a0]
     X:     0.0000      Y:     0.0000      Z:     0.0000     Total:     0.0000

  Dipole Moment: [D]
     X:     0.0000      Y:     0.0000      Z:     0.0000     Total:     0.0000


*** tstop() called on bp1-compute00148.data.bp.acrc.priv at Mon Apr 19 16:02:32 2021
Module time:
	user time   =      67.17 seconds =       1.12 minutes
	system time =       2.06 seconds =       0.03 minutes
	total time  =          3 seconds =       0.05 minutes
Total time:
	user time   =     211.90 seconds =       3.53 minutes
	system time =       9.13 seconds =       0.15 minutes
	total time  =         10 seconds =       0.17 minutes

         ----------------------------------------------------------
                                   FINDIF
                     R. A. King and Jonathon Misiewicz
         ---------------------------------------------------------

  Computing gradient from energies.
    Using 3-point formula.
    Energy without displacement: -109.5560380203
    Check energies below for precision!
    Forces are for mass-weighted, symmetry-adapted cartesians (in au).

     Coord      Energy(-1)        Energy(+1)            Force
        0   -109.5560900120   -109.5559805681      0.0109443920


-------------------------------------------------------------
  ## New Matrix (Symmetry 0) ##
  Irrep: 1 Size: 2 x 3

                 1                   2                   3

    1     0.02895931829358     0.00000000000000     0.00000000000000
    2    -0.02895931829358     0.00000000000000     0.00000000000000




			-----------------------------------------
			 OPTKING 2.0: for geometry optimizations 
			  - R.A. King,  Bethel University        
			-----------------------------------------

	Internal coordinates to be generated automatically.
	Detected frag 1 with atoms:  1 2
	---Fragment 1 Bond Connectivity---
	 1 : 2
	 2 : 1

	---Fragment 1 Geometry and Gradient---
	 N           1.0379686005        0.0000000000        0.0000000000
	 N          -1.0379686005       -0.0000000000        0.0000000000
	             0.0289593183        0.0000000000        0.0000000000
	            -0.0289593183        0.0000000000        0.0000000000

	Previous optimization step data not found.  Starting new optimization.

	---Fragment 1 Intrafragment Coordinates---
	 - Coordinate -           - BOHR/RAD -       - ANG/DEG -
	 R(1,2)           =         2.075937	       1.098539

	Current energy   :      -109.5560380203

	Generating empirical Hessian (Schlegel '84) for each fragment.
	Taking RFO optimization step.
	Going to follow RFO solution 1.
	Using RFO vector 1.
	Norm of target step-size    0.01625
	Projected energy change by RFO approximation:        -0.0003384254

	Back-transformation to cartesian coordinates...
	Successfully converged to displaced geometry.

	--- Internal Coordinate Step in ANG or DEG, aJ/ANG or AJ/DEG ---
	 ---------------------------------------------------------------------------
	   Coordinate                Previous        Force       Change         New 
	   ----------                --------       ------       ------       ------
	    1 R(1,2)          =      1.098539    -0.238588    -0.008597     1.089941
	 ---------------------------------------------------------------------------
	Successfully symmetrized geometry.

  ==> Convergence Check <==

  Measures of convergence in internal coordinates in au.
  Criteria marked as inactive (o), active & met (*), and active & unmet ( ).
  --------------------------------------------------------------------------------------------- ~
   Step     Total Energy     Delta E     MAX Force     RMS Force      MAX Disp      RMS Disp    ~
  --------------------------------------------------------------------------------------------- ~
    Convergence Criteria    1.00e-06 *    3.00e-04 *             o    1.20e-03 *             o  ~
  --------------------------------------------------------------------------------------------- ~
      1    -109.55603802   -1.10e+02      2.90e-02      2.90e-02 o    1.62e-02      1.62e-02 o  ~
  ---------------------------------------------------------------------------------------------

	Writing optimization data to binary file.
	Structure for next step:
	Cartesian Geometry (in Angstrom)
	    N     0.5449706564   0.0000000000   0.0000000000
	    N    -0.5449706564  -0.0000000000   0.0000000000
			--------------------------
			 OPTKING Finished Execution 
			--------------------------

    Structure for next step:
    Molecular point group: d2h
    Full point group: D_inf_h

    Geometry (in Angstrom), charge = 0, multiplicity = 1:

    N            0.544970658542     0.000000000000     0.000000000000
    N           -0.544970658542    -0.000000000000     0.000000000000

gradient() will perform gradient computation by finite difference of analytic energies.

         ----------------------------------------------------------
                                   FINDIF
                     R. A. King and Jonathon Misiewicz
         ---------------------------------------------------------

  Using finite-differences of energies to determine gradients.
    Generating geometries for use with 3-point formula.
    Displacement size will be 5.00e-03.
    Number of atoms is 2.
    Number of symmetric SALCs is 1.
    Translations projected? 1. Rotations projected? 1.
    Number of geometries (including reference) is 3.

  //>>>>>>>>>>>>>>>>>>>>>>>>>>>>>>>>>>>//
  //    Loading displacement 1 of 3    //
  //<<<<<<<<<<<<<<<<<<<<<<<<<<<<<<<<<<<//

*** tstart() called on bp1-compute00148.data.bp.acrc.priv
*** at Mon Apr 19 16:02:32 2021

   => Loading Basis Set <=

    Name: AUG-CC-PV(Q+D)Z
    Role: ORBITAL
    Keyword: BASIS
    atoms 1-2 entry N          line   379 file /work/zw18965/.conda/envs/p4env/share/psi4/basis/aug-cc-pv_qpd_z.gbs 


         ---------------------------------------------------------
                                   SCF
               by Justin Turney, Rob Parrish, Andy Simmonett
                          and Daniel G. A. Smith
                              RKS Reference
                       24 Threads, 137329 MiB Core
         ---------------------------------------------------------

  ==> Geometry <==

    Molecular point group: d2h
    Full point group: D_inf_h

    Geometry (in Angstrom), charge = 0, multiplicity = 1:

       Center              X                  Y                   Z               Mass       
    ------------   -----------------  -----------------  -----------------  -----------------
         N            0.544970658542     0.000000000000     0.000000000000    14.003074004430
         N           -0.544970658542    -0.000000000000     0.000000000000    14.003074004430

  Running in d2h symmetry.

  Rotational constants: A = ************  B =      2.02673  C =      2.02673 [cm^-1]
  Rotational constants: A = ************  B =  60759.97396  C =  60759.97396 [MHz]
  Nuclear repulsion =   23.789981090183495

  Charge       = 0
  Multiplicity = 1
  Electrons    = 14
  Nalpha       = 7
  Nbeta        = 7

  ==> Algorithm <==

  SCF Algorithm Type is DF.
  DIIS enabled.
  MOM disabled.
  Fractional occupation disabled.
  Guess Type is READ.
  Energy threshold   = 1.00e-08
  Density threshold  = 1.00e-08
  Integral threshold = 0.00e+00

  ==> Primary Basis <==

  Basis Set: AUG-CC-PV(Q+D)Z
    Blend: AUG-CC-PV(Q+D)Z
    Number of shells: 40
    Number of basis function: 160
    Number of Cartesian functions: 210
    Spherical Harmonics?: true
    Max angular momentum: 4

  ==> DFT Potential <==

   => Composite Functional: WB97M-V <= 

    wB97M-V Hyb-GGA Exchange-Correlation Functional

    N. Mardirossian and M. Head-Gordon, J. Chem. Phys. 144, 214110 (2016)

    Deriv               =              1
    GGA                 =           TRUE
    Meta                =           TRUE

    Exchange Hybrid     =           TRUE
    MP2 Hybrid          =          FALSE

   => Exchange-Correlation Functionals <=

    1.0000   wB97M-V exchange-correlation functional

   => Exact (HF) Exchange <=

    0.8500            HF,LR [omega = 0.3000]
    0.1500               HF 

   => VV10 Non-Local Parameters <=

    VV10 B              =     6.0000E+00
    VV10 C              =     1.0000E-02

   => Molecular Quadrature <=

    Radial Scheme          =       TREUTLER
    Pruning Scheme         =           FLAT
    Nuclear Scheme         =       TREUTLER

    BS radius alpha        =              1
    Pruning alpha          =              1
    Radial Points          =             75
    Spherical Points       =            302
    Total Points           =          45300
    Total Blocks           =            425
    Max Points             =            255
    Max Functions          =            160

   => Loading Basis Set <=

    Name: (AUG-CC-PV(Q+D)Z AUX)
    Role: JKFIT
    Keyword: DF_BASIS_SCF
    atoms 1-2 entry N          line   248 file /work/zw18965/.conda/envs/p4env/share/psi4/basis/aug-cc-pvqz-jkfit.gbs 

   => Loading Basis Set <=

    Name: AUG-CC-PV(Q+D)Z
    Role: ORBITAL
    Keyword: BASIS
    atoms 1-2 entry N          line   379 file /work/zw18965/.conda/envs/p4env/share/psi4/basis/aug-cc-pv_qpd_z.gbs 

  Reading orbitals from file 180, no projection.

  ==> Pre-Iterations <==

   -------------------------------------------------------
    Irrep   Nso     Nmo     Nalpha   Nbeta   Ndocc  Nsocc
   -------------------------------------------------------
     Ag        31      31       0       0       0       0
     B1g       19      19       0       0       0       0
     B2g       19      19       0       0       0       0
     B3g       11      11       0       0       0       0
     Au        11      11       0       0       0       0
     B1u       19      19       0       0       0       0
     B2u       19      19       0       0       0       0
     B3u       31      31       0       0       0       0
   -------------------------------------------------------
    Total     160     160       7       7       7       0
   -------------------------------------------------------

  ==> Integral Setup <==

  ==> DiskDFJK: Density-Fitted J/K Matrices <==

    J tasked:                  Yes
    K tasked:                  Yes
    wK tasked:                 Yes
    Omega:               3.000E-01
    OpenMP threads:             24
    Integrals threads:          24
    Memory [MiB]:           102507
    Algorithm:                Core
    Integral Cache:           NONE
    Schwarz Cutoff:          1E-12
    Fitting Condition:       1E-10

   => Auxiliary Basis Set <=

  Basis Set: (AUG-CC-PV(Q+D)Z AUX)
    Blend: AUG-CC-PVQZ-JKFIT
    Number of shells: 68
    Number of basis function: 284
    Number of Cartesian functions: 396
    Spherical Harmonics?: true
    Max angular momentum: 5

  Cached 100.0% of DFT collocation blocks in 0.478 [GiB].

  Minimum eigenvalue in the overlap matrix is 3.1318562257E-05.
  Using Symmetric Orthogonalization.

  SCF Guess: Orbitals guess was supplied from a previous computation.

  ==> Iterations <==

                           Total Energy        Delta E     RMS |[F,P]|

   @DF-RKS iter   0:  -109.56300005894728   -1.09563e+02   7.17319e-04 
   @DF-RKS iter   1:  -109.55629890102777    6.70116e-03   4.82466e-05 DIIS
   @DF-RKS iter   2:  -109.55630230786085   -3.40683e-06   1.58358e-05 DIIS
   @DF-RKS iter   3:  -109.55630253578926   -2.27928e-07   2.17061e-06 DIIS
   @DF-RKS iter   4:  -109.55630254780934   -1.20201e-08   7.80992e-07 DIIS
   @DF-RKS iter   5:  -109.55630254903498   -1.22564e-09   9.14903e-08 DIIS
   @DF-RKS iter   6:  -109.55630254906485   -2.98712e-11   9.75029e-09 DIIS
  Energy and wave function converged.


  ==> Post-Iterations <==

    Orbital Energies [Eh]
    ---------------------

    Doubly Occupied:                                                      

       1Ag   -14.606331     1B3u  -14.604500     2Ag    -1.258321  
       2B3u   -0.669254     1B1u   -0.576270     1B2u   -0.576270  
       3Ag    -0.544833  

    Virtual:                                                              

       3B3u    0.056407     1B2g    0.062904     1B1g    0.062904  
       4Ag     0.076447     2B1u    0.081886     2B2u    0.081886  
       5Ag     0.115815     2B2g    0.130598     2B1g    0.130598  
       4B3u    0.220963     6Ag     0.278417     1B3g    0.278417  
       7Ag     0.326399     5B3u    0.368793     3B2g    0.375330  
       3B1g    0.375330     6B3u    0.382078     1Au     0.382078  
       3B1u    0.385095     3B2u    0.385095     4B1u    0.494489  
       4B2u    0.494489     7B3u    0.564356     8Ag     0.578204  
       9Ag     0.711361     4B1g    0.774979     4B2g    0.774979  
       8B3u    0.802661     5B1u    0.872338     5B2u    0.872338  
      10Ag     0.891099     2B3g    0.891099     6B1u    0.955212  
       6B2u    0.955212     9B3u    0.978176     2Au     0.978179  
      10B3u    1.078333    11Ag     1.095397     5B1g    1.106092  
       5B2g    1.106092     6B2g    1.107148     6B1g    1.107148  
      12Ag     1.113228     3B3g    1.113232    11B3u    1.298579  
      13Ag     1.461210     7B1u    1.462448     7B2u    1.462448  
       3Au     1.577500    12B3u    1.577501     7B2g    1.611804  
       7B1g    1.611804    13B3u    1.674538     8B1u    1.892428  
       8B2u    1.892428    14Ag     2.503778     4B3g    2.505946  
      15Ag     2.505948     5B3g    2.631598    16Ag     2.631598  
       9B1u    2.633800     9B2u    2.633800    17Ag     2.659075  
       8B2g    2.731985     8B1g    2.731985    14B3u    2.751697  
      10B2u    2.840750    10B1u    2.840750    15B3u    2.917443  
       4Au     2.917453    16B3u    2.923873     5Au     2.945899  
      17B3u    2.945902    11B1u    2.948596    11B2u    2.948596  
       9B2g    2.957712     9B1g    2.957712    18Ag     2.962032  
       6B3g    2.962048    12B1u    2.964559    12B2u    2.964559  
      19Ag     3.131057    10B2g    3.141516    10B1g    3.141516  
       6Au     3.203917    18B3u    3.203917    19B3u    3.320032  
      20Ag     3.360001    11B2g    3.380848    11B1g    3.380848  
      21Ag     3.653082     7B3g    3.653084    12B2g    3.720573  
      12B1g    3.720573    13B1u    4.534484    13B2u    4.534484  
       7Au     4.897504    20B3u    4.897505    21B3u    4.996303  
      22Ag     5.273662    22B3u    5.423759    13B2g    5.467486  
      13B1g    5.467486    14B2u    7.408185    14B1u    7.408185  
      23Ag     7.479890     8B3g    7.479897    15B2u    7.626859  
      15B1u    7.626859     9B3g    7.707307    24Ag     7.707330  
      25Ag     7.736140    14B2g    7.942617    14B1g    7.942617  
       8Au     8.038418    23B3u    8.038444    16B1u    8.109229  
      16B2u    8.109229    26Ag     8.384572    15B2g    8.465215  
      15B1g    8.465215    24B3u    8.470432     9Au     8.470450  
      16B2g    8.548254    16B1g    8.548254    17B2u    8.691105  
      17B1u    8.691105    25B3u    8.778748    27Ag     8.914331  
      10B3g    8.914344    26B3u    8.962862    17B2g    9.006434  
      17B1g    9.006434    28Ag     9.031752    11B3g    9.187489  
      29Ag     9.187499    18B1u    9.304407    18B2u    9.304407  
      10Au     9.970894    27B3u    9.970903    28B3u   10.225335  
      11Au    10.225340    19B1u   10.398608    19B2u   10.398608  
      18B2g   10.771379    18B1g   10.771379    29B3u   10.926942  
      30Ag    12.553190    19B2g   12.799466    19B1g   12.799466  
      30B3u   13.584677    31B3u   32.455428    31Ag    32.722094  

    Final Occupation by Irrep:
             Ag   B1g   B2g   B3g    Au   B1u   B2u   B3u 
    DOCC [     3,    0,    0,    0,    0,    1,    1,    2 ]

  @DF-RKS Final Energy:  -109.55630254906485

   => Energetics <=

    Nuclear Repulsion Energy =             23.7899810901834954
    One-Electron Energy =                -194.8064557033890765
    Two-Electron Energy =                  71.2989917089263514
    DFT Exchange-Correlation Energy =      -9.8977504020587670
    Empirical Dispersion Energy =           0.0000000000000000
    VV10 Nonlocal Energy =                  0.0589307572731473
    Total Energy =                       -109.5563025490648528

Computation Completed


Properties will be evaluated at   0.000000,   0.000000,   0.000000 [a0]

Properties computed using the SCF density matrix

  Nuclear Dipole Moment: [e a0]
     X:    -0.0000      Y:     0.0000      Z:     0.0000

  Electronic Dipole Moment: [e a0]
     X:     0.0000      Y:     0.0000      Z:     0.0000

  Dipole Moment: [e a0]
     X:    -0.0000      Y:     0.0000      Z:     0.0000     Total:     0.0000

  Dipole Moment: [D]
     X:    -0.0000      Y:     0.0000      Z:     0.0000     Total:     0.0000


*** tstop() called on bp1-compute00148.data.bp.acrc.priv at Mon Apr 19 16:02:35 2021
Module time:
	user time   =      53.90 seconds =       0.90 minutes
	system time =       1.65 seconds =       0.03 minutes
	total time  =          3 seconds =       0.05 minutes
Total time:
	user time   =     266.26 seconds =       4.44 minutes
	system time =      10.81 seconds =       0.18 minutes
	total time  =         13 seconds =       0.22 minutes

  //>>>>>>>>>>>>>>>>>>>>>>>>>>>>>>>>>>>//
  //    Loading displacement 2 of 3    //
  //<<<<<<<<<<<<<<<<<<<<<<<<<<<<<<<<<<<//

*** tstart() called on bp1-compute00148.data.bp.acrc.priv
*** at Mon Apr 19 16:02:35 2021

   => Loading Basis Set <=

    Name: AUG-CC-PV(Q+D)Z
    Role: ORBITAL
    Keyword: BASIS
    atoms 1-2 entry N          line   379 file /work/zw18965/.conda/envs/p4env/share/psi4/basis/aug-cc-pv_qpd_z.gbs 


         ---------------------------------------------------------
                                   SCF
               by Justin Turney, Rob Parrish, Andy Simmonett
                          and Daniel G. A. Smith
                              RKS Reference
                       24 Threads, 137329 MiB Core
         ---------------------------------------------------------

  ==> Geometry <==

    Molecular point group: d2h
    Full point group: D_inf_h

    Geometry (in Angstrom), charge = 0, multiplicity = 1:

       Center              X                  Y                   Z               Mass       
    ------------   -----------------  -----------------  -----------------  -----------------
         N            0.544470687965     0.000000000000     0.000000000000    14.003074004430
         N           -0.544470687965    -0.000000000000     0.000000000000    14.003074004430

  Running in d2h symmetry.

  Rotational constants: A = ************  B =      2.03046  C =      2.03046 [cm^-1]
  Rotational constants: A = ************  B =  60871.61320  C =  60871.61320 [MHz]
  Nuclear repulsion =   23.811826693335838

  Charge       = 0
  Multiplicity = 1
  Electrons    = 14
  Nalpha       = 7
  Nbeta        = 7

  ==> Algorithm <==

  SCF Algorithm Type is DF.
  DIIS enabled.
  MOM disabled.
  Fractional occupation disabled.
  Guess Type is READ.
  Energy threshold   = 1.00e-08
  Density threshold  = 1.00e-08
  Integral threshold = 0.00e+00

  ==> Primary Basis <==

  Basis Set: AUG-CC-PV(Q+D)Z
    Blend: AUG-CC-PV(Q+D)Z
    Number of shells: 40
    Number of basis function: 160
    Number of Cartesian functions: 210
    Spherical Harmonics?: true
    Max angular momentum: 4

  ==> DFT Potential <==

   => Composite Functional: WB97M-V <= 

    wB97M-V Hyb-GGA Exchange-Correlation Functional

    N. Mardirossian and M. Head-Gordon, J. Chem. Phys. 144, 214110 (2016)

    Deriv               =              1
    GGA                 =           TRUE
    Meta                =           TRUE

    Exchange Hybrid     =           TRUE
    MP2 Hybrid          =          FALSE

   => Exchange-Correlation Functionals <=

    1.0000   wB97M-V exchange-correlation functional

   => Exact (HF) Exchange <=

    0.8500            HF,LR [omega = 0.3000]
    0.1500               HF 

   => VV10 Non-Local Parameters <=

    VV10 B              =     6.0000E+00
    VV10 C              =     1.0000E-02

   => Molecular Quadrature <=

    Radial Scheme          =       TREUTLER
    Pruning Scheme         =           FLAT
    Nuclear Scheme         =       TREUTLER

    BS radius alpha        =              1
    Pruning alpha          =              1
    Radial Points          =             75
    Spherical Points       =            302
    Total Points           =          45300
    Total Blocks           =            424
    Max Points             =            255
    Max Functions          =            160

   => Loading Basis Set <=

    Name: (AUG-CC-PV(Q+D)Z AUX)
    Role: JKFIT
    Keyword: DF_BASIS_SCF
    atoms 1-2 entry N          line   248 file /work/zw18965/.conda/envs/p4env/share/psi4/basis/aug-cc-pvqz-jkfit.gbs 

   => Loading Basis Set <=

    Name: AUG-CC-PV(Q+D)Z
    Role: ORBITAL
    Keyword: BASIS
    atoms 1-2 entry N          line   379 file /work/zw18965/.conda/envs/p4env/share/psi4/basis/aug-cc-pv_qpd_z.gbs 

  Reading orbitals from file 180, no projection.

  ==> Pre-Iterations <==

   -------------------------------------------------------
    Irrep   Nso     Nmo     Nalpha   Nbeta   Ndocc  Nsocc
   -------------------------------------------------------
     Ag        31      31       0       0       0       0
     B1g       19      19       0       0       0       0
     B2g       19      19       0       0       0       0
     B3g       11      11       0       0       0       0
     Au        11      11       0       0       0       0
     B1u       19      19       0       0       0       0
     B2u       19      19       0       0       0       0
     B3u       31      31       0       0       0       0
   -------------------------------------------------------
    Total     160     160       7       7       7       0
   -------------------------------------------------------

  ==> Integral Setup <==

  ==> DiskDFJK: Density-Fitted J/K Matrices <==

    J tasked:                  Yes
    K tasked:                  Yes
    wK tasked:                 Yes
    Omega:               3.000E-01
    OpenMP threads:             24
    Integrals threads:          24
    Memory [MiB]:           102507
    Algorithm:                Core
    Integral Cache:           NONE
    Schwarz Cutoff:          1E-12
    Fitting Condition:       1E-10

   => Auxiliary Basis Set <=

  Basis Set: (AUG-CC-PV(Q+D)Z AUX)
    Blend: AUG-CC-PVQZ-JKFIT
    Number of shells: 68
    Number of basis function: 284
    Number of Cartesian functions: 396
    Spherical Harmonics?: true
    Max angular momentum: 5

  Cached 100.0% of DFT collocation blocks in 0.478 [GiB].

  Minimum eigenvalue in the overlap matrix is 3.1216359459E-05.
  Using Symmetric Orthogonalization.

  SCF Guess: Orbitals guess was supplied from a previous computation.

  ==> Iterations <==

                           Total Energy        Delta E     RMS |[F,P]|

   @DF-RKS iter   0:  -109.55705504761184   -1.09557e+02   8.45608e-05 
   @DF-RKS iter   1:  -109.55630591332107    7.49134e-04   5.60266e-06 DIIS
   @DF-RKS iter   2:  -109.55630595890518   -4.55841e-08   1.79242e-06 DIIS
   @DF-RKS iter   3:  -109.55630596178594   -2.88075e-09   2.45637e-07 DIIS
   @DF-RKS iter   4:  -109.55630596194401   -1.58067e-10   9.01457e-08 DIIS
   @DF-RKS iter   5:  -109.55630596196019   -1.61862e-11   1.07043e-08 DIIS
   @DF-RKS iter   6:  -109.55630596196069   -4.97380e-13   1.12840e-09 DIIS
  Energy and wave function converged.


  ==> Post-Iterations <==

    Orbital Energies [Eh]
    ---------------------

    Doubly Occupied:                                                      

       1Ag   -14.606034     1B3u  -14.604187     2Ag    -1.258917  
       2B3u   -0.668974     1B1u   -0.576612     1B2u   -0.576612  
       3Ag    -0.544892  

    Virtual:                                                              

       3B3u    0.056417     1B2g    0.063233     1B1g    0.063233  
       4Ag     0.076455     2B1u    0.081874     2B2u    0.081874  
       5Ag     0.115820     2B1g    0.130735     2B2g    0.130735  
       4B3u    0.220983     6Ag     0.278430     1B3g    0.278430  
       7Ag     0.326376     5B3u    0.368858     3B2g    0.375384  
       3B1g    0.375384     6B3u    0.382053     1Au     0.382053  
       3B2u    0.385077     3B1u    0.385077     4B1u    0.494395  
       4B2u    0.494395     7B3u    0.564512     8Ag     0.578194  
       9Ag     0.711399     4B2g    0.775187     4B1g    0.775187  
       8B3u    0.803696     5B2u    0.872377     5B1u    0.872377  
      10Ag     0.891109     2B3g    0.891110     6B1u    0.955192  
       6B2u    0.955192     9B3u    0.978050     2Au     0.978053  
      10B3u    1.078985    11Ag     1.095596     5B2g    1.106165  
       5B1g    1.106165     6B1g    1.107294     6B2g    1.107294  
      12Ag     1.113322     3B3g    1.113326    11B3u    1.298655  
      13Ag     1.460769     7B1u    1.462990     7B2u    1.462990  
       3Au     1.577953    12B3u    1.577954     7B1g    1.611829  
       7B2g    1.611829    13B3u    1.675634     8B1u    1.892116  
       8B2u    1.892116    14Ag     2.504191     4B3g    2.505926  
      15Ag     2.505928     5B3g    2.631552    16Ag     2.631552  
       9B1u    2.634067     9B2u    2.634067    17Ag     2.659878  
       8B1g    2.732733     8B2g    2.732733    14B3u    2.751778  
      10B2u    2.841614    10B1u    2.841614    15B3u    2.917629  
       4Au     2.917640    16B3u    2.923748     5Au     2.946281  
      17B3u    2.946284    11B1u    2.948850    11B2u    2.948850  
       9B2g    2.957482     9B1g    2.957482    18Ag     2.961876  
       6B3g    2.961891    12B1u    2.964669    12B2u    2.964669  
      19Ag     3.130118    10B1g    3.141422    10B2g    3.141422  
       6Au     3.203832    18B3u    3.203832    19B3u    3.321166  
      20Ag     3.361028    11B2g    3.381891    11B1g    3.381891  
      21Ag     3.654599     7B3g    3.654601    12B2g    3.721998  
      12B1g    3.721998    13B1u    4.535340    13B2u    4.535340  
       7Au     4.899593    20B3u    4.899594    21B3u    4.999680  
      22Ag     5.278219    22B3u    5.423228    13B1g    5.469144  
      13B2g    5.469144    14B1u    7.407434    14B2u    7.407434  
      23Ag     7.480801     8B3g    7.480807    15B2u    7.627057  
      15B1u    7.627057     9B3g    7.706786    24Ag     7.706809  
      25Ag     7.735858    14B1g    7.941520    14B2g    7.941520  
       8Au     8.039135    23B3u    8.039161    16B1u    8.110505  
      16B2u    8.110505    26Ag     8.384233    15B1g    8.466172  
      15B2g    8.466172    24B3u    8.468692     9Au     8.468708  
      16B2g    8.548884    16B1g    8.548884    17B1u    8.691262  
      17B2u    8.691262    25B3u    8.779387    27Ag     8.914707  
      10B3g    8.914720    26B3u    8.966924    17B2g    9.008674  
      17B1g    9.008674    28Ag     9.031574    11B3g    9.188585  
      29Ag     9.188594    18B1u    9.304362    18B2u    9.304362  
      10Au     9.974173    27B3u    9.974182    28B3u   10.230492  
      11Au    10.230497    19B2u   10.404091    19B1u   10.404091  
      18B1g   10.775147    18B2g   10.775147    29B3u   10.930288  
      30Ag    12.560607    19B2g   12.806651    19B1g   12.806651  
      30B3u   13.587394    31B3u   32.475644    31Ag    32.725735  

    Final Occupation by Irrep:
             Ag   B1g   B2g   B3g    Au   B1u   B2u   B3u 
    DOCC [     3,    0,    0,    0,    0,    1,    1,    2 ]

  @DF-RKS Final Energy:  -109.55630596196069

   => Energetics <=

    Nuclear Repulsion Energy =             23.8118266933358385
    One-Electron Energy =                -194.8486411701162524
    Two-Electron Energy =                  71.3203808530315087
    DFT Exchange-Correlation Energy =      -9.8988035251875957
    Empirical Dispersion Energy =           0.0000000000000000
    VV10 Nonlocal Energy =                  0.0589311869758299
    Total Energy =                       -109.5563059619606747

Computation Completed


Properties will be evaluated at   0.000000,   0.000000,   0.000000 [a0]

Properties computed using the SCF density matrix

  Nuclear Dipole Moment: [e a0]
     X:     0.0000      Y:     0.0000      Z:     0.0000

  Electronic Dipole Moment: [e a0]
     X:     0.0000      Y:     0.0000      Z:     0.0000

  Dipole Moment: [e a0]
     X:     0.0000      Y:     0.0000      Z:     0.0000     Total:     0.0000

  Dipole Moment: [D]
     X:     0.0000      Y:     0.0000      Z:     0.0000     Total:     0.0000


*** tstop() called on bp1-compute00148.data.bp.acrc.priv at Mon Apr 19 16:02:38 2021
Module time:
	user time   =      60.31 seconds =       1.01 minutes
	system time =       2.55 seconds =       0.04 minutes
	total time  =          3 seconds =       0.05 minutes
Total time:
	user time   =     326.70 seconds =       5.44 minutes
	system time =      13.36 seconds =       0.22 minutes
	total time  =         16 seconds =       0.27 minutes

  //>>>>>>>>>>>>>>>>>>>>>>>>>>>>>>>>>>>//
  //    Loading displacement 3 of 3    //
  //<<<<<<<<<<<<<<<<<<<<<<<<<<<<<<<<<<<//

*** tstart() called on bp1-compute00148.data.bp.acrc.priv
*** at Mon Apr 19 16:02:38 2021

   => Loading Basis Set <=

    Name: AUG-CC-PV(Q+D)Z
    Role: ORBITAL
    Keyword: BASIS
    atoms 1-2 entry N          line   379 file /work/zw18965/.conda/envs/p4env/share/psi4/basis/aug-cc-pv_qpd_z.gbs 


         ---------------------------------------------------------
                                   SCF
               by Justin Turney, Rob Parrish, Andy Simmonett
                          and Daniel G. A. Smith
                              RKS Reference
                       24 Threads, 137329 MiB Core
         ---------------------------------------------------------

  ==> Geometry <==

    Molecular point group: d2h
    Full point group: D_inf_h

    Geometry (in Angstrom), charge = 0, multiplicity = 1:

       Center              X                  Y                   Z               Mass       
    ------------   -----------------  -----------------  -----------------  -----------------
         N            0.545470629119     0.000000000000     0.000000000000    14.003074004430
         N           -0.545470629119    -0.000000000000     0.000000000000    14.003074004430

  Running in d2h symmetry.

  Rotational constants: A = ************  B =      2.02302  C =      2.02302 [cm^-1]
  Rotational constants: A = ************  B =  60648.64156  C =  60648.64156 [MHz]
  Nuclear repulsion =   23.768175533765962

  Charge       = 0
  Multiplicity = 1
  Electrons    = 14
  Nalpha       = 7
  Nbeta        = 7

  ==> Algorithm <==

  SCF Algorithm Type is DF.
  DIIS enabled.
  MOM disabled.
  Fractional occupation disabled.
  Guess Type is READ.
  Energy threshold   = 1.00e-08
  Density threshold  = 1.00e-08
  Integral threshold = 0.00e+00

  ==> Primary Basis <==

  Basis Set: AUG-CC-PV(Q+D)Z
    Blend: AUG-CC-PV(Q+D)Z
    Number of shells: 40
    Number of basis function: 160
    Number of Cartesian functions: 210
    Spherical Harmonics?: true
    Max angular momentum: 4

  ==> DFT Potential <==

   => Composite Functional: WB97M-V <= 

    wB97M-V Hyb-GGA Exchange-Correlation Functional

    N. Mardirossian and M. Head-Gordon, J. Chem. Phys. 144, 214110 (2016)

    Deriv               =              1
    GGA                 =           TRUE
    Meta                =           TRUE

    Exchange Hybrid     =           TRUE
    MP2 Hybrid          =          FALSE

   => Exchange-Correlation Functionals <=

    1.0000   wB97M-V exchange-correlation functional

   => Exact (HF) Exchange <=

    0.8500            HF,LR [omega = 0.3000]
    0.1500               HF 

   => VV10 Non-Local Parameters <=

    VV10 B              =     6.0000E+00
    VV10 C              =     1.0000E-02

   => Molecular Quadrature <=

    Radial Scheme          =       TREUTLER
    Pruning Scheme         =           FLAT
    Nuclear Scheme         =       TREUTLER

    BS radius alpha        =              1
    Pruning alpha          =              1
    Radial Points          =             75
    Spherical Points       =            302
    Total Points           =          45300
    Total Blocks           =            425
    Max Points             =            255
    Max Functions          =            160

   => Loading Basis Set <=

    Name: (AUG-CC-PV(Q+D)Z AUX)
    Role: JKFIT
    Keyword: DF_BASIS_SCF
    atoms 1-2 entry N          line   248 file /work/zw18965/.conda/envs/p4env/share/psi4/basis/aug-cc-pvqz-jkfit.gbs 

   => Loading Basis Set <=

    Name: AUG-CC-PV(Q+D)Z
    Role: ORBITAL
    Keyword: BASIS
    atoms 1-2 entry N          line   379 file /work/zw18965/.conda/envs/p4env/share/psi4/basis/aug-cc-pv_qpd_z.gbs 

  Reading orbitals from file 180, no projection.

  ==> Pre-Iterations <==

   -------------------------------------------------------
    Irrep   Nso     Nmo     Nalpha   Nbeta   Ndocc  Nsocc
   -------------------------------------------------------
     Ag        31      31       0       0       0       0
     B1g       19      19       0       0       0       0
     B2g       19      19       0       0       0       0
     B3g       11      11       0       0       0       0
     Au        11      11       0       0       0       0
     B1u       19      19       0       0       0       0
     B2u       19      19       0       0       0       0
     B3u       31      31       0       0       0       0
   -------------------------------------------------------
    Total     160     160       7       7       7       0
   -------------------------------------------------------

  ==> Integral Setup <==

  ==> DiskDFJK: Density-Fitted J/K Matrices <==

    J tasked:                  Yes
    K tasked:                  Yes
    wK tasked:                 Yes
    Omega:               3.000E-01
    OpenMP threads:             24
    Integrals threads:          24
    Memory [MiB]:           102507
    Algorithm:                Core
    Integral Cache:           NONE
    Schwarz Cutoff:          1E-12
    Fitting Condition:       1E-10

   => Auxiliary Basis Set <=

  Basis Set: (AUG-CC-PV(Q+D)Z AUX)
    Blend: AUG-CC-PVQZ-JKFIT
    Number of shells: 68
    Number of basis function: 284
    Number of Cartesian functions: 396
    Spherical Harmonics?: true
    Max angular momentum: 5

  Cached 100.0% of DFT collocation blocks in 0.478 [GiB].

  Minimum eigenvalue in the overlap matrix is 3.1421015033E-05.
  Using Symmetric Orthogonalization.

  SCF Guess: Orbitals guess was supplied from a previous computation.

  ==> Iterations <==

                           Total Energy        Delta E     RMS |[F,P]|

   @DF-RKS iter   0:  -109.55554817326157   -1.09556e+02   8.43891e-05 
   @DF-RKS iter   1:  -109.55629329239999   -7.45119e-04   5.61755e-06 DIIS
   @DF-RKS iter   2:  -109.55629333823030   -4.58303e-08   1.80371e-06 DIIS
   @DF-RKS iter   3:  -109.55629334115660   -2.92630e-09   2.46878e-07 DIIS
   @DF-RKS iter   4:  -109.55629334131571   -1.59105e-10   9.03085e-08 DIIS
   @DF-RKS iter   5:  -109.55629334133197   -1.62572e-11   1.06978e-08 DIIS
   @DF-RKS iter   6:  -109.55629334133242   -4.54747e-13   1.13142e-09 DIIS
  Energy and wave function converged.


  ==> Post-Iterations <==

    Orbital Energies [Eh]
    ---------------------

    Doubly Occupied:                                                      

       1Ag   -14.606627     1B3u  -14.604812     2Ag    -1.257726  
       2B3u   -0.669534     1B1u   -0.575928     1B2u   -0.575928  
       3Ag    -0.544773  

    Virtual:                                                              

       3B3u    0.056396     1B1g    0.062574     1B2g    0.062574  
       4Ag     0.076438     2B2u    0.081899     2B1u    0.081899  
       5Ag     0.115810     2B2g    0.130462     2B1g    0.130462  
       4B3u    0.220944     6Ag     0.278405     1B3g    0.278405  
       7Ag     0.326423     5B3u    0.368728     3B2g    0.375277  
       3B1g    0.375277     6B3u    0.382102     1Au     0.382103  
       3B2u    0.385113     3B1u    0.385113     4B1u    0.494583  
       4B2u    0.494583     7B3u    0.564198     8Ag     0.578215  
       9Ag     0.711324     4B2g    0.774772     4B1g    0.774772  
       8B3u    0.801624     5B1u    0.872299     5B2u    0.872299  
      10Ag     0.891089     2B3g    0.891089     6B1u    0.955231  
       6B2u    0.955231     9B3u    0.978302     2Au     0.978305  
      10B3u    1.077685    11Ag     1.095198     5B1g    1.106019  
       5B2g    1.106019     6B2g    1.107002     6B1g    1.107002  
      12Ag     1.113133     3B3g    1.113138    11B3u    1.298503  
      13Ag     1.461651     7B1u    1.461904     7B2u    1.461904  
       3Au     1.577048    12B3u    1.577048     7B2g    1.611780  
       7B1g    1.611780    13B3u    1.673449     8B1u    1.892741  
       8B2u    1.892741    14Ag     2.503362     4B3g    2.505967  
      15Ag     2.505969     5B3g    2.631644    16Ag     2.631644  
       9B1u    2.633534     9B2u    2.633534    17Ag     2.658273  
       8B2g    2.731234     8B1g    2.731234    14B3u    2.751615  
      10B1u    2.839886    10B2u    2.839886    15B3u    2.917257  
       4Au     2.917268    16B3u    2.924000     5Au     2.945517  
      17B3u    2.945521    11B1u    2.948344    11B2u    2.948344  
       9B2g    2.957942     9B1g    2.957942    18Ag     2.962188  
       6B3g    2.962203    12B1u    2.964450    12B2u    2.964450  
      19Ag     3.131994    10B2g    3.141608    10B1g    3.141608  
       6Au     3.204001    18B3u    3.204002    19B3u    3.318903  
      20Ag     3.358978    11B1g    3.379814    11B2g    3.379814  
      21Ag     3.651567     7B3g    3.651569    12B1g    3.719151  
      12B2g    3.719151    13B1u    4.533626    13B2u    4.533626  
       7Au     4.895415    20B3u    4.895416    21B3u    4.992924  
      22Ag     5.269107    22B3u    5.424300    13B2g    5.465823  
      13B1g    5.465823    14B1u    7.408941    14B2u    7.408941  
      23Ag     7.478983     8B3g    7.478990    15B2u    7.626656  
      15B1u    7.626656     9B3g    7.707826    24Ag     7.707850  
      25Ag     7.736396    14B2g    7.943730    14B1g    7.943730  
       8Au     8.037703    23B3u    8.037729    16B1u    8.107950  
      16B2u    8.107950    26Ag     8.384918    15B2g    8.464261  
      15B1g    8.464261    24B3u    8.472165     9Au     8.472183  
      16B2g    8.547613    16B1g    8.547613    17B1u    8.690948  
      17B2u    8.690948    25B3u    8.778023    27Ag     8.913949  
      10B3g    8.913963    26B3u    8.958891    17B2g    9.004209  
      17B1g    9.004209    28Ag     9.031948    11B3g    9.186404  
      29Ag     9.186414    18B1u    9.304457    18B2u    9.304457  
      10Au     9.967622    27B3u    9.967631    28B3u   10.220190  
      11Au    10.220194    19B1u   10.393137    19B2u   10.393137  
      18B2g   10.767604    18B1g   10.767604    29B3u   10.923586  
      30Ag    12.545785    19B2g   12.792291    19B1g   12.792291  
      30B3u   13.581967    31B3u   32.435336    31Ag    32.718350  

    Final Occupation by Irrep:
             Ag   B1g   B2g   B3g    Au   B1u   B2u   B3u 
    DOCC [     3,    0,    0,    0,    0,    1,    1,    2 ]

  @DF-RKS Final Energy:  -109.55629334133242

   => Energetics <=

    Nuclear Repulsion Energy =             23.7681755337659624
    One-Electron Energy =                -194.7643354810998630
    Two-Electron Energy =                  71.2776359197479792
    DFT Exchange-Correlation Energy =      -9.8966996435901979
    Empirical Dispersion Energy =           0.0000000000000000
    VV10 Nonlocal Energy =                  0.0589303298436984
    Total Energy =                       -109.5562933413324060

Computation Completed


Properties will be evaluated at   0.000000,   0.000000,   0.000000 [a0]

Properties computed using the SCF density matrix

  Nuclear Dipole Moment: [e a0]
     X:    -0.0000      Y:     0.0000      Z:     0.0000

  Electronic Dipole Moment: [e a0]
     X:     0.0000      Y:     0.0000      Z:     0.0000

  Dipole Moment: [e a0]
     X:    -0.0000      Y:     0.0000      Z:     0.0000     Total:     0.0000

  Dipole Moment: [D]
     X:    -0.0000      Y:     0.0000      Z:     0.0000     Total:     0.0000


*** tstop() called on bp1-compute00148.data.bp.acrc.priv at Mon Apr 19 16:02:40 2021
Module time:
	user time   =      54.29 seconds =       0.90 minutes
	system time =       1.72 seconds =       0.03 minutes
	total time  =          2 seconds =       0.03 minutes
Total time:
	user time   =     381.13 seconds =       6.35 minutes
	system time =      15.09 seconds =       0.25 minutes
	total time  =         18 seconds =       0.30 minutes

         ----------------------------------------------------------
                                   FINDIF
                     R. A. King and Jonathon Misiewicz
         ---------------------------------------------------------

  Computing gradient from energies.
    Using 3-point formula.
    Energy without displacement: -109.5563025491
    Check energies below for precision!
    Forces are for mass-weighted, symmetry-adapted cartesians (in au).

     Coord      Energy(-1)        Energy(+1)            Force
        0   -109.5563059620   -109.5562933413      0.0012620628


-------------------------------------------------------------
  ## New Matrix (Symmetry 0) ##
  Irrep: 1 Size: 2 x 3

                 1                   2                   3

    1     0.00333947094520     0.00000000000000     0.00000000000000
    2    -0.00333947094520     0.00000000000000     0.00000000000000




			-----------------------------------------
			 OPTKING 2.0: for geometry optimizations 
			  - R.A. King,  Bethel University        
			-----------------------------------------

	Previous internal coordinate definitions found.
	---Fragment 1 Geometry and Gradient---
	 N           1.0298452911        0.0000000000        0.0000000000
	 N          -1.0298452911       -0.0000000000        0.0000000000
	             0.0033394709        0.0000000000        0.0000000000
	            -0.0033394709        0.0000000000        0.0000000000

	---Fragment 1 Intrafragment Coordinates---
	 - Coordinate -           - BOHR/RAD -       - ANG/DEG -
	 R(1,2)           =         2.059691	       1.089941

	Current energy   :      -109.5563025491

	Energy change for the previous step:
		Projected    :        -0.0003384254
		Actual       :        -0.0002645287
	Energy ratio indicates good step: Trust radius increased to 1.000e+00.


	Performing BFGS update.
	Previous computed or guess Hessian on step 1.
	Steps to be used in Hessian update: 1
	Taking RFO optimization step.
	Going to follow RFO solution 1.
	Using RFO vector 1.
	Norm of target step-size    0.00212
	Projected energy change by RFO approximation:        -0.0000048296

	Back-transformation to cartesian coordinates...
	Successfully converged to displaced geometry.

	--- Internal Coordinate Step in ANG or DEG, aJ/ANG or AJ/DEG ---
[...]
    VV10 Nonlocal Energy =                  0.0589316717410388
    Total Energy =                       -109.5563028349285588

Computation Completed


Properties will be evaluated at   0.000000,   0.000000,   0.000000 [a0]

Properties computed using the SCF density matrix

  Nuclear Dipole Moment: [e a0]
     X:     0.0000      Y:     0.0000      Z:     0.0000

  Electronic Dipole Moment: [e a0]
     X:     0.0000      Y:     0.0000      Z:     0.0000

  Dipole Moment: [e a0]
     X:     0.0000      Y:     0.0000      Z:     0.0000     Total:     0.0000

  Dipole Moment: [D]
     X:     0.0000      Y:     0.0000      Z:     0.0000     Total:     0.0000


*** tstop() called on bp1-compute00148.data.bp.acrc.priv at Mon Apr 19 16:03:04 2021
Module time:
	user time   =      71.86 seconds =       1.20 minutes
	system time =       1.99 seconds =       0.03 minutes
	total time  =          3 seconds =       0.05 minutes
Total time:
	user time   =     896.97 seconds =      14.95 minutes
	system time =      30.85 seconds =       0.51 minutes
	total time  =         42 seconds =       0.70 minutes

  //>>>>>>>>>>>>>>>>>>>>>>>>>>>>>>>>>>>//
  //    Loading displacement 3 of 3    //
  //<<<<<<<<<<<<<<<<<<<<<<<<<<<<<<<<<<<//

*** tstart() called on bp1-compute00148.data.bp.acrc.priv
*** at Mon Apr 19 16:03:04 2021

   => Loading Basis Set <=

    Name: AUG-CC-PV(Q+D)Z
    Role: ORBITAL
    Keyword: BASIS
    atoms 1-2 entry N          line   379 file /work/zw18965/.conda/envs/p4env/share/psi4/basis/aug-cc-pv_qpd_z.gbs 


         ---------------------------------------------------------
                                   SCF
               by Justin Turney, Rob Parrish, Andy Simmonett
                          and Daniel G. A. Smith
                              RKS Reference
                       24 Threads, 137329 MiB Core
         ---------------------------------------------------------

  ==> Geometry <==

    Molecular point group: d2h
    Full point group: D_inf_h

    Geometry (in Angstrom), charge = 0, multiplicity = 1:

       Center              X                  Y                   Z               Mass       
    ------------   -----------------  -----------------  -----------------  -----------------
         N            0.544910312748     0.000000000000     0.000000000000    14.003074004430
         N           -0.544910312748    -0.000000000000     0.000000000000    14.003074004430

  Running in d2h symmetry.

  Rotational constants: A = ************  B =      2.02718  C =      2.02718 [cm^-1]
  Rotational constants: A = ************  B =  60773.43236  C =  60773.43236 [MHz]
  Nuclear repulsion =   23.792615698600653

  Charge       = 0
  Multiplicity = 1
  Electrons    = 14
  Nalpha       = 7
  Nbeta        = 7

  ==> Algorithm <==

  SCF Algorithm Type is DF.
  DIIS enabled.
  MOM disabled.
  Fractional occupation disabled.
  Guess Type is SAD.
  Energy threshold   = 1.00e-10
  Density threshold  = 1.00e-10
  Integral threshold = 0.00e+00

  ==> Primary Basis <==

  Basis Set: AUG-CC-PV(Q+D)Z
    Blend: AUG-CC-PV(Q+D)Z
    Number of shells: 40
    Number of basis function: 160
    Number of Cartesian functions: 210
    Spherical Harmonics?: true
    Max angular momentum: 4

  ==> DFT Potential <==

   => Composite Functional: WB97M-V <= 

    wB97M-V Hyb-GGA Exchange-Correlation Functional

    N. Mardirossian and M. Head-Gordon, J. Chem. Phys. 144, 214110 (2016)

    Deriv               =              1
    GGA                 =           TRUE
    Meta                =           TRUE

    Exchange Hybrid     =           TRUE
    MP2 Hybrid          =          FALSE

   => Exchange-Correlation Functionals <=

    1.0000   wB97M-V exchange-correlation functional

   => Exact (HF) Exchange <=

    0.8500            HF,LR [omega = 0.3000]
    0.1500               HF 

   => VV10 Non-Local Parameters <=

    VV10 B              =     6.0000E+00
    VV10 C              =     1.0000E-02

   => Molecular Quadrature <=

    Radial Scheme          =       TREUTLER
    Pruning Scheme         =           FLAT
    Nuclear Scheme         =       TREUTLER

    BS radius alpha        =              1
    Pruning alpha          =              1
    Radial Points          =             75
    Spherical Points       =            302
    Total Points           =          45300
    Total Blocks           =            424
    Max Points             =            255
    Max Functions          =            160

   => Loading Basis Set <=

    Name: (AUG-CC-PV(Q+D)Z AUX)
    Role: JKFIT
    Keyword: DF_BASIS_SCF
    atoms 1-2 entry N          line   248 file /work/zw18965/.conda/envs/p4env/share/psi4/basis/aug-cc-pvqz-jkfit.gbs 

  ==> Pre-Iterations <==

   -------------------------------------------------------
    Irrep   Nso     Nmo     Nalpha   Nbeta   Ndocc  Nsocc
   -------------------------------------------------------
     Ag        31      31       0       0       0       0
     B1g       19      19       0       0       0       0
     B2g       19      19       0       0       0       0
     B3g       11      11       0       0       0       0
     Au        11      11       0       0       0       0
     B1u       19      19       0       0       0       0
     B2u       19      19       0       0       0       0
     B3u       31      31       0       0       0       0
   -------------------------------------------------------
    Total     160     160       7       7       7       0
   -------------------------------------------------------

  ==> Integral Setup <==

  ==> DiskDFJK: Density-Fitted J/K Matrices <==

    J tasked:                  Yes
    K tasked:                  Yes
    wK tasked:                 Yes
    Omega:               3.000E-01
    OpenMP threads:             24
    Integrals threads:          24
    Memory [MiB]:           102507
    Algorithm:                Core
    Integral Cache:           NONE
    Schwarz Cutoff:          1E-12
    Fitting Condition:       1E-10

   => Auxiliary Basis Set <=

  Basis Set: (AUG-CC-PV(Q+D)Z AUX)
    Blend: AUG-CC-PVQZ-JKFIT
    Number of shells: 68
    Number of basis function: 284
    Number of Cartesian functions: 396
    Spherical Harmonics?: true
    Max angular momentum: 5

  Cached 100.0% of DFT collocation blocks in 0.478 [GiB].

  Minimum eigenvalue in the overlap matrix is 3.1306213271E-05.
  Using Symmetric Orthogonalization.

  SCF Guess: Superposition of Atomic Densities via on-the-fly atomic UHF.

  ==> Iterations <==

                           Total Energy        Delta E     RMS |[F,P]|

   @DF-RKS iter SAD:  -108.81400383354980   -1.08814e+02   0.00000e+00 
   @DF-RKS iter   1:  -109.53490311450558   -7.20899e-01   4.06485e-03 DIIS
   @DF-RKS iter   2:  -109.55274930637857   -1.78462e-02   1.68245e-03 DIIS
   @DF-RKS iter   3:  -109.55626028048493   -3.51097e-03   1.55443e-04 DIIS
   @DF-RKS iter   4:  -109.55630143575090   -4.11553e-05   2.29113e-05 DIIS
   @DF-RKS iter   5:  -109.55630315033058   -1.71458e-06   5.23276e-06 DIIS
   @DF-RKS iter   6:  -109.55630327282960   -1.22499e-07   4.47897e-07 DIIS
   @DF-RKS iter   7:  -109.55630327401829   -1.18870e-09   3.08631e-08 DIIS
   @DF-RKS iter   8:  -109.55630327402288   -4.59011e-12   2.66915e-09 DIIS
   @DF-RKS iter   9:  -109.55630327402292   -4.26326e-14   3.63762e-10 DIIS
   @DF-RKS iter  10:  -109.55630327402287    5.68434e-14   4.15164e-11 DIIS
  Energy and wave function converged.


  ==> Post-Iterations <==

    Orbital Energies [Eh]
    ---------------------

    Doubly Occupied:                                                      

       1Ag   -14.606295     1B3u  -14.604462     2Ag    -1.258393  
       2B3u   -0.669220     1B2u   -0.576311     1B1u   -0.576311  
       3Ag    -0.544840  

    Virtual:                                                              

       3B3u    0.056408     1B2g    0.062944     1B1g    0.062944  
       4Ag     0.076448     2B2u    0.081885     2B1u    0.081885  
       5Ag     0.115816     2B1g    0.130614     2B2g    0.130614  
       4B3u    0.220966     6Ag     0.278419     1B3g    0.278419  
       7Ag     0.326397     5B3u    0.368801     3B1g    0.375337  
       3B2g    0.375337     6B3u    0.382075     1Au     0.382075  
       3B1u    0.385093     3B2u    0.385093     4B2u    0.494478  
       4B1u    0.494478     7B3u    0.564375     8Ag     0.578203  
       9Ag     0.711366     4B1g    0.775004     4B2g    0.775004  
       8B3u    0.802786     5B1u    0.872343     5B2u    0.872343  
      10Ag     0.891100     2B3g    0.891100     6B1u    0.955209  
       6B2u    0.955209     9B3u    0.978161     2Au     0.978164  
      10B3u    1.078411    11Ag     1.095421     5B2g    1.106101  
       5B1g    1.106101     6B1g    1.107166     6B2g    1.107166  
      12Ag     1.113239     3B3g    1.113243    11B3u    1.298588  
      13Ag     1.461157     7B1u    1.462513     7B2u    1.462513  
       3Au     1.577555    12B3u    1.577556     7B2g    1.611807  
       7B1g    1.611807    13B3u    1.674670     8B1u    1.892390  
       8B2u    1.892390    14Ag     2.503828     4B3g    2.505944  
      15Ag     2.505946     5B3g    2.631592    16Ag     2.631592  
       9B1u    2.633832     9B2u    2.633832    17Ag     2.659172  
       8B2g    2.732076     8B1g    2.732076    14B3u    2.751707  
      10B1u    2.840854    10B2u    2.840854    15B3u    2.917465  
       4Au     2.917475    16B3u    2.923858     5Au     2.945945  
      17B3u    2.945949    11B1u    2.948627    11B2u    2.948627  
       9B1g    2.957685     9B2g    2.957685    18Ag     2.962013  
       6B3g    2.962029    12B1u    2.964573    12B2u    2.964573  
      19Ag     3.130944    10B2g    3.141505    10B1g    3.141505  
       6Au     3.203907    18B3u    3.203907    19B3u    3.320168  
      20Ag     3.360125    11B2g    3.380974    11B1g    3.380974  
      21Ag     3.653265     7B3g    3.653267    12B1g    3.720745  
      12B2g    3.720745    13B2u    4.534587    13B1u    4.534587  
       7Au     4.897756    20B3u    4.897757    21B3u    4.996711  
      22Ag     5.274212    22B3u    5.423694    13B2g    5.467686  
      13B1g    5.467686    14B2u    7.408094    14B1u    7.408094  
      23Ag     7.480000     8B3g    7.480007    15B1u    7.626883  
      15B2u    7.626883     9B3g    7.707244    24Ag     7.707267  
      25Ag     7.736107    14B2g    7.942484    14B1g    7.942484  
       8Au     8.038504    23B3u    8.038530    16B1u    8.109383  
      16B2u    8.109383    26Ag     8.384530    15B2g    8.465331  
      15B1g    8.465331    24B3u    8.470223     9Au     8.470240  
      16B2g    8.548330    16B1g    8.548330    17B1u    8.691124  
      17B2u    8.691124    25B3u    8.778830    27Ag     8.914376  
      10B3g    8.914390    26B3u    8.963347    17B2g    9.006704  
      17B1g    9.006704    28Ag     9.031730    11B3g    9.187621  
      29Ag     9.187630    18B2u    9.304401    18B1u    9.304401  
      10Au     9.971289    27B3u    9.971298    28B3u   10.225957  
      11Au    10.225962    19B2u   10.399270    19B1u   10.399270  
      18B2g   10.771834    18B1g   10.771834    29B3u   10.927346  
      30Ag    12.554085    19B2g   12.800333    19B1g   12.800333  
      30B3u   13.585004    31B3u   32.457862    31Ag    32.722539  

    Final Occupation by Irrep:
             Ag   B1g   B2g   B3g    Au   B1u   B2u   B3u 
    DOCC [     3,    0,    0,    0,    0,    1,    1,    2 ]

  @DF-RKS Final Energy:  -109.55630327402287

   => Energetics <=

    Nuclear Repulsion Energy =             23.7926156986006525
    One-Electron Energy =                -194.8115430901229388
    Two-Electron Energy =                  71.3015706072683741
    DFT Exchange-Correlation Energy =      -9.8978772986323484
    Empirical Dispersion Energy =           0.0000000000000000
    VV10 Nonlocal Energy =                  0.0589308088633925
    Total Energy =                       -109.5563032740228664

Computation Completed


Properties will be evaluated at   0.000000,   0.000000,   0.000000 [a0]

Properties computed using the SCF density matrix

  Nuclear Dipole Moment: [e a0]
     X:    -0.0000      Y:     0.0000      Z:     0.0000

  Electronic Dipole Moment: [e a0]
     X:     0.0000      Y:     0.0000      Z:     0.0000

  Dipole Moment: [e a0]
     X:    -0.0000      Y:     0.0000      Z:     0.0000     Total:     0.0000

  Dipole Moment: [D]
     X:    -0.0000      Y:     0.0000      Z:     0.0000     Total:     0.0000


*** tstop() called on bp1-compute00148.data.bp.acrc.priv at Mon Apr 19 16:03:07 2021
Module time:
	user time   =      73.90 seconds =       1.23 minutes
	system time =       2.02 seconds =       0.03 minutes
	total time  =          3 seconds =       0.05 minutes
Total time:
	user time   =     971.00 seconds =      16.18 minutes
	system time =      32.88 seconds =       0.55 minutes
	total time  =         45 seconds =       0.75 minutes

         ----------------------------------------------------------
                                   FINDIF
                     R. A. King and Jonathon Misiewicz
         ---------------------------------------------------------

  Computing second-derivative from energies using projected, 
  symmetry-adapted, cartesian coordinates.

  3 energies passed in, including the reference geometry.
    Using 3-point formula.
    Energy without displacement: -109.5563059758
    Check energies below for precision!
    0: -1 :      -109.5563028349
    0: 1  :      -109.5563032740

-------------------------------------------------------------


  ==> Harmonic Vibrational Analysis <==

  non-mass-weighted Hessian:       Symmetric? True   Hermitian? True   Lin Dep Dim?  5 (0)
  projection of translations (True) and rotations (True) removed 5 degrees of freedom (5)
  total projector:                 Symmetric? True   Hermitian? True   Lin Dep Dim?  5 (5)
  mass-weighted Hessian:           Symmetric? True   Hermitian? True   Lin Dep Dim?  5 (0)
  pre-proj  low-frequency mode:    0.0000  [cm^-1]
  pre-proj  low-frequency mode:    0.0000  [cm^-1]
  pre-proj  low-frequency mode:    0.0000  [cm^-1]
  pre-proj  low-frequency mode:    0.0000  [cm^-1]
  pre-proj  low-frequency mode:    0.0000  [cm^-1]
  pre-proj  all modes:['0.0000' '0.0000' '0.0000' '0.0000' '0.0000' '2485.0861']
  projected mass-weighted Hessian: Symmetric? True   Hermitian? True   Lin Dep Dim?  5 (5)
  post-proj low-frequency mode:    0.0000i [cm^-1] (TR)
  post-proj low-frequency mode:    0.0000i [cm^-1] (TR)
  post-proj low-frequency mode:    0.0000i [cm^-1] (TR)
  post-proj low-frequency mode:    0.0000  [cm^-1] (TR)
  post-proj low-frequency mode:    0.0000  [cm^-1] (TR)
  post-proj  all modes:['0.0000i' '0.0000i' '0.0000i' '0.0000' '0.0000' '2485.0861']

  Vibration                       6           
  Freq [cm^-1]                2485.0861       
  Irrep                           Ag          
  Reduced mass [u]             14.0031        
  Force const [mDyne/A]        50.9514        
  Turning point v=0 [a0]        0.0588        
  RMS dev v=0 [a0 u^1/2]        0.1556        
  Char temp [K]               3575.4855       
  ----------------------------------------------------------------------------------
      1   N                0.71  0.00 -0.00   
      2   N               -0.71 -0.00 -0.00   

  ==> Thermochemistry Components <==

  Entropy, S
    Electronic S            0.000 [cal/(mol K)]        0.000 [J/(mol K)]       0.00000000 [mEh/K] (multiplicity = 1)
    Translational S        35.924 [cal/(mol K)]      150.307 [J/(mol K)]       0.05724883 [mEh/K] (mol. weight = 28.0061 [u], P = 101325.00 [Pa])
    Rotational S            9.801 [cal/(mol K)]       41.008 [J/(mol K)]       0.01561926 [mEh/K] (symmetry no. = 2)
    Vibrational S           0.000 [cal/(mol K)]        0.001 [J/(mol K)]       0.00000025 [mEh/K]
  Total S                  45.726 [cal/(mol K)]      191.316 [J/(mol K)]       0.07286834 [mEh/K]
  Correction S              0.000 [cal/(mol K)]        0.000 [J/(mol K)]       0.00000000 [mEh/K]

  Constant volume heat capacity, Cv
    Electronic Cv           0.000 [cal/(mol K)]        0.000 [J/(mol K)]       0.00000000 [mEh/K]
    Translational Cv        2.981 [cal/(mol K)]       12.472 [J/(mol K)]       0.00475022 [mEh/K]
    Rotational Cv           1.987 [cal/(mol K)]        8.314 [J/(mol K)]       0.00316681 [mEh/K]
    Vibrational Cv          0.002 [cal/(mol K)]        0.007 [J/(mol K)]       0.00000282 [mEh/K]
  Total Cv                  4.970 [cal/(mol K)]       20.794 [J/(mol K)]       0.00791985 [mEh/K]
  Correction Cv             0.000 [cal/(mol K)]        0.000 [J/(mol K)]       0.00000000 [mEh/K]

  Constant pressure heat capacity, Cp
    Electronic Cp           0.000 [cal/(mol K)]        0.000 [J/(mol K)]       0.00000000 [mEh/K]
    Translational Cp        4.968 [cal/(mol K)]       20.786 [J/(mol K)]       0.00791703 [mEh/K]
    Rotational Cp           1.987 [cal/(mol K)]        8.314 [J/(mol K)]       0.00316681 [mEh/K]
    Vibrational Cp          0.002 [cal/(mol K)]        0.007 [J/(mol K)]       0.00000282 [mEh/K]
  Total Cp                  6.957 [cal/(mol K)]       29.108 [J/(mol K)]       0.01108666 [mEh/K]
  Correction Cp             0.000 [cal/(mol K)]        0.000 [J/(mol K)]       0.00000000 [mEh/K]

  ==> Thermochemistry Energy Analysis <==

  Raw electronic energy, E0
  Total E0, Electronic energy at well bottom at 0 [K]                 -109.55630598 [Eh]

  Zero-point energy, ZPE_vib = Sum_i nu_i / 2
    Electronic ZPE          0.000 [kcal/mol]        0.000 [kJ/mol]       0.00000000 [Eh]
    Translational ZPE       0.000 [kcal/mol]        0.000 [kJ/mol]       0.00000000 [Eh]
    Rotational ZPE          0.000 [kcal/mol]        0.000 [kJ/mol]       0.00000000 [Eh]
    Vibrational ZPE         3.553 [kcal/mol]       14.864 [kJ/mol]       0.00566144 [Eh]        1242.543 [cm^-1]
  Correction ZPE            3.553 [kcal/mol]       14.864 [kJ/mol]       0.00566144 [Eh]        1242.543 [cm^-1]
  Total ZPE, Electronic energy at 0 [K]                               -109.55064453 [Eh]

  Thermal Energy, E (includes ZPE)
    Electronic E            0.000 [kcal/mol]        0.000 [kJ/mol]       0.00000000 [Eh]
    Translational E         0.889 [kcal/mol]        3.718 [kJ/mol]       0.00141628 [Eh]
    Rotational E            0.592 [kcal/mol]        2.479 [kJ/mol]       0.00094418 [Eh]
    Vibrational E           3.553 [kcal/mol]       14.864 [kJ/mol]       0.00566151 [Eh]
  Correction E              5.034 [kcal/mol]       21.062 [kJ/mol]       0.00802197 [Eh]
  Total E, Electronic energy at  298.15 [K]                           -109.54828400 [Eh]

  Enthalpy, H_trans = E_trans + k_B * T
    Electronic H            0.000 [kcal/mol]        0.000 [kJ/mol]       0.00000000 [Eh]
    Translational H         1.481 [kcal/mol]        6.197 [kJ/mol]       0.00236046 [Eh]
    Rotational H            0.592 [kcal/mol]        2.479 [kJ/mol]       0.00094418 [Eh]
    Vibrational H           3.553 [kcal/mol]       14.864 [kJ/mol]       0.00566151 [Eh]
  Correction H              5.626 [kcal/mol]       23.541 [kJ/mol]       0.00896616 [Eh]
  Total H, Enthalpy at  298.15 [K]                                    -109.54733982 [Eh]

  Gibbs free energy, G = H - T * S
    Electronic G            0.000 [kcal/mol]        0.000 [kJ/mol]       0.00000000 [Eh]
    Translational G        -9.230 [kcal/mol]      -38.617 [kJ/mol]      -0.01470828 [Eh]
    Rotational G           -2.330 [kcal/mol]       -9.748 [kJ/mol]      -0.00371270 [Eh]
    Vibrational G           3.553 [kcal/mol]       14.864 [kJ/mol]       0.00566144 [Eh]
  Correction G             -8.007 [kcal/mol]      -33.500 [kJ/mol]      -0.01275954 [Eh]
  Total G, Free enthalpy at  298.15 [K]                               -109.56906551 [Eh]

    Psi4 stopped on: Monday, 19 April 2021 04:03PM
    Psi4 wall time for execution: 0:00:45.35

*** Psi4 exiting successfully. Buy a developer a beer!
