
    -----------------------------------------------------------------------
          Psi4: An Open-Source Ab Initio Electronic Structure Package
                               Psi4 1.3.2 release

                         Git: Rev {HEAD} ecbda83 


    R. M. Parrish, L. A. Burns, D. G. A. Smith, A. C. Simmonett,
    A. E. DePrince III, E. G. Hohenstein, U. Bozkaya, A. Yu. Sokolov,
    R. Di Remigio, R. M. Richard, J. F. Gonthier, A. M. James,
    H. R. McAlexander, A. Kumar, M. Saitow, X. Wang, B. P. Pritchard,
    P. Verma, H. F. Schaefer III, K. Patkowski, R. A. King, E. F. Valeev,
    F. A. Evangelista, J. M. Turney, T. D. Crawford, and C. D. Sherrill,
    J. Chem. Theory Comput. 13(7) pp 3185--3197 (2017).
    (doi: 10.1021/acs.jctc.7b00174)


                         Additional Contributions by
    P. Kraus, H. Kruse, M. H. Lechner, M. C. Schieber, R. A. Shaw,
    A. Alenaizan, R. Galvelis, Z. L. Glick, S. Lehtola, and J. P. Misiewicz

    -----------------------------------------------------------------------


    Psi4 started on: Tuesday, 27 April 2021 04:50PM

    Process ID: 64896
    Host:       bp1-compute00065.data.bp.acrc.priv
    PSIDATADIR: /work/zw18965/.conda/envs/p4env/share/psi4
    Memory:     500.0 MiB
    Threads:    24
    
  ==> Input File <==

--------------------------------------------------------------------------
memory 144 GB

molecule {
0 1
N 0.0000000000 0.0000000000 0.0000000000
H 0.0000000000 0.0000000000 1.0124000000
H 0.9722998620 0.0000000000 -0.2821112163
H -0.3756003142 0.8968229622 -0.2821112163
}

set dynamic_level 1
set basis aug-cc-pV(Q+d)Z
 
optimize("wB97M-V")
frequencies("wB97M-V")
--------------------------------------------------------------------------

  Memory set to 134.110 GiB by Python driver.
gradient() will perform gradient computation by finite difference of analytic energies.

         ----------------------------------------------------------
                                   FINDIF
                     R. A. King and Jonathon Misiewicz
         ---------------------------------------------------------

  Using finite-differences of energies to determine gradients.
    Generating geometries for use with 3-point formula.
    Displacement size will be 5.00e-03.
    Number of atoms is 4.
    Number of symmetric SALCs is 4.
    Translations projected? 1. Rotations projected? 1.
    Number of geometries (including reference) is 9.

  //>>>>>>>>>>>>>>>>>>>>>>>>>>>>>>>>>>>//
  //    Loading displacement 1 of 9    //
  //<<<<<<<<<<<<<<<<<<<<<<<<<<<<<<<<<<<//

*** tstart() called on bp1-compute00065.data.bp.acrc.priv
*** at Tue Apr 27 16:50:51 2021

   => Loading Basis Set <=

    Name: AUG-CC-PV(Q+D)Z
    Role: ORBITAL
    Keyword: BASIS
    atoms 1   entry N          line   379 file /work/zw18965/.conda/envs/p4env/share/psi4/basis/aug-cc-pv_qpd_z.gbs 
    atoms 2-4 entry H          line    56 file /work/zw18965/.conda/envs/p4env/share/psi4/basis/aug-cc-pv_qpd_z.gbs 


         ---------------------------------------------------------
                                   SCF
               by Justin Turney, Rob Parrish, Andy Simmonett
                          and Daniel G. A. Smith
                              RKS Reference
                       24 Threads, 137329 MiB Core
         ---------------------------------------------------------

  ==> Geometry <==

    Molecular point group: cs
    Full point group: C3v

    Geometry (in Angstrom), charge = 0, multiplicity = 1:

       Center              X                  Y                   Z               Mass       
    ------------   -----------------  -----------------  -----------------  -----------------
         N           -0.044172539916    -0.053084193715     0.000000000000    14.003074004430
         H            0.563834188921    -0.053084193715     0.809494643400     1.007825032230
         H            0.563834188921    -0.053084193715    -0.809494643400     1.007825032230
         H           -0.513919636117     0.843738768485     0.000000000000     1.007825032230

  Running in cs symmetry.

  Rotational constants: A =      9.93436  B =      9.93436  C =      6.38151 [cm^-1]
  Rotational constants: A = 297824.55791  B = 297824.55789  C = 191312.83542 [MHz]
  Nuclear repulsion =   11.957181014327382

  Charge       = 0
  Multiplicity = 1
  Electrons    = 10
  Nalpha       = 5
  Nbeta        = 5

  ==> Algorithm <==

  SCF Algorithm Type is DF.
  DIIS enabled.
  MOM disabled.
  Fractional occupation disabled.
  Guess Type is SAD.
  Energy threshold   = 1.00e-08
  Density threshold  = 1.00e-08
  Integral threshold = 0.00e+00

  ==> Primary Basis <==

  Basis Set: AUG-CC-PV(Q+D)Z
    Blend: AUG-CC-PV(Q+D)Z
    Number of shells: 62
    Number of basis function: 218
    Number of Cartesian functions: 270
    Spherical Harmonics?: true
    Max angular momentum: 4

  ==> DFT Potential <==

   => Composite Functional: WB97M-V <= 

    wB97M-V Hyb-GGA Exchange-Correlation Functional

    N. Mardirossian and M. Head-Gordon, J. Chem. Phys. 144, 214110 (2016)

    Deriv               =              1
    GGA                 =           TRUE
    Meta                =           TRUE

    Exchange Hybrid     =           TRUE
    MP2 Hybrid          =          FALSE

   => Exchange-Correlation Functionals <=

    1.0000   wB97M-V exchange-correlation functional

   => Exact (HF) Exchange <=

    0.8500            HF,LR [omega = 0.3000]
    0.1500               HF 

   => VV10 Non-Local Parameters <=

    VV10 B              =     6.0000E+00
    VV10 C              =     1.0000E-02

   => Molecular Quadrature <=

    Radial Scheme          =       TREUTLER
    Pruning Scheme         =           FLAT
    Nuclear Scheme         =       TREUTLER

    BS radius alpha        =              1
    Pruning alpha          =              1
    Radial Points          =             75
    Spherical Points       =            302
    Total Points           =          90600
    Total Blocks           =            749
    Max Points             =            256
    Max Functions          =            218

   => Loading Basis Set <=

    Name: (AUG-CC-PV(Q+D)Z AUX)
    Role: JKFIT
    Keyword: DF_BASIS_SCF
    atoms 1   entry N          line   248 file /work/zw18965/.conda/envs/p4env/share/psi4/basis/aug-cc-pvqz-jkfit.gbs 
    atoms 2-4 entry H          line    70 file /work/zw18965/.conda/envs/p4env/share/psi4/basis/aug-cc-pvqz-jkfit.gbs 

  ==> Pre-Iterations <==

   -------------------------------------------------------
    Irrep   Nso     Nmo     Nalpha   Nbeta   Ndocc  Nsocc
   -------------------------------------------------------
     A'       126     126       0       0       0       0
     A"        92      92       0       0       0       0
   -------------------------------------------------------
    Total     218     218       5       5       5       0
   -------------------------------------------------------

  ==> Integral Setup <==

  ==> DiskDFJK: Density-Fitted J/K Matrices <==

    J tasked:                  Yes
    K tasked:                  Yes
    wK tasked:                 Yes
    Omega:               3.000E-01
    OpenMP threads:             24
    Integrals threads:          24
    Memory [MiB]:           101631
    Algorithm:                Core
    Integral Cache:           NONE
    Schwarz Cutoff:          1E-12
    Fitting Condition:       1E-10

   => Auxiliary Basis Set <=

  Basis Set: (AUG-CC-PV(Q+D)Z AUX)
    Blend: AUG-CC-PVQZ-JKFIT
    Number of shells: 88
    Number of basis function: 370
    Number of Cartesian functions: 501
    Spherical Harmonics?: true
    Max angular momentum: 5

  Cached 100.0% of DFT collocation blocks in 1.333 [GiB].

  Minimum eigenvalue in the overlap matrix is 5.1650389248E-05.
  Using Symmetric Orthogonalization.

  SCF Guess: Superposition of Atomic Densities via on-the-fly atomic UHF.

  ==> Iterations <==

                           Total Energy        Delta E     RMS |[F,P]|

   @DF-RKS iter SAD:   -56.04670753671420   -5.60467e+01   0.00000e+00 
   @DF-RKS iter   1:   -56.37644624405553   -3.29739e-01   4.25445e-03 DIIS
   @DF-RKS iter   2:   -56.38762360770246   -1.11774e-02   4.08682e-03 DIIS
   @DF-RKS iter   3:   -56.55519398417427   -1.67570e-01   1.39258e-04 DIIS
   @DF-RKS iter   4:   -56.55557663974615   -3.82656e-04   3.02294e-05 DIIS
   @DF-RKS iter   5:   -56.55559545087152   -1.88111e-05   4.11252e-06 DIIS
   @DF-RKS iter   6:   -56.55559618947046   -7.38599e-07   1.39081e-06 DIIS
   @DF-RKS iter   7:   -56.55559625939622   -6.99258e-08   3.28747e-07 DIIS
   @DF-RKS iter   8:   -56.55559626726850   -7.87228e-09   7.39924e-08 DIIS
   @DF-RKS iter   9:   -56.55559626764163   -3.73134e-10   1.04307e-08 DIIS
   @DF-RKS iter  10:   -56.55559626764765   -6.01830e-12   9.36556e-10 DIIS
  Energy and wave function converged.


  ==> Post-Iterations <==

    Orbital Energies [Eh]
    ---------------------

    Doubly Occupied:                                                      

       1Ap   -14.480734     2Ap    -0.976889     3Ap    -0.565752  
       1App   -0.565752     4Ap    -0.377026  

    Virtual:                                                              

       5Ap     0.009629     2App    0.034430     6Ap     0.034431  
       7Ap     0.077027     8Ap     0.110231     9Ap     0.119686  
       3App    0.119686     4App    0.154720    10Ap     0.154721  
      11Ap     0.160141     5App    0.160141    12Ap     0.180259  
       6App    0.256343    13Ap     0.263179    14Ap     0.269126  
       7App    0.269127    15Ap     0.312307     8App    0.334599  
      16Ap     0.334600    17Ap     0.354571     9App    0.354572  
      18Ap     0.386144    10App    0.430946    19Ap     0.430946  
      11App    0.501643    20Ap     0.501643    21Ap     0.505484  
      22Ap     0.542608    23Ap     0.629242    24Ap     0.631342  
      12App    0.631348    13App    0.655832    25Ap     0.667388  
      14App    0.667392    15App    0.702561    26Ap     0.708637  
      16App    0.708638    27Ap     0.714636    28Ap     0.771659  
      17App    0.771661    29Ap     0.788487    30Ap     0.798699  
      18App    0.798702    19App    0.810615    31Ap     0.810615  
      32Ap     0.895575    20App    0.927664    33Ap     0.927665  
      34Ap     1.047039    35Ap     1.129938    21App    1.129941  
      36Ap     1.247566    37Ap     1.255083    22App    1.255085  
      38Ap     1.256013    23App    1.274926    39Ap     1.343767  
      24App    1.343767    40Ap     1.415892    25App    1.415892  
      26App    1.424949    41Ap     1.456011    42Ap     1.482700  
      43Ap     1.554432    27App    1.554441    44Ap     1.591019  
      28App    1.591021    45Ap     1.617994    46Ap     1.644079  
      29App    1.644084    47Ap     1.708920    30App    1.722643  
      48Ap     1.722644    31App    1.751703    49Ap     1.786193  
      32App    1.786196    50Ap     1.866476    33App    1.866479  
      51Ap     1.910253    34App    1.910254    52Ap     1.924182  
      35App    1.958794    53Ap     1.981764    54Ap     1.994678  
      36App    1.994684    55Ap     2.040190    56Ap     2.139392  
      37App    2.139400    38App    2.166273    57Ap     2.238343  
      39App    2.238347    58Ap     2.583606    59Ap     2.720709  
      40App    2.720711    60Ap     2.731409    41App    2.741450  
      61Ap     2.741453    42App    2.750895    62Ap     2.816191  
      43App    2.816198    44App    2.847168    63Ap     2.847169  
      64Ap     2.873740    45App    2.931722    65Ap     2.942660  
      66Ap     3.014837    46App    3.014838    67Ap     3.061969  
      47App    3.061974    68Ap     3.188045    48App    3.188046  
      69Ap     3.260355    70Ap     3.358255    49App    3.358258  
      71Ap     3.384595    50App    3.531964    72Ap     3.692699  
      51App    3.707462    73Ap     3.707466    74Ap     3.918366  
      75Ap     3.931266    52App    3.931282    76Ap     3.966265  
      53App    3.966273    77Ap     4.005852    54App    4.013487  
      78Ap     4.049529    79Ap     4.150823    55App    4.150833  
      56App    4.448303    80Ap     4.448305    81Ap     4.686262  
      57App    4.686264    82Ap     4.795992    83Ap     4.910205  
      58App    4.910209    84Ap     5.059173    59App    5.059179  
      60App    5.181955    85Ap     5.327415    86Ap     6.566467  
      61App    6.566469    62App    6.645441    63App    6.667166  
      87Ap     6.667171    88Ap     6.751155    64App    7.044520  
      89Ap     7.057519    65App    7.057519    90Ap     7.094404  
      66App    7.094419    91Ap     7.255555    92Ap     7.373815  
      67App    7.373821    68App    7.393808    69App    7.515129  
      93Ap     7.515131    70App    7.632525    94Ap     7.632526  
      95Ap     7.667596    96Ap     7.871649    71App    7.970930  
      97Ap     7.970930    98Ap     7.974388    99Ap     8.171030  
      72App    8.277346   100Ap     8.277372   101Ap     8.325153  
      73App    8.325159   102Ap     8.522367   103Ap     8.576056  
      74App    8.576066   104Ap     8.586671    75App    8.644604  
     105Ap     8.653720    76App    8.653721    77App    8.675515  
     106Ap     8.802678    78App    8.908676   107Ap     8.908685  
     108Ap     9.043949    79App    9.043958   109Ap     9.136094  
      80App    9.136096   110Ap     9.197761    81App    9.401695  
     111Ap     9.443609    82App    9.523080   112Ap     9.523086  
     113Ap     9.695216    83App    9.695256   114Ap     9.708271  
      84App    9.892542   115Ap     9.892542   116Ap    10.136629  
      85App   10.136635   117Ap    10.339144    86App   10.473029  
     118Ap    10.519408    87App   10.519431   119Ap    11.211717  
     120Ap    11.772510    88App   11.772513   121Ap    11.819689  
     122Ap    11.927232    89App   11.927241    90App   12.592572  
      91App   12.660500   123Ap    12.660500   124Ap    14.143311  
      92App   14.460818   125Ap    14.460826   126Ap    35.743221  

    Final Occupation by Irrep:
             Ap   App 
    DOCC [     4,    1 ]

  @DF-RKS Final Energy:   -56.55559626764765

   => Energetics <=

    Nuclear Repulsion Energy =             11.9571810143273822
    One-Electron Energy =                 -99.6512575489334580
    Two-Electron Energy =                  36.6575869662429170
    DFT Exchange-Correlation Energy =      -5.5609349671959567
    Empirical Dispersion Energy =           0.0000000000000000
    VV10 Nonlocal Energy =                  0.0418282679114537
    Total Energy =                        -56.5555962676476511

Computation Completed


Properties will be evaluated at   0.000000,   0.000000,   0.000000 [a0]

Properties computed using the SCF density matrix

  Nuclear Dipole Moment: [e a0]
     X:     0.5755      Y:     0.6916      Z:     0.0000

  Electronic Dipole Moment: [e a0]
     X:    -0.1820      Y:    -0.2187      Z:     0.0000

  Dipole Moment: [e a0]
     X:     0.3935      Y:     0.4729      Z:     0.0000     Total:     0.6152

  Dipole Moment: [D]
     X:     1.0001      Y:     1.2019      Z:     0.0000     Total:     1.5636


*** tstop() called on bp1-compute00065.data.bp.acrc.priv at Tue Apr 27 16:50:58 2021
Module time:
	user time   =     141.84 seconds =       2.36 minutes
	system time =      10.19 seconds =       0.17 minutes
	total time  =          7 seconds =       0.12 minutes
Total time:
	user time   =     141.84 seconds =       2.36 minutes
	system time =      10.19 seconds =       0.17 minutes
	total time  =          7 seconds =       0.12 minutes

  //>>>>>>>>>>>>>>>>>>>>>>>>>>>>>>>>>>>//
  //    Loading displacement 2 of 9    //
  //<<<<<<<<<<<<<<<<<<<<<<<<<<<<<<<<<<<//

*** tstart() called on bp1-compute00065.data.bp.acrc.priv
*** at Tue Apr 27 16:50:58 2021

   => Loading Basis Set <=

    Name: AUG-CC-PV(Q+D)Z
    Role: ORBITAL
    Keyword: BASIS
    atoms 1   entry N          line   379 file /work/zw18965/.conda/envs/p4env/share/psi4/basis/aug-cc-pv_qpd_z.gbs 
    atoms 2-4 entry H          line    56 file /work/zw18965/.conda/envs/p4env/share/psi4/basis/aug-cc-pv_qpd_z.gbs 


         ---------------------------------------------------------
                                   SCF
               by Justin Turney, Rob Parrish, Andy Simmonett
                          and Daniel G. A. Smith
                              RKS Reference
                       24 Threads, 137329 MiB Core
         ---------------------------------------------------------

  ==> Geometry <==

    Molecular point group: cs
    Full point group: Cs

    Geometry (in Angstrom), charge = 0, multiplicity = 1:

       Center              X                  Y                   Z               Mass       
    ------------   -----------------  -----------------  -----------------  -----------------
         N           -0.044450300625    -0.053119022022     0.000000000000    14.003074004430
         H            0.565356326971    -0.052639632675     0.809494643400     1.007825032230
         H            0.565356326971    -0.052639632675    -0.809494643400     1.007825032230
         H           -0.513104607633     0.843333563103     0.000000000000     1.007825032230

  Running in cs symmetry.

  Rotational constants: A =      9.92134  B =      9.92130  C =      6.38149 [cm^-1]
  Rotational constants: A = 297434.35468  B = 297433.04179  C = 191312.29224 [MHz]
  Nuclear repulsion =   11.952387408110855

  Charge       = 0
  Multiplicity = 1
  Electrons    = 10
  Nalpha       = 5
  Nbeta        = 5

  ==> Algorithm <==

  SCF Algorithm Type is DF.
  DIIS enabled.
  MOM disabled.
  Fractional occupation disabled.
  Guess Type is SAD.
  Energy threshold   = 1.00e-08
  Density threshold  = 1.00e-08
  Integral threshold = 0.00e+00

  ==> Primary Basis <==

  Basis Set: AUG-CC-PV(Q+D)Z
    Blend: AUG-CC-PV(Q+D)Z
    Number of shells: 62
    Number of basis function: 218
    Number of Cartesian functions: 270
    Spherical Harmonics?: true
    Max angular momentum: 4

  ==> DFT Potential <==

   => Composite Functional: WB97M-V <= 

    wB97M-V Hyb-GGA Exchange-Correlation Functional

    N. Mardirossian and M. Head-Gordon, J. Chem. Phys. 144, 214110 (2016)

    Deriv               =              1
    GGA                 =           TRUE
    Meta                =           TRUE

    Exchange Hybrid     =           TRUE
    MP2 Hybrid          =          FALSE

   => Exchange-Correlation Functionals <=

    1.0000   wB97M-V exchange-correlation functional

   => Exact (HF) Exchange <=

    0.8500            HF,LR [omega = 0.3000]
    0.1500               HF 

   => VV10 Non-Local Parameters <=

    VV10 B              =     6.0000E+00
    VV10 C              =     1.0000E-02

   => Molecular Quadrature <=

    Radial Scheme          =       TREUTLER
    Pruning Scheme         =           FLAT
    Nuclear Scheme         =       TREUTLER

    BS radius alpha        =              1
    Pruning alpha          =              1
    Radial Points          =             75
    Spherical Points       =            302
    Total Points           =          90600
    Total Blocks           =            747
    Max Points             =            256
    Max Functions          =            218

   => Loading Basis Set <=

    Name: (AUG-CC-PV(Q+D)Z AUX)
    Role: JKFIT
    Keyword: DF_BASIS_SCF
    atoms 1   entry N          line   248 file /work/zw18965/.conda/envs/p4env/share/psi4/basis/aug-cc-pvqz-jkfit.gbs 
    atoms 2-4 entry H          line    70 file /work/zw18965/.conda/envs/p4env/share/psi4/basis/aug-cc-pvqz-jkfit.gbs 

  ==> Pre-Iterations <==

   -------------------------------------------------------
    Irrep   Nso     Nmo     Nalpha   Nbeta   Ndocc  Nsocc
   -------------------------------------------------------
     A'       126     126       0       0       0       0
     A"        92      92       0       0       0       0
   -------------------------------------------------------
    Total     218     218       5       5       5       0
   -------------------------------------------------------

  ==> Integral Setup <==

  ==> DiskDFJK: Density-Fitted J/K Matrices <==

    J tasked:                  Yes
    K tasked:                  Yes
    wK tasked:                 Yes
    Omega:               3.000E-01
    OpenMP threads:             24
    Integrals threads:          24
    Memory [MiB]:           101631
    Algorithm:                Core
    Integral Cache:           NONE
    Schwarz Cutoff:          1E-12
    Fitting Condition:       1E-10

   => Auxiliary Basis Set <=

  Basis Set: (AUG-CC-PV(Q+D)Z AUX)
    Blend: AUG-CC-PVQZ-JKFIT
    Number of shells: 88
    Number of basis function: 370
    Number of Cartesian functions: 501
    Spherical Harmonics?: true
    Max angular momentum: 5

  Cached 100.0% of DFT collocation blocks in 1.334 [GiB].

  Minimum eigenvalue in the overlap matrix is 5.1678733705E-05.
  Using Symmetric Orthogonalization.

  SCF Guess: Superposition of Atomic Densities via on-the-fly atomic UHF.

  ==> Iterations <==

                           Total Energy        Delta E     RMS |[F,P]|

   @DF-RKS iter SAD:   -56.04639358995331   -5.60464e+01   0.00000e+00 
   @DF-RKS iter   1:   -56.37649519863636   -3.30102e-01   4.25291e-03 DIIS
   @DF-RKS iter   2:   -56.38754654705604   -1.10513e-02   4.08708e-03 DIIS
   @DF-RKS iter   3:   -56.55518480079467   -1.67638e-01   1.39207e-04 DIIS
   @DF-RKS iter   4:   -56.55556752186419   -3.82721e-04   3.02562e-05 DIIS
   @DF-RKS iter   5:   -56.55558636521491   -1.88434e-05   4.12320e-06 DIIS
   @DF-RKS iter   6:   -56.55558710590485   -7.40690e-07   1.39355e-06 DIIS
   @DF-RKS iter   7:   -56.55558717612450   -7.02197e-08   3.29096e-07 DIIS
   @DF-RKS iter   8:   -56.55558718400392   -7.87941e-09   7.39784e-08 DIIS
   @DF-RKS iter   9:   -56.55558718437719   -3.73269e-10   1.04478e-08 DIIS
   @DF-RKS iter  10:   -56.55558718438283   -5.64171e-12   9.52895e-10 DIIS
  Energy and wave function converged.


  ==> Post-Iterations <==

    Orbital Energies [Eh]
    ---------------------

    Doubly Occupied:                                                      

       1Ap   -14.480904     2Ap    -0.976810     3Ap    -0.565897  
       1App   -0.565151     4Ap    -0.377183  

    Virtual:                                                              

       5Ap     0.009613     6Ap     0.034425     2App    0.034436  
       7Ap     0.077028     8Ap     0.110207     3App    0.119669  
       9Ap     0.119700     4App    0.154646    10Ap     0.154735  
      11Ap     0.160090     5App    0.160149    12Ap     0.180216  
       6App    0.256343    13Ap     0.263146    14Ap     0.269119  
       7App    0.269121    15Ap     0.312234     8App    0.334198  
      16Ap     0.334693    17Ap     0.354573     9App    0.354651  
      18Ap     0.386251    19Ap     0.430726    10App    0.430881  
      11App    0.501435    20Ap     0.501700    21Ap     0.505365  
      22Ap     0.542644    23Ap     0.629052    12App    0.631195  
      24Ap     0.631318    13App    0.655838    25Ap     0.667375  
      14App    0.667426    15App    0.702570    16App    0.708303  
      26Ap     0.708727    27Ap     0.714546    17App    0.771593  
      28Ap     0.771766    29Ap     0.788483    30Ap     0.798605  
      18App    0.798761    31Ap     0.810522    19App    0.810820  
      32Ap     0.895726    33Ap     0.927191    20App    0.927667  
      34Ap     1.047079    21App    1.129765    35Ap     1.129848  
      36Ap     1.247297    22App    1.254916    37Ap     1.255059  
      38Ap     1.255900    23App    1.274861    39Ap     1.343689  
      24App    1.343891    25App    1.415033    40Ap     1.416113  
      26App    1.424680    41Ap     1.455887    42Ap     1.482615  
      43Ap     1.554263    27App    1.554498    28App    1.590997  
      44Ap     1.591323    45Ap     1.618014    46Ap     1.643702  
      29App    1.643988    47Ap     1.708833    48Ap     1.722595  
      30App    1.722619    31App    1.751938    49Ap     1.785985  
      32App    1.786488    33App    1.866131    50Ap     1.866278  
      51Ap     1.910366    34App    1.910569    52Ap     1.924470  
      35App    1.958801    53Ap     1.981633    36App    1.994753  
      54Ap     1.994801    55Ap     2.039607    37App    2.138414  
      56Ap     2.138928    38App    2.166143    57Ap     2.237420  
      39App    2.237475    58Ap     2.583677    59Ap     2.721029  
      40App    2.721501    60Ap     2.730955    41App    2.740637  
      61Ap     2.741518    42App    2.750808    43App    2.816008  
      62Ap     2.816720    44App    2.846189    63Ap     2.846237  
      64Ap     2.873950    45App    2.931121    65Ap     2.942590  
      46App    3.015231    66Ap     3.015508    67Ap     3.061322  
      47App    3.062014    68Ap     3.187082    48App    3.187290  
      69Ap     3.260182    49App    3.357910    70Ap     3.358110  
      71Ap     3.384471    50App    3.531978    72Ap     3.692387  
      51App    3.706865    73Ap     3.706922    74Ap     3.917435  
      52App    3.929765    75Ap     3.930910    53App    3.965008  
      76Ap     3.966977    77Ap     4.005036    54App    4.012862  
      78Ap     4.049260    79Ap     4.149217    55App    4.149487  
      56App    4.447814    80Ap     4.447815    81Ap     4.684811  
      57App    4.685469    82Ap     4.794689    58App    4.909139  
      83Ap     4.910745    59App    5.057851    84Ap     5.059085  
      60App    5.180375    85Ap     5.326305    61App    6.565855  
      86Ap     6.566019    62App    6.645583    63App    6.666393  
      87Ap     6.666682    88Ap     6.749843    64App    7.043476  
      65App    7.055445    89Ap     7.056439    66App    7.092873  
      90Ap     7.093336    91Ap     7.256174    67App    7.371060  
      92Ap     7.374153    68App    7.394455    93Ap     7.512934  
      69App    7.514217    94Ap     7.630539    70App    7.631360  
      95Ap     7.667388    96Ap     7.871194    71App    7.968354  
      97Ap     7.970888    98Ap     7.973214    99Ap     8.169457  
     100Ap     8.275320    72App    8.276332   101Ap     8.323097  
      73App    8.324080   102Ap     8.522185   103Ap     8.576329  
      74App    8.576762   104Ap     8.586646    75App    8.642535  
      76App    8.654770   105Ap     8.655183    77App    8.676442  
     106Ap     8.804655    78App    8.907118   107Ap     8.909280  
      79App    9.043061   108Ap     9.043472   109Ap     9.135912  
      80App    9.138399   110Ap     9.196744    81App    9.401521  
     111Ap     9.445242    82App    9.519226   112Ap     9.522395  
     113Ap     9.694121    83App    9.695953   114Ap     9.708307  
      84App    9.890069   115Ap     9.893186    85App   10.134343  
     116Ap    10.135703   117Ap    10.335158    86App   10.471162  
      87App   10.515123   118Ap    10.516101   119Ap    11.208482  
     120Ap    11.766538    88App   11.771157   121Ap    11.816342  
      89App   11.919266   122Ap    11.929542    90App   12.586536  
      91App   12.654456   123Ap    12.660959   124Ap    14.140724  
      92App   14.452008   125Ap    14.462352   126Ap    35.737589  

    Final Occupation by Irrep:
             Ap   App 
    DOCC [     4,    1 ]

  @DF-RKS Final Energy:   -56.55558718438283

   => Energetics <=

    Nuclear Repulsion Energy =             11.9523874081108552
    One-Electron Energy =                 -99.6423176776142014
    Two-Electron Energy =                  36.6530298548504021
    DFT Exchange-Correlation Energy =      -5.5605144310083769
    Empirical Dispersion Energy =           0.0000000000000000
    VV10 Nonlocal Energy =                  0.0418276612784948
    Total Energy =                        -56.5555871843828299

Computation Completed


Properties will be evaluated at   0.000000,   0.000000,   0.000000 [a0]

Properties computed using the SCF density matrix

  Nuclear Dipole Moment: [e a0]
     X:     0.5791      Y:     0.6921      Z:     0.0000

  Electronic Dipole Moment: [e a0]
     X:    -0.1846      Y:    -0.2186      Z:     0.0000

  Dipole Moment: [e a0]
     X:     0.3946      Y:     0.4734      Z:     0.0000     Total:     0.6163

  Dipole Moment: [D]
     X:     1.0029      Y:     1.2033      Z:     0.0000     Total:     1.5664


*** tstop() called on bp1-compute00065.data.bp.acrc.priv at Tue Apr 27 16:51:05 2021
Module time:
	user time   =     146.07 seconds =       2.43 minutes
	system time =       5.64 seconds =       0.09 minutes
	total time  =          7 seconds =       0.12 minutes
Total time:
	user time   =     288.10 seconds =       4.80 minutes
	system time =      15.85 seconds =       0.26 minutes
	total time  =         14 seconds =       0.23 minutes

  //>>>>>>>>>>>>>>>>>>>>>>>>>>>>>>>>>>>//
  //    Loading displacement 3 of 9    //
  //<<<<<<<<<<<<<<<<<<<<<<<<<<<<<<<<<<<//

*** tstart() called on bp1-compute00065.data.bp.acrc.priv
*** at Tue Apr 27 16:51:05 2021

   => Loading Basis Set <=

    Name: AUG-CC-PV(Q+D)Z
    Role: ORBITAL
    Keyword: BASIS
    atoms 1   entry N          line   379 file /work/zw18965/.conda/envs/p4env/share/psi4/basis/aug-cc-pv_qpd_z.gbs 
    atoms 2-4 entry H          line    56 file /work/zw18965/.conda/envs/p4env/share/psi4/basis/aug-cc-pv_qpd_z.gbs 


         ---------------------------------------------------------
                                   SCF
               by Justin Turney, Rob Parrish, Andy Simmonett
                          and Daniel G. A. Smith
                              RKS Reference
                       24 Threads, 137329 MiB Core
         ---------------------------------------------------------

  ==> Geometry <==

    Molecular point group: cs
    Full point group: Cs

    Geometry (in Angstrom), charge = 0, multiplicity = 1:

       Center              X                  Y                   Z               Mass       
    ------------   -----------------  -----------------  -----------------  -----------------
         N           -0.043894779207    -0.053049365408     0.000000000000    14.003074004430
         H            0.562312050870    -0.053528754755     0.809494643400     1.007825032230
         H            0.562312050870    -0.053528754755    -0.809494643400     1.007825032230
         H           -0.514734664601     0.844143973867     0.000000000000     1.007825032230

  Running in cs symmetry.

  Rotational constants: A =      9.94741  B =      9.94737  C =      6.38149 [cm^-1]
  Rotational constants: A = 298215.95345  B = 298214.64224  C = 191312.29578 [MHz]
  Nuclear repulsion =   11.961977288575349

  Charge       = 0
  Multiplicity = 1
  Electrons    = 10
  Nalpha       = 5
  Nbeta        = 5

  ==> Algorithm <==

  SCF Algorithm Type is DF.
  DIIS enabled.
  MOM disabled.
  Fractional occupation disabled.
  Guess Type is SAD.
  Energy threshold   = 1.00e-08
  Density threshold  = 1.00e-08
  Integral threshold = 0.00e+00

  ==> Primary Basis <==

  Basis Set: AUG-CC-PV(Q+D)Z
    Blend: AUG-CC-PV(Q+D)Z
    Number of shells: 62
    Number of basis function: 218
    Number of Cartesian functions: 270
    Spherical Harmonics?: true
    Max angular momentum: 4

  ==> DFT Potential <==

   => Composite Functional: WB97M-V <= 

    wB97M-V Hyb-GGA Exchange-Correlation Functional

    N. Mardirossian and M. Head-Gordon, J. Chem. Phys. 144, 214110 (2016)

    Deriv               =              1
    GGA                 =           TRUE
    Meta                =           TRUE

    Exchange Hybrid     =           TRUE
    MP2 Hybrid          =          FALSE

   => Exchange-Correlation Functionals <=

    1.0000   wB97M-V exchange-correlation functional

   => Exact (HF) Exchange <=

    0.8500            HF,LR [omega = 0.3000]
    0.1500               HF 

   => VV10 Non-Local Parameters <=

    VV10 B              =     6.0000E+00
    VV10 C              =     1.0000E-02

   => Molecular Quadrature <=

    Radial Scheme          =       TREUTLER
    Pruning Scheme         =           FLAT
    Nuclear Scheme         =       TREUTLER

    BS radius alpha        =              1
    Pruning alpha          =              1
    Radial Points          =             75
    Spherical Points       =            302
    Total Points           =          90600
    Total Blocks           =            746
    Max Points             =            256
    Max Functions          =            218

   => Loading Basis Set <=

    Name: (AUG-CC-PV(Q+D)Z AUX)
    Role: JKFIT
    Keyword: DF_BASIS_SCF
    atoms 1   entry N          line   248 file /work/zw18965/.conda/envs/p4env/share/psi4/basis/aug-cc-pvqz-jkfit.gbs 
    atoms 2-4 entry H          line    70 file /work/zw18965/.conda/envs/p4env/share/psi4/basis/aug-cc-pvqz-jkfit.gbs 

  ==> Pre-Iterations <==

   -------------------------------------------------------
    Irrep   Nso     Nmo     Nalpha   Nbeta   Ndocc  Nsocc
   -------------------------------------------------------
     A'       126     126       0       0       0       0
     A"        92      92       0       0       0       0
   -------------------------------------------------------
    Total     218     218       5       5       5       0
   -------------------------------------------------------

  ==> Integral Setup <==

  ==> DiskDFJK: Density-Fitted J/K Matrices <==

    J tasked:                  Yes
    K tasked:                  Yes
    wK tasked:                 Yes
    Omega:               3.000E-01
    OpenMP threads:             24
    Integrals threads:          24
    Memory [MiB]:           101631
    Algorithm:                Core
    Integral Cache:           NONE
    Schwarz Cutoff:          1E-12
    Fitting Condition:       1E-10

   => Auxiliary Basis Set <=

  Basis Set: (AUG-CC-PV(Q+D)Z AUX)
    Blend: AUG-CC-PVQZ-JKFIT
    Number of shells: 88
    Number of basis function: 370
    Number of Cartesian functions: 501
    Spherical Harmonics?: true
    Max angular momentum: 5

  Cached 100.0% of DFT collocation blocks in 1.333 [GiB].

  Minimum eigenvalue in the overlap matrix is 5.1621370751E-05.
  Using Symmetric Orthogonalization.

  SCF Guess: Superposition of Atomic Densities via on-the-fly atomic UHF.

  ==> Iterations <==

                           Total Energy        Delta E     RMS |[F,P]|

   @DF-RKS iter SAD:   -56.04701636074226   -5.60470e+01   0.00000e+00 
   @DF-RKS iter   1:   -56.37638936650571   -3.29373e-01   4.25602e-03 DIIS
   @DF-RKS iter   2:   -56.38769115623929   -1.13018e-02   4.08659e-03 DIIS
   @DF-RKS iter   3:   -56.55519773598096   -1.67507e-01   1.39311e-04 DIIS
   @DF-RKS iter   4:   -56.55558033678938   -3.82601e-04   3.02033e-05 DIIS
   @DF-RKS iter   5:   -56.55559911651763   -1.87797e-05   4.10214e-06 DIIS
   @DF-RKS iter   6:   -56.55559985306570   -7.36548e-07   1.38806e-06 DIIS
   @DF-RKS iter   7:   -56.55559992270054   -6.96348e-08   3.28394e-07 DIIS
   @DF-RKS iter   8:   -56.55559993056620   -7.86567e-09   7.40113e-08 DIIS
   @DF-RKS iter   9:   -56.55559993093943   -3.73227e-10   1.04235e-08 DIIS
   @DF-RKS iter  10:   -56.55559993094525   -5.81935e-12   9.50314e-10 DIIS
  Energy and wave function converged.


  ==> Post-Iterations <==

    Orbital Energies [Eh]
    ---------------------

    Doubly Occupied:                                                      

       1Ap   -14.480565     2Ap    -0.976969     1App   -0.566353  
       3Ap    -0.565606     4Ap    -0.376871  

    Virtual:                                                              

       5Ap     0.009646     2App    0.034424     6Ap     0.034436  
       7Ap     0.077025     8Ap     0.110255     9Ap     0.119671  
       3App    0.119702    10Ap     0.154706     4App    0.154794  
       5App    0.160135    11Ap     0.160193    12Ap     0.180301  
       6App    0.256343    13Ap     0.263211     7App    0.269132  
      14Ap     0.269133    15Ap     0.312377    16Ap     0.334509  
       8App    0.335001     9App    0.354493    17Ap     0.354570  
      18Ap     0.386037    10App    0.431011    19Ap     0.431163  
      20Ap     0.501588    11App    0.501851    21Ap     0.505603  
      22Ap     0.542575    23Ap     0.629429    24Ap     0.631368  
      12App    0.631499    13App    0.655826    14App    0.667357  
      25Ap     0.667401    15App    0.702553    26Ap     0.708533  
      16App    0.708977    27Ap     0.714741    28Ap     0.771552  
      17App    0.771727    29Ap     0.788488    18App    0.798642  
      30Ap     0.798794    19App    0.810409    31Ap     0.810710  
      32Ap     0.895421    20App    0.927660    33Ap     0.928136  
      34Ap     1.047000    35Ap     1.130032    21App    1.130119  
      36Ap     1.247832    37Ap     1.255088    22App    1.255253  
      38Ap     1.256147    23App    1.274990    24App    1.343642  
      39Ap     1.343845    40Ap     1.415661    25App    1.416744  
      26App    1.425226    41Ap     1.456140    42Ap     1.482789  
      27App    1.554387    43Ap     1.554603    44Ap     1.590712  
      28App    1.591044    45Ap     1.617977    29App    1.644179  
      46Ap     1.644465    47Ap     1.709010    30App    1.722671  
      48Ap     1.722694    31App    1.751467    32App    1.785903  
      49Ap     1.786401    50Ap     1.866660    33App    1.866823  
      34App    1.909936    51Ap     1.910146    52Ap     1.923892  
      35App    1.958788    53Ap     1.981895    54Ap     1.994557  
      36App    1.994620    55Ap     2.040768    56Ap     2.139864  
      37App    2.140376    38App    2.166408    39App    2.239229  
      57Ap     2.239274    58Ap     2.583535    40App    2.719911  
      59Ap     2.720376    60Ap     2.731857    61Ap     2.741383  
      41App    2.742258    42App    2.750980    62Ap     2.815657  
      43App    2.816386    63Ap     2.848103    44App    2.848155  
      64Ap     2.873533    45App    2.932332    65Ap     2.942731  
      66Ap     3.014168    46App    3.014441    47App    3.061935  
      67Ap     3.062612    48App    3.188798    68Ap     3.189000  
      69Ap     3.260526    70Ap     3.358378    49App    3.358611  
      71Ap     3.384747    50App    3.531948    72Ap     3.693002  
      73Ap     3.707996    51App    3.708052    74Ap     3.919247  
      75Ap     3.931622    52App    3.932791    76Ap     3.965552  
      53App    3.967534    77Ap     4.006658    54App    4.014124  
      78Ap     4.049860    55App    4.152195    79Ap     4.152456  
      80Ap     4.448801    56App    4.448802    57App    4.687055  
      81Ap     4.687698    82Ap     4.797269    83Ap     4.909682  
      58App    4.911274    84Ap     5.059279    59App    5.060496  
      60App    5.183561    85Ap     5.328523    86Ap     6.566903  
      61App    6.567077    62App    6.645288    87Ap     6.667655  
      63App    6.667963    88Ap     6.752470    64App    7.045523  
      89Ap     7.058538    65App    7.059594    90Ap     7.095493  
      66App    7.095988    91Ap     7.254893    92Ap     7.373480  
      67App    7.376491    68App    7.393241    69App    7.516045  
      93Ap     7.517287    70App    7.633720    94Ap     7.634362  
      95Ap     7.667918    96Ap     7.871968    97Ap     7.970607  
      71App    7.973545    98Ap     7.976089    99Ap     8.172626  
      72App    8.278376   100Ap     8.279444    73App    8.326239  
     101Ap     8.327231   102Ap     8.522537    74App    8.575250  
     103Ap     8.575670   104Ap     8.586738    75App    8.646216  
     105Ap     8.652196    76App    8.652965    77App    8.674771  
     106Ap     8.800519   107Ap     8.908259    78App    8.910248  
     108Ap     9.044378    79App    9.044809    80App    9.133838  
     109Ap     9.136340   110Ap     9.198763    81App    9.401921  
     111Ap     9.441989   112Ap     9.523808    82App    9.526948  
      83App    9.694543   113Ap     9.694794   114Ap     9.709783  
     115Ap     9.891879    84App    9.895047   116Ap    10.137519  
      85App   10.138878   117Ap    10.343159    86App   10.474878  
     118Ap    10.522682    87App   10.523802   119Ap    11.215003  
      88App   11.773562   120Ap    11.778140   121Ap    11.822666  
     122Ap    11.925748    89App   11.935391    90App   12.598666  
     123Ap    12.660039    91App   12.666508   124Ap    14.145629  
     125Ap    14.459453    92App   14.469656   126Ap    35.748824  

    Final Occupation by Irrep:
             Ap   App 
    DOCC [     4,    1 ]

  @DF-RKS Final Energy:   -56.55559993094525

   => Energetics <=

    Nuclear Repulsion Energy =             11.9619772885753495
    One-Electron Energy =                 -99.6601901302090312
    Two-Electron Energy =                  36.6621396223208222
    DFT Exchange-Correlation Energy =      -5.5613555858084869
    Empirical Dispersion Energy =           0.0000000000000000
    VV10 Nonlocal Energy =                  0.0418288741760869
    Total Energy =                        -56.5555999309452488

Computation Completed


Properties will be evaluated at   0.000000,   0.000000,   0.000000 [a0]

Properties computed using the SCF density matrix

  Nuclear Dipole Moment: [e a0]
     X:     0.5719      Y:     0.6912      Z:     0.0000

  Electronic Dipole Moment: [e a0]
     X:    -0.1795      Y:    -0.2189      Z:     0.0000

  Dipole Moment: [e a0]
     X:     0.3924      Y:     0.4723      Z:     0.0000     Total:     0.6140

  Dipole Moment: [D]
     X:     0.9974      Y:     1.2004      Z:     0.0000     Total:     1.5607


*** tstop() called on bp1-compute00065.data.bp.acrc.priv at Tue Apr 27 16:51:11 2021
Module time:
	user time   =     136.73 seconds =       2.28 minutes
	system time =       6.38 seconds =       0.11 minutes
	total time  =          6 seconds =       0.10 minutes
Total time:
	user time   =     424.99 seconds =       7.08 minutes
	system time =      22.24 seconds =       0.37 minutes
	total time  =         20 seconds =       0.33 minutes

  //>>>>>>>>>>>>>>>>>>>>>>>>>>>>>>>>>>>//
  //    Loading displacement 4 of 9    //
  //<<<<<<<<<<<<<<<<<<<<<<<<<<<<<<<<<<<//

*** tstart() called on bp1-compute00065.data.bp.acrc.priv
*** at Tue Apr 27 16:51:11 2021

   => Loading Basis Set <=

    Name: AUG-CC-PV(Q+D)Z
    Role: ORBITAL
    Keyword: BASIS
    atoms 1   entry N          line   379 file /work/zw18965/.conda/envs/p4env/share/psi4/basis/aug-cc-pv_qpd_z.gbs 
    atoms 2-4 entry H          line    56 file /work/zw18965/.conda/envs/p4env/share/psi4/basis/aug-cc-pv_qpd_z.gbs 


         ---------------------------------------------------------
                                   SCF
               by Justin Turney, Rob Parrish, Andy Simmonett
                          and Daniel G. A. Smith
                              RKS Reference
                       24 Threads, 137329 MiB Core
         ---------------------------------------------------------

  ==> Geometry <==

    Molecular point group: cs
    Full point group: Cs

    Geometry (in Angstrom), charge = 0, multiplicity = 1:

       Center              X                  Y                   Z               Mass       
    ------------   -----------------  -----------------  -----------------  -----------------
         N           -0.044172539916    -0.053366175490     0.000000000000    14.003074004430
         H            0.563611878713    -0.052045369706     0.809494643400     1.007825032230
         H            0.563611878713    -0.052045369706    -0.809494643400     1.007825032230
         H           -0.513475015702     0.845579074011     0.000000000000     1.007825032230

  Running in cs symmetry.

  Rotational constants: A =      9.92055  B =      9.92052  C =      6.38149 [cm^-1]
  Rotational constants: A = 297410.72974  B = 297409.56176  C = 191312.35212 [MHz]
  Nuclear repulsion =   11.952097444212807

  Charge       = 0
  Multiplicity = 1
  Electrons    = 10
  Nalpha       = 5
  Nbeta        = 5

  ==> Algorithm <==

  SCF Algorithm Type is DF.
  DIIS enabled.
  MOM disabled.
  Fractional occupation disabled.
  Guess Type is SAD.
  Energy threshold   = 1.00e-08
  Density threshold  = 1.00e-08
  Integral threshold = 0.00e+00

  ==> Primary Basis <==

  Basis Set: AUG-CC-PV(Q+D)Z
    Blend: AUG-CC-PV(Q+D)Z
    Number of shells: 62
    Number of basis function: 218
    Number of Cartesian functions: 270
    Spherical Harmonics?: true
    Max angular momentum: 4

  ==> DFT Potential <==

   => Composite Functional: WB97M-V <= 

    wB97M-V Hyb-GGA Exchange-Correlation Functional

    N. Mardirossian and M. Head-Gordon, J. Chem. Phys. 144, 214110 (2016)

    Deriv               =              1
    GGA                 =           TRUE
    Meta                =           TRUE

    Exchange Hybrid     =           TRUE
    MP2 Hybrid          =          FALSE

   => Exchange-Correlation Functionals <=

    1.0000   wB97M-V exchange-correlation functional

   => Exact (HF) Exchange <=

    0.8500            HF,LR [omega = 0.3000]
    0.1500               HF 

   => VV10 Non-Local Parameters <=

    VV10 B              =     6.0000E+00
    VV10 C              =     1.0000E-02

   => Molecular Quadrature <=

    Radial Scheme          =       TREUTLER
    Pruning Scheme         =           FLAT
    Nuclear Scheme         =       TREUTLER

    BS radius alpha        =              1
    Pruning alpha          =              1
    Radial Points          =             75
    Spherical Points       =            302
    Total Points           =          90600
    Total Blocks           =            745
    Max Points             =            256
    Max Functions          =            218

   => Loading Basis Set <=

    Name: (AUG-CC-PV(Q+D)Z AUX)
    Role: JKFIT
    Keyword: DF_BASIS_SCF
    atoms 1   entry N          line   248 file /work/zw18965/.conda/envs/p4env/share/psi4/basis/aug-cc-pvqz-jkfit.gbs 
    atoms 2-4 entry H          line    70 file /work/zw18965/.conda/envs/p4env/share/psi4/basis/aug-cc-pvqz-jkfit.gbs 

  ==> Pre-Iterations <==

   -------------------------------------------------------
    Irrep   Nso     Nmo     Nalpha   Nbeta   Ndocc  Nsocc
   -------------------------------------------------------
     A'       126     126       0       0       0       0
     A"        92      92       0       0       0       0
   -------------------------------------------------------
    Total     218     218       5       5       5       0
   -------------------------------------------------------

  ==> Integral Setup <==

  ==> DiskDFJK: Density-Fitted J/K Matrices <==

    J tasked:                  Yes
    K tasked:                  Yes
    wK tasked:                 Yes
    Omega:               3.000E-01
    OpenMP threads:             24
    Integrals threads:          24
    Memory [MiB]:           101631
    Algorithm:                Core
    Integral Cache:           NONE
    Schwarz Cutoff:          1E-12
    Fitting Condition:       1E-10

   => Auxiliary Basis Set <=

  Basis Set: (AUG-CC-PV(Q+D)Z AUX)
    Blend: AUG-CC-PVQZ-JKFIT
    Number of shells: 88
    Number of basis function: 370
    Number of Cartesian functions: 501
    Spherical Harmonics?: true
    Max angular momentum: 5

  Cached 100.0% of DFT collocation blocks in 1.334 [GiB].

  Minimum eigenvalue in the overlap matrix is 5.1680507192E-05.
  Using Symmetric Orthogonalization.

  SCF Guess: Superposition of Atomic Densities via on-the-fly atomic UHF.

  ==> Iterations <==

                           Total Energy        Delta E     RMS |[F,P]|

   @DF-RKS iter SAD:   -56.04637493175800   -5.60464e+01   0.00000e+00 
   @DF-RKS iter   1:   -56.37649868712426   -3.30124e-01   4.25281e-03 DIIS
   @DF-RKS iter   2:   -56.38754250471862   -1.10438e-02   4.08710e-03 DIIS
   @DF-RKS iter   3:   -56.55518460162659   -1.67642e-01   1.39203e-04 DIIS
   @DF-RKS iter   4:   -56.55556732584633   -3.82724e-04   3.02577e-05 DIIS
   @DF-RKS iter   5:   -56.55558617108029   -1.88452e-05   4.12382e-06 DIIS
   @DF-RKS iter   6:   -56.55558691189220   -7.40812e-07   1.39371e-06 DIIS
   @DF-RKS iter   7:   -56.55558698212955   -7.02374e-08   3.29117e-07 DIIS
   @DF-RKS iter   8:   -56.55558699000943   -7.87988e-09   7.39772e-08 DIIS
   @DF-RKS iter   9:   -56.55558699038257   -3.73142e-10   1.04479e-08 DIIS
   @DF-RKS iter  10:   -56.55558699038836   -5.78382e-12   9.50964e-10 DIIS
  Energy and wave function converged.


  ==> Post-Iterations <==

    Orbital Energies [Eh]
    ---------------------

    Doubly Occupied:                                                      

       1Ap   -14.480914     2Ap    -0.976805     1App   -0.565862  
       3Ap    -0.565159     4Ap    -0.377192  

    Virtual:                                                              

       5Ap     0.009612     2App    0.034425     6Ap     0.034436  
       7Ap     0.077028     8Ap     0.110206     9Ap     0.119670  
       3App    0.119700    10Ap     0.154647     4App    0.154730  
       5App    0.160090    11Ap     0.160145    12Ap     0.180214  
       6App    0.256343    13Ap     0.263144     7App    0.269119  
      14Ap     0.269120    15Ap     0.312230    16Ap     0.334204  
       8App    0.334667     9App    0.354578    17Ap     0.354651  
      18Ap     0.386258    10App    0.430722    19Ap     0.430867  
      20Ap     0.501439    11App    0.501688    21Ap     0.505357  
      22Ap     0.542646    23Ap     0.629040    24Ap     0.631189  
      12App    0.631314    13App    0.655838    14App    0.667381  
      25Ap     0.667422    15App    0.702570    26Ap     0.708301  
      16App    0.708716    27Ap     0.714539    28Ap     0.771598  
      17App    0.771764    29Ap     0.788483    18App    0.798611  
      30Ap     0.798753    19App    0.810533    31Ap     0.810816  
      32Ap     0.895735    20App    0.927190    33Ap     0.927640  
      34Ap     1.047082    35Ap     1.129757    21App    1.129839  
      36Ap     1.247281    37Ap     1.254904    22App    1.255061  
      38Ap     1.255891    23App    1.274857    24App    1.343696  
      39Ap     1.343886    40Ap     1.415044    25App    1.416064  
      26App    1.424663    41Ap     1.455879    42Ap     1.482610  
      27App    1.554275    43Ap     1.554479    44Ap     1.591012  
      28App    1.591325    45Ap     1.618015    29App    1.643699  
      46Ap     1.643962    47Ap     1.708827    30App    1.722592  
      48Ap     1.722618    31App    1.751953    32App    1.786003  
      49Ap     1.786474    50Ap     1.866116    33App    1.866261  
      34App    1.910386    51Ap     1.910575    52Ap     1.924487  
      35App    1.958802    53Ap     1.981625    54Ap     1.994754  
      36App    1.994812    55Ap     2.039572    56Ap     2.138384  
      37App    2.138870    38App    2.166135    39App    2.237370  
      57Ap     2.237416    58Ap     2.583681    40App    2.721084  
      59Ap     2.721515    60Ap     2.730927    61Ap     2.740642  
      41App    2.741468    42App    2.750803    62Ap     2.816032  
      43App    2.816717    63Ap     2.846135    44App    2.846176  
      64Ap     2.873963    45App    2.931085    65Ap     2.942585  
      66Ap     3.015272    46App    3.015532    47App    3.061331  
      67Ap     3.061967    48App    3.187040    68Ap     3.187230  
      69Ap     3.260170    70Ap     3.357888    49App    3.358103  
      71Ap     3.384462    50App    3.531978    72Ap     3.692370  
      73Ap     3.706833    51App    3.706886    74Ap     3.917378  
      75Ap     3.929733    52App    3.930830    76Ap     3.965043  
      53App    3.966907    77Ap     4.004986    54App    4.012824  
      78Ap     4.049244    55App    4.149140    79Ap     4.149386  
      56App    4.447780    80Ap     4.447787    57App    4.684769  
      81Ap     4.685379    82Ap     4.794611    83Ap     4.909170  
      58App    4.910681    84Ap     5.057852    59App    5.058997  
      60App    5.180278    85Ap     5.326238    86Ap     6.565824  
      61App    6.565987    62App    6.645591    87Ap     6.666364  
      63App    6.666635    88Ap     6.749764    64App    7.043417  
      89Ap     7.055373    65App    7.056320    90Ap     7.092774  
      66App    7.093276    91Ap     7.256213    92Ap     7.371104  
      67App    7.373963    68App    7.394493    69App    7.512889  
      93Ap     7.514076    70App    7.630543    94Ap     7.631174  
      95Ap     7.667364    96Ap     7.871179    97Ap     7.968283  
      71App    7.971035    98Ap     7.972897    99Ap     8.169362  
      72App    8.275225   100Ap     8.276243    73App    8.323038  
     101Ap     8.323950   102Ap     8.522175    74App    8.576420  
     103Ap     8.576739   104Ap     8.586641    75App    8.642452  
     105Ap     8.654786    76App    8.655294    77App    8.676486  
     106Ap     8.804789   107Ap     8.907230    78App    8.909094  
     108Ap     9.043033    79App    9.043423    80App    9.136057  
     109Ap     9.138375   110Ap     9.196682    81App    9.401511  
     111Ap     9.445339   112Ap     9.519183    82App    9.522161  
      83App    9.694990   113Ap     9.695145   114Ap     9.708221  
     115Ap     9.890096    84App    9.893049   116Ap    10.134302  
      85App   10.135555   117Ap    10.334915    86App   10.471053  
     118Ap    10.514846    87App   10.515915   119Ap    11.208283  
      88App   11.766564   120Ap    11.770699   121Ap    11.816193  
     122Ap    11.919707    89App   11.928701    90App   12.586163  
     123Ap    12.654467    91App   12.660609   124Ap    14.140585  
     125Ap    14.452162    92App   14.461743   126Ap    35.737247  

    Final Occupation by Irrep:
             Ap   App 
    DOCC [     4,    1 ]

  @DF-RKS Final Energy:   -56.55558699038836

   => Energetics <=

    Nuclear Repulsion Energy =             11.9520974442128072
    One-Electron Energy =                 -99.6417777372721076
    Two-Electron Energy =                  36.6527547044429269
    DFT Exchange-Correlation Energy =      -5.5604890117744254
    Empirical Dispersion Energy =           0.0000000000000000
    VV10 Nonlocal Energy =                  0.0418276100024303
    Total Energy =                        -56.5555869903883632

Computation Completed


Properties will be evaluated at   0.000000,   0.000000,   0.000000 [a0]

Properties computed using the SCF density matrix

  Nuclear Dipole Moment: [e a0]
     X:     0.5755      Y:     0.6953      Z:     0.0000

  Electronic Dipole Moment: [e a0]
     X:    -0.1816      Y:    -0.2212      Z:     0.0000

  Dipole Moment: [e a0]
     X:     0.3939      Y:     0.4741      Z:     0.0000     Total:     0.6164

  Dipole Moment: [D]
     X:     1.0012      Y:     1.2049      Z:     0.0000     Total:     1.5666


*** tstop() called on bp1-compute00065.data.bp.acrc.priv at Tue Apr 27 16:51:18 2021
Module time:
	user time   =     142.07 seconds =       2.37 minutes
	system time =       4.27 seconds =       0.07 minutes
	total time  =          7 seconds =       0.12 minutes
Total time:
	user time   =     567.22 seconds =       9.45 minutes
	system time =      26.52 seconds =       0.44 minutes
	total time  =         27 seconds =       0.45 minutes

  //>>>>>>>>>>>>>>>>>>>>>>>>>>>>>>>>>>>//
  //    Loading displacement 5 of 9    //
  //<<<<<<<<<<<<<<<<<<<<<<<<<<<<<<<<<<<//

*** tstart() called on bp1-compute00065.data.bp.acrc.priv
*** at Tue Apr 27 16:51:18 2021

   => Loading Basis Set <=

    Name: AUG-CC-PV(Q+D)Z
    Role: ORBITAL
    Keyword: BASIS
    atoms 1   entry N          line   379 file /work/zw18965/.conda/envs/p4env/share/psi4/basis/aug-cc-pv_qpd_z.gbs 
    atoms 2-4 entry H          line    56 file /work/zw18965/.conda/envs/p4env/share/psi4/basis/aug-cc-pv_qpd_z.gbs 


         ---------------------------------------------------------
                                   SCF
               by Justin Turney, Rob Parrish, Andy Simmonett
                          and Daniel G. A. Smith
                              RKS Reference
                       24 Threads, 137329 MiB Core
         ---------------------------------------------------------

  ==> Geometry <==

    Molecular point group: cs
    Full point group: Cs

    Geometry (in Angstrom), charge = 0, multiplicity = 1:

       Center              X                  Y                   Z               Mass       
    ------------   -----------------  -----------------  -----------------  -----------------
         N           -0.044172539916    -0.052802211941     0.000000000000    14.003074004430
         H            0.564056499128    -0.054123017724     0.809494643400     1.007825032230
         H            0.564056499128    -0.054123017724    -0.809494643400     1.007825032230
         H           -0.514364256532     0.841898462958     0.000000000000     1.007825032230

  Running in cs symmetry.

  Rotational constants: A =      9.94820  B =      9.94816  C =      6.38149 [cm^-1]
  Rotational constants: A = 298239.41596  B = 298238.24957  C = 191312.35545 [MHz]
  Nuclear repulsion =   11.962265102565624

  Charge       = 0
  Multiplicity = 1
  Electrons    = 10
  Nalpha       = 5
  Nbeta        = 5

  ==> Algorithm <==

  SCF Algorithm Type is DF.
  DIIS enabled.
  MOM disabled.
  Fractional occupation disabled.
  Guess Type is SAD.
  Energy threshold   = 1.00e-08
  Density threshold  = 1.00e-08
  Integral threshold = 0.00e+00

  ==> Primary Basis <==

  Basis Set: AUG-CC-PV(Q+D)Z
    Blend: AUG-CC-PV(Q+D)Z
    Number of shells: 62
    Number of basis function: 218
    Number of Cartesian functions: 270
    Spherical Harmonics?: true
    Max angular momentum: 4

  ==> DFT Potential <==

   => Composite Functional: WB97M-V <= 

    wB97M-V Hyb-GGA Exchange-Correlation Functional

    N. Mardirossian and M. Head-Gordon, J. Chem. Phys. 144, 214110 (2016)

    Deriv               =              1
    GGA                 =           TRUE
    Meta                =           TRUE

    Exchange Hybrid     =           TRUE
    MP2 Hybrid          =          FALSE

   => Exchange-Correlation Functionals <=

    1.0000   wB97M-V exchange-correlation functional

   => Exact (HF) Exchange <=

    0.8500            HF,LR [omega = 0.3000]
    0.1500               HF 

   => VV10 Non-Local Parameters <=

    VV10 B              =     6.0000E+00
    VV10 C              =     1.0000E-02

   => Molecular Quadrature <=

    Radial Scheme          =       TREUTLER
    Pruning Scheme         =           FLAT
    Nuclear Scheme         =       TREUTLER

    BS radius alpha        =              1
    Pruning alpha          =              1
    Radial Points          =             75
    Spherical Points       =            302
    Total Points           =          90600
    Total Blocks           =            749
    Max Points             =            256
    Max Functions          =            218

   => Loading Basis Set <=

    Name: (AUG-CC-PV(Q+D)Z AUX)
    Role: JKFIT
    Keyword: DF_BASIS_SCF
    atoms 1   entry N          line   248 file /work/zw18965/.conda/envs/p4env/share/psi4/basis/aug-cc-pvqz-jkfit.gbs 
    atoms 2-4 entry H          line    70 file /work/zw18965/.conda/envs/p4env/share/psi4/basis/aug-cc-pvqz-jkfit.gbs 

  ==> Pre-Iterations <==

   -------------------------------------------------------
    Irrep   Nso     Nmo     Nalpha   Nbeta   Ndocc  Nsocc
   -------------------------------------------------------
     A'       126     126       0       0       0       0
     A"        92      92       0       0       0       0
   -------------------------------------------------------
    Total     218     218       5       5       5       0
   -------------------------------------------------------

  ==> Integral Setup <==

  ==> DiskDFJK: Density-Fitted J/K Matrices <==

    J tasked:                  Yes
    K tasked:                  Yes
    wK tasked:                 Yes
    Omega:               3.000E-01
    OpenMP threads:             24
    Integrals threads:          24
    Memory [MiB]:           101631
    Algorithm:                Core
    Integral Cache:           NONE
    Schwarz Cutoff:          1E-12
    Fitting Condition:       1E-10

   => Auxiliary Basis Set <=

  Basis Set: (AUG-CC-PV(Q+D)Z AUX)
    Blend: AUG-CC-PVQZ-JKFIT
    Number of shells: 88
    Number of basis function: 370
    Number of Cartesian functions: 501
    Spherical Harmonics?: true
    Max angular momentum: 5

  Cached 100.0% of DFT collocation blocks in 1.333 [GiB].

  Minimum eigenvalue in the overlap matrix is 5.1619685294E-05.
  Using Symmetric Orthogonalization.

  SCF Guess: Superposition of Atomic Densities via on-the-fly atomic UHF.

  ==> Iterations <==

                           Total Energy        Delta E     RMS |[F,P]|

   @DF-RKS iter SAD:   -56.04703521800717   -5.60470e+01   0.00000e+00 
   @DF-RKS iter   1:   -56.37638646112092   -3.29351e-01   4.25612e-03 DIIS
   @DF-RKS iter   2:   -56.38769583233091   -1.13094e-02   4.08658e-03 DIIS
   @DF-RKS iter   3:   -56.55519827177883   -1.67502e-01   1.39314e-04 DIIS
   @DF-RKS iter   4:   -56.55558086827949   -3.82597e-04   3.02017e-05 DIIS
   @DF-RKS iter   5:   -56.55559964603008   -1.87778e-05   4.10150e-06 DIIS
   @DF-RKS iter   6:   -56.55560038245100   -7.36421e-07   1.38789e-06 DIIS
   @DF-RKS iter   7:   -56.55560045206774   -6.96167e-08   3.28371e-07 DIIS
   @DF-RKS iter   8:   -56.55560045993175   -7.86400e-09   7.40120e-08 DIIS
   @DF-RKS iter   9:   -56.55560046030511   -3.73362e-10   1.04223e-08 DIIS
   @DF-RKS iter  10:   -56.55560046031087   -5.76250e-12   9.48949e-10 DIIS
  Energy and wave function converged.


  ==> Post-Iterations <==

    Orbital Energies [Eh]
    ---------------------

    Doubly Occupied:                                                      

       1Ap   -14.480555     2Ap    -0.976974     3Ap    -0.566345  
       1App   -0.565641     4Ap    -0.376861  

    Virtual:                                                              

       5Ap     0.009647     6Ap     0.034425     2App    0.034436  
       7Ap     0.077025     8Ap     0.110256     3App    0.119672  
       9Ap     0.119701     4App    0.154710    10Ap     0.154793  
      11Ap     0.160137     5App    0.160193    12Ap     0.180304  
       6App    0.256343    13Ap     0.263213    14Ap     0.269132  
       7App    0.269134    15Ap     0.312381     8App    0.334531  
      16Ap     0.334998    17Ap     0.354492     9App    0.354566  
      18Ap     0.386030    19Ap     0.431023    10App    0.431168  
      11App    0.501600    20Ap     0.501848    21Ap     0.505611  
      22Ap     0.542572    23Ap     0.629441    12App    0.631382  
      24Ap     0.631496    13App    0.655825    25Ap     0.667354  
      14App    0.667403    15App    0.702552    16App    0.708561  
      26Ap     0.708964    27Ap     0.714746    17App    0.771557  
      28Ap     0.771720    29Ap     0.788489    30Ap     0.798645  
      18App    0.798793    31Ap     0.810415    19App    0.810697  
      32Ap     0.895412    33Ap     0.927688    20App    0.928136  
      34Ap     1.046997    21App    1.130045    35Ap     1.130123  
      36Ap     1.247847    22App    1.255108    37Ap     1.255244  
      38Ap     1.256154    23App    1.274994    39Ap     1.343647  
      24App    1.343837    25App    1.415712    40Ap     1.416732  
      26App    1.425241    41Ap     1.456147    42Ap     1.482794  
      43Ap     1.554387    27App    1.554610    28App    1.590715  
      44Ap     1.591023    45Ap     1.617976    46Ap     1.644198  
      29App    1.644474    47Ap     1.709015    48Ap     1.722675  
      30App    1.722694    31App    1.751453    49Ap     1.785912  
      32App    1.786386    33App    1.866685    50Ap     1.866832  
      51Ap     1.909928    34App    1.910128    52Ap     1.923875  
      35App    1.958788    53Ap     1.981903    36App    1.994559  
      54Ap     1.994606    55Ap     2.040803    37App    2.139923  
      56Ap     2.140405    38App    2.166416    57Ap     2.239281  
      39App    2.239330    58Ap     2.583530    59Ap     2.719884  
      40App    2.720336    60Ap     2.731883    41App    2.741428  
      61Ap     2.742258    42App    2.750985    43App    2.815675  
      62Ap     2.816348    44App    2.848160    63Ap     2.848213  
      64Ap     2.873521    45App    2.932368    65Ap     2.942735  
      46App    3.014144    66Ap     3.014402    67Ap     3.061964  
      47App    3.062619    68Ap     3.188853    48App    3.189049  
      69Ap     3.260534    49App    3.358413    70Ap     3.358606  
      71Ap     3.384755    50App    3.531947    72Ap     3.693021  
      51App    3.708031    73Ap     3.708086    74Ap     3.919301  
      52App    3.931719    75Ap     3.932804    53App    3.965628  
      76Ap     3.967490    77Ap     4.006706    54App    4.014161  
      78Ap     4.049882    79Ap     4.152288    55App    4.152542  
      56App    4.448826    80Ap     4.448835    81Ap     4.687136  
      57App    4.687752    82Ap     4.797347    58App    4.909740  
      83Ap     4.911246    59App    5.059346    84Ap     5.060513  
      60App    5.183655    85Ap     5.328589    61App    6.566944  
      86Ap     6.567101    62App    6.645280    63App    6.667702  
      87Ap     6.667993    88Ap     6.752549    64App    7.045587  
      65App    7.058668    89Ap     7.059653    66App    7.095618  
      90Ap     7.096021    91Ap     7.254856    67App    7.373608  
      92Ap     7.376520    68App    7.393192    93Ap     7.516161  
      69App    7.517356    94Ap     7.633761    70App    7.634516  
      95Ap     7.667922    96Ap     7.872002    71App    7.970817  
      97Ap     7.973370    98Ap     7.976280    99Ap     8.172722  
     100Ap     8.278530    72App    8.279476   101Ap     8.326354  
      73App    8.327304   102Ap     8.522548   103Ap     8.575190  
      74App    8.575669   104Ap     8.586736    75App    8.646319  
      76App    8.652354   105Ap     8.652686    77App    8.674703  
     106Ap     8.800402    78App    8.908259   107Ap     8.910302  
      79App    9.044432   108Ap     9.044837   109Ap     9.133831  
      80App    9.136220   110Ap     9.198823    81App    9.401933  
     111Ap     9.441891    82App    9.524028   112Ap     9.527001  
     113Ap     9.693899    83App    9.695524   114Ap     9.709719  
      84App    9.892032   115Ap     9.895007    85App   10.137640  
     116Ap    10.138951   117Ap    10.343398    86App   10.474988  
      87App   10.523013   118Ap    10.523928   119Ap    11.215196  
     120Ap    11.773836    88App   11.778360   121Ap    11.822857  
      89App   11.925812   122Ap    11.935624    90App   12.599024  
      91App   12.660394   123Ap    12.666488   124Ap    14.145790  
      92App   14.459875   125Ap    14.469668   126Ap    35.749159  

    Final Occupation by Irrep:
             Ap   App 
    DOCC [     4,    1 ]

  @DF-RKS Final Energy:   -56.55560046031087

   => Energetics <=

    Nuclear Repulsion Energy =             11.9622651025656239
    One-Electron Energy =                 -99.6607268662177717
    Two-Electron Energy =                  36.6624131861324827
    DFT Exchange-Correlation Energy =      -5.5613808080392140
    Empirical Dispersion Energy =           0.0000000000000000
    VV10 Nonlocal Energy =                  0.0418289252480127
    Total Energy =                        -56.5556004603108704

Computation Completed


Properties will be evaluated at   0.000000,   0.000000,   0.000000 [a0]

Properties computed using the SCF density matrix

  Nuclear Dipole Moment: [e a0]
     X:     0.5755      Y:     0.6879      Z:     0.0000

  Electronic Dipole Moment: [e a0]
     X:    -0.1825      Y:    -0.2163      Z:     0.0000

  Dipole Moment: [e a0]
     X:     0.3930      Y:     0.4716      Z:     0.0000     Total:     0.6140

  Dipole Moment: [D]
     X:     0.9990      Y:     1.1988      Z:     0.0000     Total:     1.5605


*** tstop() called on bp1-compute00065.data.bp.acrc.priv at Tue Apr 27 16:51:24 2021
Module time:
	user time   =     137.61 seconds =       2.29 minutes
	system time =       4.07 seconds =       0.07 minutes
	total time  =          6 seconds =       0.10 minutes
Total time:
	user time   =     704.97 seconds =      11.75 minutes
	system time =      30.60 seconds =       0.51 minutes
	total time  =         33 seconds =       0.55 minutes

  //>>>>>>>>>>>>>>>>>>>>>>>>>>>>>>>>>>>//
  //    Loading displacement 6 of 9    //
  //<<<<<<<<<<<<<<<<<<<<<<<<<<<<<<<<<<<//

*** tstart() called on bp1-compute00065.data.bp.acrc.priv
*** at Tue Apr 27 16:51:24 2021

   => Loading Basis Set <=

    Name: AUG-CC-PV(Q+D)Z
    Role: ORBITAL
    Keyword: BASIS
    atoms 1   entry N          line   379 file /work/zw18965/.conda/envs/p4env/share/psi4/basis/aug-cc-pv_qpd_z.gbs 
    atoms 2-4 entry H          line    56 file /work/zw18965/.conda/envs/p4env/share/psi4/basis/aug-cc-pv_qpd_z.gbs 


         ---------------------------------------------------------
                                   SCF
               by Justin Turney, Rob Parrish, Andy Simmonett
                          and Daniel G. A. Smith
                              RKS Reference
                       24 Threads, 137329 MiB Core
         ---------------------------------------------------------

  ==> Geometry <==

    Molecular point group: cs
    Full point group: Cs

    Geometry (in Angstrom), charge = 0, multiplicity = 1:

       Center              X                  Y                   Z               Mass       
    ------------   -----------------  -----------------  -----------------  -----------------
         N           -0.044172539916    -0.053084193715     0.000000000000    14.003074004430
         H            0.563007108181    -0.052395961410     0.809494643400     1.007825032230
         H            0.563007108181    -0.052395961410    -0.809494643400     1.007825032230
         H           -0.512265474637     0.842362303875     0.000000000000     1.007825032230

  Running in cs symmetry.

  Rotational constants: A =      9.97005  B =      9.93436  C =      6.39622 [cm^-1]
  Rotational constants: A = 298894.55792  B = 297824.55789  C = 191753.78946 [MHz]
  Nuclear repulsion =   11.969093647182326

  Charge       = 0
  Multiplicity = 1
  Electrons    = 10
  Nalpha       = 5
  Nbeta        = 5

  ==> Algorithm <==

  SCF Algorithm Type is DF.
  DIIS enabled.
  MOM disabled.
  Fractional occupation disabled.
  Guess Type is SAD.
  Energy threshold   = 1.00e-08
  Density threshold  = 1.00e-08
  Integral threshold = 0.00e+00

  ==> Primary Basis <==

  Basis Set: AUG-CC-PV(Q+D)Z
    Blend: AUG-CC-PV(Q+D)Z
    Number of shells: 62
    Number of basis function: 218
    Number of Cartesian functions: 270
    Spherical Harmonics?: true
    Max angular momentum: 4

  ==> DFT Potential <==

   => Composite Functional: WB97M-V <= 

    wB97M-V Hyb-GGA Exchange-Correlation Functional

    N. Mardirossian and M. Head-Gordon, J. Chem. Phys. 144, 214110 (2016)

    Deriv               =              1
    GGA                 =           TRUE
    Meta                =           TRUE

    Exchange Hybrid     =           TRUE
    MP2 Hybrid          =          FALSE

   => Exchange-Correlation Functionals <=

    1.0000   wB97M-V exchange-correlation functional

   => Exact (HF) Exchange <=

    0.8500            HF,LR [omega = 0.3000]
    0.1500               HF 

   => VV10 Non-Local Parameters <=

    VV10 B              =     6.0000E+00
    VV10 C              =     1.0000E-02

   => Molecular Quadrature <=

    Radial Scheme          =       TREUTLER
    Pruning Scheme         =           FLAT
    Nuclear Scheme         =       TREUTLER

    BS radius alpha        =              1
    Pruning alpha          =              1
    Radial Points          =             75
    Spherical Points       =            302
    Total Points           =          90600
    Total Blocks           =            750
    Max Points             =            256
    Max Functions          =            218

   => Loading Basis Set <=

    Name: (AUG-CC-PV(Q+D)Z AUX)
    Role: JKFIT
    Keyword: DF_BASIS_SCF
    atoms 1   entry N          line   248 file /work/zw18965/.conda/envs/p4env/share/psi4/basis/aug-cc-pvqz-jkfit.gbs 
    atoms 2-4 entry H          line    70 file /work/zw18965/.conda/envs/p4env/share/psi4/basis/aug-cc-pvqz-jkfit.gbs 

  ==> Pre-Iterations <==

   -------------------------------------------------------
    Irrep   Nso     Nmo     Nalpha   Nbeta   Ndocc  Nsocc
   -------------------------------------------------------
     A'       126     126       0       0       0       0
     A"        92      92       0       0       0       0
   -------------------------------------------------------
    Total     218     218       5       5       5       0
   -------------------------------------------------------

  ==> Integral Setup <==

  ==> DiskDFJK: Density-Fitted J/K Matrices <==

    J tasked:                  Yes
    K tasked:                  Yes
    wK tasked:                 Yes
    Omega:               3.000E-01
    OpenMP threads:             24
    Integrals threads:          24
    Memory [MiB]:           101631
    Algorithm:                Core
    Integral Cache:           NONE
    Schwarz Cutoff:          1E-12
    Fitting Condition:       1E-10

   => Auxiliary Basis Set <=

  Basis Set: (AUG-CC-PV(Q+D)Z AUX)
    Blend: AUG-CC-PVQZ-JKFIT
    Number of shells: 88
    Number of basis function: 370
    Number of Cartesian functions: 501
    Spherical Harmonics?: true
    Max angular momentum: 5

  Cached 100.0% of DFT collocation blocks in 1.333 [GiB].

  Minimum eigenvalue in the overlap matrix is 5.1419775999E-05.
  Using Symmetric Orthogonalization.

  SCF Guess: Superposition of Atomic Densities via on-the-fly atomic UHF.

  ==> Iterations <==

                           Total Energy        Delta E     RMS |[F,P]|

   @DF-RKS iter SAD:   -56.04781111775988   -5.60478e+01   0.00000e+00 
   @DF-RKS iter   1:   -56.37629141096352   -3.28480e-01   4.25764e-03 DIIS
   @DF-RKS iter   2:   -56.38777547583886   -1.14841e-02   4.08607e-03 DIIS
   @DF-RKS iter   3:   -56.55518856290115   -1.67413e-01   1.39263e-04 DIIS
   @DF-RKS iter   4:   -56.55557068025787   -3.82117e-04   3.01639e-05 DIIS
   @DF-RKS iter   5:   -56.55558940547076   -1.87252e-05   4.08926e-06 DIIS
   @DF-RKS iter   6:   -56.55559013758933   -7.32119e-07   1.38123e-06 DIIS
   @DF-RKS iter   7:   -56.55559020644023   -6.88509e-08   3.26665e-07 DIIS
   @DF-RKS iter   8:   -56.55559021422273   -7.78250e-09   7.37847e-08 DIIS
   @DF-RKS iter   9:   -56.55559021459312   -3.70385e-10   1.03949e-08 DIIS
   @DF-RKS iter  10:   -56.55559021459885   -5.73408e-12   9.54878e-10 DIIS
  Energy and wave function converged.


  ==> Post-Iterations <==

    Orbital Energies [Eh]
    ---------------------

    Doubly Occupied:                                                      

       1Ap   -14.480452     2Ap    -0.977357     1App   -0.566076  
       3Ap    -0.565978     4Ap    -0.377125  

    Virtual:                                                              

       5Ap     0.009645     2App    0.034427     6Ap     0.034450  
       7Ap     0.077007     8Ap     0.110286     9Ap     0.119682  
       3App    0.119707     4App    0.154745    10Ap     0.154823  
       5App    0.160141    11Ap     0.160187    12Ap     0.180286  
       6App    0.256403    13Ap     0.263195     7App    0.269137  
      14Ap     0.269188    15Ap     0.312521     8App    0.334785  
      16Ap     0.334890     9App    0.354569    17Ap     0.354597  
      18Ap     0.386153    10App    0.430923    19Ap     0.431044  
      11App    0.501678    20Ap     0.501687    21Ap     0.505534  
      22Ap     0.542733    23Ap     0.629341    24Ap     0.631327  
      12App    0.631331    13App    0.656031    14App    0.667428  
      25Ap     0.667576    15App    0.702658    16App    0.708804  
      26Ap     0.708867    27Ap     0.714937    28Ap     0.771748  
      17App    0.771789    29Ap     0.788726    18App    0.798544  
      30Ap     0.798744    31Ap     0.810569    19App    0.810610  
      32Ap     0.895454    20App    0.927430    33Ap     0.927898  
      34Ap     1.047059    35Ap     1.129766    21App    1.129869  
      36Ap     1.247483    22App    1.255335    37Ap     1.255505  
      38Ap     1.256164    23App    1.275353    24App    1.343814  
      39Ap     1.344112    25App    1.416250    40Ap     1.416419  
      26App    1.425006    41Ap     1.456538    42Ap     1.483134  
      43Ap     1.554695    27App    1.554771    44Ap     1.591217  
      28App    1.591487    45Ap     1.618168    46Ap     1.644424  
      29App    1.644514    47Ap     1.709223    30App    1.723003  
      48Ap     1.723088    31App    1.751784    32App    1.786099  
      49Ap     1.786847    50Ap     1.866269    33App    1.866487  
      51Ap     1.909746    34App    1.910051    52Ap     1.924656  
      35App    1.959706    53Ap     1.982650    36App    1.994304  
      54Ap     1.994568    55Ap     2.039549    37App    2.138798  
      56Ap     2.139693    38App    2.166652    39App    2.238599  
      57Ap     2.238663    58Ap     2.584685    40App    2.722056  
      59Ap     2.722697    60Ap     2.731336    41App    2.741751  
      61Ap     2.742533    42App    2.752030    43App    2.816805  
      62Ap     2.817188    63Ap     2.847399    44App    2.847902  
      64Ap     2.873664    45App    2.931646    65Ap     2.943378  
      46App    3.015509    66Ap     3.016597    47App    3.061760  
      67Ap     3.062209    48App    3.188133    68Ap     3.188249  
      69Ap     3.261048    49App    3.359715    70Ap     3.360868  
      71Ap     3.383766    50App    3.534036    72Ap     3.694333  
      73Ap     3.708004    51App    3.708487    74Ap     3.919367  
      75Ap     3.931514    52App    3.932990    53App    3.966974  
      76Ap     3.968392    77Ap     4.006858    54App    4.014258  
      78Ap     4.051515    55App    4.150868    79Ap     4.151809  
      56App    4.448693    80Ap     4.448965    81Ap     4.687920  
      57App    4.688502    82Ap     4.798901    58App    4.911834  
      83Ap     4.912516    84Ap     5.061236    59App    5.061247  
      60App    5.183394    85Ap     5.329417    61App    6.567300  
      86Ap     6.567978    62App    6.647523    63App    6.667582  
      87Ap     6.670354    88Ap     6.751932    64App    7.047751  
      65App    7.058880    89Ap     7.058957    66App    7.095911  
      90Ap     7.096343    91Ap     7.256555    67App    7.375805  
      92Ap     7.377309    68App    7.394672    93Ap     7.516551  
      69App    7.518023    70App    7.631290    94Ap     7.632591  
      95Ap     7.671429    96Ap     7.872331    71App    7.970813  
      97Ap     7.973391    98Ap     7.977542    99Ap     8.173229  
      72App    8.276545   100Ap     8.278966    73App    8.324499  
     101Ap     8.325521   102Ap     8.522018   103Ap     8.578291  
      74App    8.578570   104Ap     8.588492    75App    8.645917  
     105Ap     8.655417    76App    8.656841    77App    8.676987  
     106Ap     8.800185   107Ap     8.909186    78App    8.909642  
      79App    9.045124   108Ap     9.045467   109Ap     9.138223  
      80App    9.139881   110Ap     9.202833    81App    9.406798  
     111Ap     9.446405   112Ap     9.527429    82App    9.528035  
     113Ap     9.697027    83App    9.697726   114Ap     9.708846  
     115Ap     9.895933    84App    9.895973   116Ap    10.139588  
      85App   10.141349   117Ap    10.344449    86App   10.475228  
      87App   10.525052   118Ap    10.527054   119Ap    11.219562  
     120Ap    11.776760    88App   11.783462   121Ap    11.828021  
      89App   11.932002   122Ap    11.940059    90App   12.602559  
      91App   12.665298   123Ap    12.669399   124Ap    14.146938  
      92App   14.465692   125Ap    14.476444   126Ap    35.765252  

    Final Occupation by Irrep:
             Ap   App 
    DOCC [     4,    1 ]

  @DF-RKS Final Energy:   -56.55559021459885

[...]

   => Molecular Quadrature <=

    Radial Scheme          =       TREUTLER
    Pruning Scheme         =           FLAT
    Nuclear Scheme         =       TREUTLER

    BS radius alpha        =              1
    Pruning alpha          =              1
    Radial Points          =             75
    Spherical Points       =            302
    Total Points           =          90600
    Total Blocks           =            744
    Max Points             =            256
    Max Functions          =            218

   => Loading Basis Set <=

    Name: (AUG-CC-PV(Q+D)Z AUX)
    Role: JKFIT
    Keyword: DF_BASIS_SCF
    atoms 1   entry N          line   248 file /work/zw18965/.conda/envs/p4env/share/psi4/basis/aug-cc-pvqz-jkfit.gbs 
    atoms 2-4 entry H          line    70 file /work/zw18965/.conda/envs/p4env/share/psi4/basis/aug-cc-pvqz-jkfit.gbs 

  ==> Pre-Iterations <==

   -------------------------------------------------------
    Irrep   Nso     Nmo     Nalpha   Nbeta   Ndocc  Nsocc
   -------------------------------------------------------
     A        218     218       0       0       0       0
   -------------------------------------------------------
    Total     218     218       5       5       5       0
   -------------------------------------------------------

  ==> Integral Setup <==

  ==> DiskDFJK: Density-Fitted J/K Matrices <==

    J tasked:                  Yes
    K tasked:                  Yes
    wK tasked:                 Yes
    Omega:               3.000E-01
    OpenMP threads:             24
    Integrals threads:          24
    Memory [MiB]:           101634
    Algorithm:                Core
    Integral Cache:           NONE
    Schwarz Cutoff:          1E-12
    Fitting Condition:       1E-10

   => Auxiliary Basis Set <=

  Basis Set: (AUG-CC-PV(Q+D)Z AUX)
    Blend: AUG-CC-PVQZ-JKFIT
    Number of shells: 88
    Number of basis function: 370
    Number of Cartesian functions: 501
    Spherical Harmonics?: true
    Max angular momentum: 5

  Cached 100.0% of DFT collocation blocks in 1.331 [GiB].

  Minimum eigenvalue in the overlap matrix is 5.2312509011E-05.
  Using Symmetric Orthogonalization.

  SCF Guess: Superposition of Atomic Densities via on-the-fly atomic UHF.

  ==> Iterations <==

                           Total Energy        Delta E     RMS |[F,P]|

   @DF-RKS iter SAD:   -56.04579595023598   -5.60458e+01   0.00000e+00 
   @DF-RKS iter   1:   -56.37638776180921   -3.30592e-01   3.04879e-03 DIIS
   @DF-RKS iter   2:   -56.38777223030177   -1.13845e-02   2.92513e-03 DIIS
   @DF-RKS iter   3:   -56.55523473440851   -1.67463e-01   1.00115e-04 DIIS
   @DF-RKS iter   4:   -56.55561893724844   -3.84203e-04   2.15986e-05 DIIS
   @DF-RKS iter   5:   -56.55563771240646   -1.87752e-05   2.92051e-06 DIIS
   @DF-RKS iter   6:   -56.55563845218519   -7.39779e-07   9.99464e-07 DIIS
   @DF-RKS iter   7:   -56.55563852297882   -7.07936e-08   2.38315e-07 DIIS
   @DF-RKS iter   8:   -56.55563853113465   -8.15583e-09   5.37436e-08 DIIS
   @DF-RKS iter   9:   -56.55563853151956   -3.84915e-10   7.49002e-09 DIIS
   @DF-RKS iter  10:   -56.55563853152552   -5.96145e-12   6.76947e-10 DIIS
   @DF-RKS iter  11:   -56.55563853152561   -8.52651e-14   1.24518e-10 DIIS
   @DF-RKS iter  12:   -56.55563853152572   -1.13687e-13   1.44434e-11 DIIS
  Energy and wave function converged.


  ==> Post-Iterations <==

    Orbital Energies [Eh]
    ---------------------

    Doubly Occupied:                                                      

       1A    -14.479848     2A     -0.975853     3A     -0.567963  
       4A     -0.566805     5A     -0.374660  

    Virtual:                                                              

       6A      0.009769     7A      0.034370     8A      0.034417  
       9A      0.077103    10A      0.110282    11A      0.119617  
      12A      0.119696    13A      0.154754    14A      0.154773  
      15A      0.160312    16A      0.160469    17A      0.180660  
      18A      0.256078    19A      0.263507    20A      0.269007  
      21A      0.269084    22A      0.312247    23A      0.335253  
      24A      0.335786    25A      0.353940    26A      0.354085  
      27A      0.384714    28A      0.432262    29A      0.432615  
      30A      0.502395    31A      0.502706    32A      0.506870  
      33A      0.541668    34A      0.631207    35A      0.632429  
      36A      0.632596    37A      0.654885    38A      0.666616  
      39A      0.666909    40A      0.702071    41A      0.709012  
      42A      0.709525    43A      0.714565    44A      0.770815  
      45A      0.771083    46A      0.787598    47A      0.798815  
      48A      0.799321    49A      0.809815    50A      0.810186  
      51A      0.893982    52A      0.929917    53A      0.931180  
      54A      1.046525    55A      1.132234    56A      1.132512  
      57A      1.250981    58A      1.254454    59A      1.254526  
      60A      1.256955    61A      1.273876    62A      1.342355  
      63A      1.343028    64A      1.417282    65A      1.418534  
      66A      1.428270    67A      1.455429    68A      1.481952  
      69A      1.553717    70A      1.553884    71A      1.587386  
      72A      1.588126    73A      1.617453    74A      1.645515  
      75A      1.645893    76A      1.709031    77A      1.721429  
      78A      1.721496    79A      1.748369    80A      1.783438  
      81A      1.785211    82A      1.869543    83A      1.870073  
      84A      1.909395    85A      1.909530    86A      1.918266  
      87A      1.954796    88A      1.979722    89A      1.994420  
      90A      1.994670    91A      2.050490    92A      2.148901  
      93A      2.149303    94A      2.166359    95A      2.248873  
      96A      2.249236    97A      2.577585    98A      2.704832  
      99A      2.706455   100A      2.736764   101A      2.743158  
     102A      2.743336   103A      2.747161   104A      2.810307  
     105A      2.810774   106A      2.857154   107A      2.857880  
     108A      2.871562   109A      2.940008   110A      2.940685  
     111A      3.002422   112A      3.003500   113A      3.064635  
     114A      3.066093   115A      3.198002   116A      3.198417  
     117A      3.258187   118A      3.351986   119A      3.353189  
     120A      3.390666   121A      3.522449   122A      3.689847  
     123A      3.710723   124A      3.711520   125A      3.923162  
     126A      3.935954   127A      3.939837   128A      3.962452  
     129A      3.963098   130A      4.005002   131A      4.018778  
     132A      4.054702   133A      4.168157   134A      4.169906  
     135A      4.451679   136A      4.452072   137A      4.692027  
     138A      4.692096   139A      4.798994   140A      4.904379  
     141A      4.905521   142A      5.058030   143A      5.059612  
     144A      5.195866   145A      5.332058   146A      6.567771  
     147A      6.568356   148A      6.634004   149A      6.666493  
     150A      6.669568   151A      6.763644   152A      7.043971  
     153A      7.068488   154A      7.069737   155A      7.104571  
     156A      7.105140   157A      7.242597   158A      7.375586  
     159A      7.378177   160A      7.384227   161A      7.522921  
     162A      7.524053   163A      7.649188   164A      7.654279  
     165A      7.657344   166A      7.878145   167A      7.977333  
     168A      7.978580   169A      7.986397   170A      8.182504  
     171A      8.293021   172A      8.296728   173A      8.344682  
     174A      8.348656   175A      8.525170   176A      8.553304  
     177A      8.554192   178A      8.579714   179A      8.629125  
     180A      8.631240   181A      8.654808   182A      8.664740  
     183A      8.786785   184A      8.910388   185A      8.914079  
     186A      9.042723   187A      9.044263   188A      9.113570  
     189A      9.116616   190A      9.185851   191A      9.384257  
     192A      9.413487   193A      9.528921   194A      9.533918  
     195A      9.681600   196A      9.682198   197A      9.715263  
     198A      9.888220   199A      9.892427   200A     10.137102  
     201A     10.141348   202A     10.365929   203A     10.486500  
     204A     10.537265   205A     10.538218   206A     11.217697  
     207A     11.782296   208A     11.784261   209A     11.822081  
     210A     11.928618   211A     11.930861   212A     12.620707  
     213A     12.664283   214A     12.667013   215A     14.157725  
     216A     14.461949   217A     14.462949   218A     35.716820  

    Final Occupation by Irrep:
              A 
    DOCC [     5 ]

  @DF-RKS Final Energy:   -56.55563853152572

   => Energetics <=

    Nuclear Repulsion Energy =             11.9652516688406934
    One-Electron Energy =                 -99.6691694900623588
    Two-Electron Energy =                  36.6680729903626172
    DFT Exchange-Correlation Energy =      -5.5616228752468242
    Empirical Dispersion Energy =           0.0000000000000000
    VV10 Nonlocal Energy =                  0.0418291745801455
    Total Energy =                        -56.5556385315257302

Computation Completed


Properties will be evaluated at   0.000000,   0.000000,   0.000000 [a0]

Properties computed using the SCF density matrix

  Nuclear Dipole Moment: [e a0]
     X:     0.5539      Y:     0.6657      Z:     0.0035

  Electronic Dipole Moment: [e a0]
     X:    -0.1716      Y:    -0.2063      Z:    -0.0025

  Dipole Moment: [e a0]
     X:     0.3823      Y:     0.4594      Z:     0.0009     Total:     0.5977

  Dipole Moment: [D]
     X:     0.9716      Y:     1.1677      Z:     0.0024     Total:     1.5191


*** tstop() called on bp1-compute00065.data.bp.acrc.priv at Tue Apr 27 16:56:43 2021
Module time:
	user time   =     146.41 seconds =       2.44 minutes
	system time =       5.21 seconds =       0.09 minutes
	total time  =          7 seconds =       0.12 minutes
Total time:
	user time   =    7831.63 seconds =     130.53 minutes
	system time =     206.79 seconds =       3.45 minutes
	total time  =        352 seconds =       5.87 minutes

         ----------------------------------------------------------
                                   FINDIF
                     R. A. King and Jonathon Misiewicz
         ---------------------------------------------------------

  Computing second-derivative from energies using projected, 
  symmetry-adapted, cartesian coordinates.

  25 energies passed in, including the reference geometry.
    Using 3-point formula.
    Energy without displacement:  -56.5556401603
    Check energies below for precision!
    0: -1        :       -56.5556373373
    0: 1         :       -56.5556375994
    1: -1        :       -56.5556375307
    1: 1         :       -56.5556378106
    2: -1        :       -56.5556360876
    2: 1         :       -56.5556356574
    3: -1        :       -56.5556360836
    3: 1         :       -56.5556356509
    0: 1, 1: 1   :       -56.5556383111
    0: -1, 1: -1 :       -56.5556377391
    0: 1, 2: 1   :       -56.5556321888
    0: -1, 2: -1 :       -56.5556323200
    1: 1, 2: 1   :       -56.5556373183
    1: -1, 2: -1 :       -56.5556375007
    0: 1, 3: 1   :       -56.5556371578
    0: -1, 3: -1 :       -56.5556373548
    1: 1, 3: 1   :       -56.5556326637
    1: -1, 3: -1 :       -56.5556328100
    2: 1, 3: 1   :       -56.5556292918
    2: -1, 3: -1 :       -56.5556301401
    4: -1        :       -56.5556360352
    5: -1        :       -56.5556378251
    4: 1, 5: 1   :       -56.5556385316
    4: -1, 5: -1 :       -56.5556385315

-------------------------------------------------------------


  ==> Harmonic Vibrational Analysis <==

  non-mass-weighted Hessian:       Symmetric? True   Hermitian? True   Lin Dep Dim?  6 (0)
  projection of translations (True) and rotations (True) removed 6 degrees of freedom (6)
  total projector:                 Symmetric? True   Hermitian? True   Lin Dep Dim?  6 (6)
  mass-weighted Hessian:           Symmetric? True   Hermitian? True   Lin Dep Dim?  6 (0)
  pre-proj  low-frequency mode:    0.0000i [cm^-1]
  pre-proj  low-frequency mode:    0.0000i [cm^-1]
  pre-proj  low-frequency mode:    0.0000  [cm^-1]
  pre-proj  low-frequency mode:    0.0000  [cm^-1]
  pre-proj  low-frequency mode:    0.0000  [cm^-1]
  pre-proj  low-frequency mode:    0.0000  [cm^-1]
  pre-proj  all modes:['0.0000i' '0.0000i' '0.0000' '0.0000' '0.0000' '0.0000' '1025.6260'
 '1175.7335' '1650.2662' '3498.1823' '3503.4742' '3616.6860']
  projected mass-weighted Hessian: Symmetric? True   Hermitian? True   Lin Dep Dim?  6 (6)
  post-proj low-frequency mode:    0.0000i [cm^-1] (TR)
  post-proj low-frequency mode:    0.0000i [cm^-1] (TR)
  post-proj low-frequency mode:    0.0000  [cm^-1] (TR)
  post-proj low-frequency mode:    0.0000  [cm^-1] (TR)
  post-proj low-frequency mode:    0.0001  [cm^-1] (TR)
  post-proj low-frequency mode:    0.0001  [cm^-1] (TR)
  post-proj  all modes:['0.0000i' '0.0000i' '0.0000' '0.0000' '0.0001' '0.0001' '1025.6260'
 '1175.7335' '1650.2662' '3498.1823' '3503.4742' '3616.6860']

  Vibration                       7                   8                   9           
  Freq [cm^-1]                1025.6260           1175.7335           1650.2662       
  Irrep                           Ap                 App                  Ap          
  Reduced mass [u]              1.1817              1.0527              1.0667        
  Force const [mDyne/A]         0.7324              0.8574              1.7116        
  Turning point v=0 [a0]        0.3152              0.3119              0.2615        
  RMS dev v=0 [a0 u^1/2]        0.2423              0.2263              0.1910        
  Char temp [K]               1475.6475           1691.6187           2374.3657       
  ----------------------------------------------------------------------------------
      1   N               -0.07 -0.09 -0.00    0.00  0.00 -0.06   -0.05  0.04 -0.00   
      2   H                0.27  0.48 -0.18   -0.20  0.41  0.03    0.49 -0.25 -0.39   
      3   H                0.27  0.48  0.18    0.20 -0.41  0.03    0.49 -0.25  0.39   
      4   H                0.50  0.28  0.00   -0.00  0.00  0.76   -0.27 -0.10  0.00   

  Vibration                       10                  11                  12          
  Freq [cm^-1]                3498.1823           3503.4742           3616.6860       
  Irrep                           Ap                 App                  Ap          
  Reduced mass [u]              1.0259              1.1051              1.0901        
  Force const [mDyne/A]         7.3970              7.9919              8.4009        
  Turning point v=0 [a0]        0.1832              0.1763              0.1748        
  RMS dev v=0 [a0 u^1/2]        0.1312              0.1311              0.1290        
  Char temp [K]               5033.1055           5040.7194           5203.6060       
  ----------------------------------------------------------------------------------
      1   N               -0.02 -0.03  0.00    0.00 -0.00 -0.09    0.06 -0.05  0.00   
      2   H                0.32 -0.04  0.48    0.41  0.02  0.57   -0.23 -0.00 -0.34   
      3   H                0.32 -0.04 -0.48   -0.41 -0.02  0.57   -0.23 -0.00  0.34   
      4   H               -0.31  0.49 -0.00   -0.00  0.00  0.06   -0.40  0.71 -0.00   

  ==> Thermochemistry Components <==

  Entropy, S
    Electronic S            0.000 [cal/(mol K)]        0.000 [J/(mol K)]       0.00000000 [mEh/K] (multiplicity = 1)
    Translational S        34.441 [cal/(mol K)]      144.100 [J/(mol K)]       0.05488488 [mEh/K] (mol. weight = 17.0265 [u], P = 101325.00 [Pa])
    Rotational S           13.606 [cal/(mol K)]       56.927 [J/(mol K)]       0.02168236 [mEh/K] (symmetry no. = 1)
    Vibrational S           0.136 [cal/(mol K)]        0.570 [J/(mol K)]       0.00021713 [mEh/K]
  Total S                  48.183 [cal/(mol K)]      201.597 [J/(mol K)]       0.07678437 [mEh/K]
  Correction S              0.000 [cal/(mol K)]        0.000 [J/(mol K)]       0.00000000 [mEh/K]

  Constant volume heat capacity, Cv
    Electronic Cv           0.000 [cal/(mol K)]        0.000 [J/(mol K)]       0.00000000 [mEh/K]
    Translational Cv        2.981 [cal/(mol K)]       12.472 [J/(mol K)]       0.00475022 [mEh/K]
    Rotational Cv           2.981 [cal/(mol K)]       12.472 [J/(mol K)]       0.00475022 [mEh/K]
    Vibrational Cv          0.615 [cal/(mol K)]        2.574 [J/(mol K)]       0.00098035 [mEh/K]
  Total Cv                  6.577 [cal/(mol K)]       27.517 [J/(mol K)]       0.01048078 [mEh/K]
  Correction Cv             0.000 [cal/(mol K)]        0.000 [J/(mol K)]       0.00000000 [mEh/K]

  Constant pressure heat capacity, Cp
    Electronic Cp           0.000 [cal/(mol K)]        0.000 [J/(mol K)]       0.00000000 [mEh/K]
    Translational Cp        4.968 [cal/(mol K)]       20.786 [J/(mol K)]       0.00791703 [mEh/K]
    Rotational Cp           2.981 [cal/(mol K)]       12.472 [J/(mol K)]       0.00475022 [mEh/K]
    Vibrational Cp          0.615 [cal/(mol K)]        2.574 [J/(mol K)]       0.00098035 [mEh/K]
  Total Cp                  8.564 [cal/(mol K)]       35.832 [J/(mol K)]       0.01364759 [mEh/K]
  Correction Cp             0.000 [cal/(mol K)]        0.000 [J/(mol K)]       0.00000000 [mEh/K]

  ==> Thermochemistry Energy Analysis <==

  Raw electronic energy, E0
  Total E0, Electronic energy at well bottom at 0 [K]                  -56.55564016 [Eh]

  Zero-point energy, ZPE_vib = Sum_i nu_i / 2
    Electronic ZPE          0.000 [kcal/mol]        0.000 [kJ/mol]       0.00000000 [Eh]
    Translational ZPE       0.000 [kcal/mol]        0.000 [kJ/mol]       0.00000000 [Eh]
    Rotational ZPE          0.000 [kcal/mol]        0.000 [kJ/mol]       0.00000000 [Eh]
    Vibrational ZPE        20.686 [kcal/mol]       86.550 [kJ/mol]       0.03296501 [Eh]        7234.984 [cm^-1]
  Correction ZPE           20.686 [kcal/mol]       86.550 [kJ/mol]       0.03296501 [Eh]        7234.984 [cm^-1]
  Total ZPE, Electronic energy at 0 [K]                                -56.52267515 [Eh]

  Thermal Energy, E (includes ZPE)
    Electronic E            0.000 [kcal/mol]        0.000 [kJ/mol]       0.00000000 [Eh]
    Translational E         0.889 [kcal/mol]        3.718 [kJ/mol]       0.00141628 [Eh]
    Rotational E            0.889 [kcal/mol]        3.718 [kJ/mol]       0.00141628 [Eh]
    Vibrational E          20.720 [kcal/mol]       86.693 [kJ/mol]       0.03301946 [Eh]
  Correction E             22.497 [kcal/mol]       94.129 [kJ/mol]       0.03585201 [Eh]
  Total E, Electronic energy at  298.15 [K]                            -56.51978815 [Eh]

  Enthalpy, H_trans = E_trans + k_B * T
    Electronic H            0.000 [kcal/mol]        0.000 [kJ/mol]       0.00000000 [Eh]
    Translational H         1.481 [kcal/mol]        6.197 [kJ/mol]       0.00236046 [Eh]
    Rotational H            0.889 [kcal/mol]        3.718 [kJ/mol]       0.00141628 [Eh]
    Vibrational H          20.720 [kcal/mol]       86.693 [kJ/mol]       0.03301946 [Eh]
  Correction H             23.090 [kcal/mol]       96.608 [kJ/mol]       0.03679619 [Eh]
  Total H, Enthalpy at  298.15 [K]                                     -56.51884397 [Eh]

  Gibbs free energy, G = H - T * S
    Electronic G            0.000 [kcal/mol]        0.000 [kJ/mol]       0.00000000 [Eh]
    Translational G        -8.787 [kcal/mol]      -36.766 [kJ/mol]      -0.01400347 [Eh]
    Rotational G           -3.168 [kcal/mol]      -13.254 [kJ/mol]      -0.00504832 [Eh]
    Vibrational G          20.679 [kcal/mol]       86.523 [kJ/mol]       0.03295472 [Eh]
  Correction G              8.724 [kcal/mol]       36.502 [kJ/mol]       0.01390293 [Eh]
  Total G, Free enthalpy at  298.15 [K]                                -56.54173723 [Eh]

    Psi4 stopped on: Tuesday, 27 April 2021 04:56PM
    Psi4 wall time for execution: 0:05:51.51

*** Psi4 exiting successfully. Buy a developer a beer!
