
    -----------------------------------------------------------------------
          Psi4: An Open-Source Ab Initio Electronic Structure Package
                               Psi4 1.3.2 release

                         Git: Rev {HEAD} ecbda83 


    R. M. Parrish, L. A. Burns, D. G. A. Smith, A. C. Simmonett,
    A. E. DePrince III, E. G. Hohenstein, U. Bozkaya, A. Yu. Sokolov,
    R. Di Remigio, R. M. Richard, J. F. Gonthier, A. M. James,
    H. R. McAlexander, A. Kumar, M. Saitow, X. Wang, B. P. Pritchard,
    P. Verma, H. F. Schaefer III, K. Patkowski, R. A. King, E. F. Valeev,
    F. A. Evangelista, J. M. Turney, T. D. Crawford, and C. D. Sherrill,
    J. Chem. Theory Comput. 13(7) pp 3185--3197 (2017).
    (doi: 10.1021/acs.jctc.7b00174)


                         Additional Contributions by
    P. Kraus, H. Kruse, M. H. Lechner, M. C. Schieber, R. A. Shaw,
    A. Alenaizan, R. Galvelis, Z. L. Glick, S. Lehtola, and J. P. Misiewicz

    -----------------------------------------------------------------------


    Psi4 started on: Monday, 19 April 2021 04:03PM

    Process ID: 203938
    Host:       bp1-compute00148.data.bp.acrc.priv
    PSIDATADIR: /work/zw18965/.conda/envs/p4env/share/psi4
    Memory:     500.0 MiB
    Threads:    24
    
  ==> Input File <==

--------------------------------------------------------------------------
memory 144 GB

molecule {
0 1
N     0.000000000000   0.000000000000  -1.102291942126
N     0.000000000000   0.000000000000   0.001494698075
O     0.000000000000   0.000000000000   1.159797248627}

set basis aug-cc-pV(Q+d)Z
 
optimize("WB97M-V")
frequencies("WB97M-V")--------------------------------------------------------------------------

  Memory set to 134.110 GiB by Python driver.
gradient() will perform gradient computation by finite difference of analytic energies.

         ----------------------------------------------------------
                                   FINDIF
                     R. A. King and Jonathon Misiewicz
         ---------------------------------------------------------

  Using finite-differences of energies to determine gradients.
    Generating geometries for use with 3-point formula.
    Displacement size will be 5.00e-03.
    Number of atoms is 3.
    Number of symmetric SALCs is 2.
    Translations projected? 1. Rotations projected? 1.
    Number of geometries (including reference) is 5.

  //>>>>>>>>>>>>>>>>>>>>>>>>>>>>>>>>>>>//
  //    Loading displacement 1 of 5    //
  //<<<<<<<<<<<<<<<<<<<<<<<<<<<<<<<<<<<//

*** tstart() called on bp1-compute00148.data.bp.acrc.priv
*** at Mon Apr 19 16:03:12 2021

   => Loading Basis Set <=

    Name: AUG-CC-PV(Q+D)Z
    Role: ORBITAL
    Keyword: BASIS
    atoms 1-2 entry N          line   379 file /work/zw18965/.conda/envs/p4env/share/psi4/basis/aug-cc-pv_qpd_z.gbs 
    atoms 3   entry O          line   439 file /work/zw18965/.conda/envs/p4env/share/psi4/basis/aug-cc-pv_qpd_z.gbs 


         ---------------------------------------------------------
                                   SCF
               by Justin Turney, Rob Parrish, Andy Simmonett
                          and Daniel G. A. Smith
                              RKS Reference
                       24 Threads, 137329 MiB Core
         ---------------------------------------------------------

  ==> Geometry <==

    Molecular point group: c2v
    Full point group: C_inf_v

    Geometry (in Angstrom), charge = 0, multiplicity = 1:

       Center              X                  Y                   Z               Mass       
    ------------   -----------------  -----------------  -----------------  -----------------
         N            0.000000000000     0.000000000000    -1.173570054702    14.003074004430
         N            0.000000000000     0.000000000000    -0.069783414501    14.003074004430
         O            0.000000000000     0.000000000000     1.088519136051    15.994914619570

  Running in c2v symmetry.

  Rotational constants: A = ************  B =      0.44008  C =      0.44008 [cm^-1]
  Rotational constants: A = ************  B =  13193.16785  C =  13193.16785 [MHz]
  Nuclear repulsion =   62.175740977902905

  Charge       = 0
  Multiplicity = 1
  Electrons    = 22
  Nalpha       = 11
  Nbeta        = 11

  ==> Algorithm <==

  SCF Algorithm Type is DF.
  DIIS enabled.
  MOM disabled.
  Fractional occupation disabled.
  Guess Type is SAD.
  Energy threshold   = 1.00e-08
  Density threshold  = 1.00e-08
  Integral threshold = 0.00e+00

  ==> Primary Basis <==

  Basis Set: AUG-CC-PV(Q+D)Z
    Blend: AUG-CC-PV(Q+D)Z
    Number of shells: 60
    Number of basis function: 240
    Number of Cartesian functions: 315
    Spherical Harmonics?: true
    Max angular momentum: 4

  ==> DFT Potential <==

   => Composite Functional: WB97M-V <= 

    wB97M-V Hyb-GGA Exchange-Correlation Functional

    N. Mardirossian and M. Head-Gordon, J. Chem. Phys. 144, 214110 (2016)

    Deriv               =              1
    GGA                 =           TRUE
    Meta                =           TRUE

    Exchange Hybrid     =           TRUE
    MP2 Hybrid          =          FALSE

   => Exchange-Correlation Functionals <=

    1.0000   wB97M-V exchange-correlation functional

   => Exact (HF) Exchange <=

    0.8500            HF,LR [omega = 0.3000]
    0.1500               HF 

   => VV10 Non-Local Parameters <=

    VV10 B              =     6.0000E+00
    VV10 C              =     1.0000E-02

   => Molecular Quadrature <=

    Radial Scheme          =       TREUTLER
    Pruning Scheme         =           FLAT
    Nuclear Scheme         =       TREUTLER

    BS radius alpha        =              1
    Pruning alpha          =              1
    Radial Points          =             75
    Spherical Points       =            302
    Total Points           =          67950
    Total Blocks           =            584
    Max Points             =            256
    Max Functions          =            240

   => Loading Basis Set <=

    Name: (AUG-CC-PV(Q+D)Z AUX)
    Role: JKFIT
    Keyword: DF_BASIS_SCF
    atoms 1-2 entry N          line   248 file /work/zw18965/.conda/envs/p4env/share/psi4/basis/aug-cc-pvqz-jkfit.gbs 
    atoms 3   entry O          line   318 file /work/zw18965/.conda/envs/p4env/share/psi4/basis/aug-cc-pvqz-jkfit.gbs 

  ==> Pre-Iterations <==

   -------------------------------------------------------
    Irrep   Nso     Nmo     Nalpha   Nbeta   Ndocc  Nsocc
   -------------------------------------------------------
     A1        93      93       0       0       0       0
     A2        33      33       0       0       0       0
     B1        57      57       0       0       0       0
     B2        57      57       0       0       0       0
   -------------------------------------------------------
    Total     240     240      11      11      11       0
   -------------------------------------------------------

  ==> Integral Setup <==

  ==> DiskDFJK: Density-Fitted J/K Matrices <==

    J tasked:                  Yes
    K tasked:                  Yes
    wK tasked:                 Yes
    Omega:               3.000E-01
    OpenMP threads:             24
    Integrals threads:          24
    Memory [MiB]:           101953
    Algorithm:                Core
    Integral Cache:           NONE
    Schwarz Cutoff:          1E-12
    Fitting Condition:       1E-10

   => Auxiliary Basis Set <=

  Basis Set: (AUG-CC-PV(Q+D)Z AUX)
    Blend: AUG-CC-PVQZ-JKFIT
    Number of shells: 102
    Number of basis function: 426
    Number of Cartesian functions: 594
    Spherical Harmonics?: true
    Max angular momentum: 5

  Cached 100.0% of DFT collocation blocks in 1.019 [GiB].

  Minimum eigenvalue in the overlap matrix is 1.5906670950E-05.
  Using Symmetric Orthogonalization.

  SCF Guess: Superposition of Atomic Densities via on-the-fly atomic UHF.

  ==> Iterations <==

                           Total Energy        Delta E     RMS |[F,P]|

   @DF-RKS iter SAD:  -184.29917311365966   -1.84299e+02   0.00000e+00 
   @DF-RKS iter   1:  -184.61159677622371   -3.12424e-01   4.05076e-03 DIIS
   @DF-RKS iter   2:  -184.58612840364327    2.54684e-02   4.68403e-03 DIIS
   @DF-RKS iter   3:  -184.69817572272174   -1.12047e-01   7.39689e-04 DIIS
   @DF-RKS iter   4:  -184.70037992906990   -2.20421e-03   4.02047e-04 DIIS
   @DF-RKS iter   5:  -184.70127321114862   -8.93282e-04   5.80283e-05 DIIS
   @DF-RKS iter   6:  -184.70129669601261   -2.34849e-05   1.28250e-05 DIIS
   @DF-RKS iter   7:  -184.70129798976265   -1.29375e-06   2.05513e-06 DIIS
   @DF-RKS iter   8:  -184.70129805450935   -6.47467e-08   3.53328e-07 DIIS
   @DF-RKS iter   9:  -184.70129805619311   -1.68376e-09   6.51097e-08 DIIS
   @DF-RKS iter  10:  -184.70129805624234   -4.92264e-11   1.20237e-08 DIIS
   @DF-RKS iter  11:  -184.70129805624396   -1.62004e-12   1.04918e-09 DIIS
  Energy and wave function converged.


  ==> Post-Iterations <==

    Orbital Energies [Eh]
    ---------------------

    Doubly Occupied:                                                      

       1A1   -19.427450     2A1   -14.738638     3A1   -14.597401  
       4A1    -1.398941     5A1    -1.232135     6A1    -0.721133  
       1B1    -0.696098     1B2    -0.696098     7A1    -0.591575  
       2B2    -0.445701     2B1    -0.445701  

    Virtual:                                                              

       8A1     0.031553     9A1     0.057207     3B1     0.063213  
       3B2     0.063213    10A1     0.099392     4B2     0.100317  
       4B1     0.100317     5B1     0.113976     5B2     0.113976  
      11A1     0.168880     6B1     0.178703     6B2     0.178703  
      12A1     0.208698    13A1     0.229665    14A1     0.260734  
       1A2     0.260737    15A1     0.313721     7B1     0.356896  
       7B2     0.356896    16A1     0.357358     2A2     0.360692  
      17A1     0.360695    18A1     0.421971     8B1     0.456125  
       8B2     0.456125     9B1     0.484259     9B2     0.484259  
      19A1     0.542441    20A1     0.573544     3A2     0.573553  
      10B2     0.589420    10B1     0.589420    21A1     0.597385  
      22A1     0.693273    23A1     0.723156    11B1     0.759114  
      11B2     0.759114    24A1     0.825190    12B2     0.851653  
      12B1     0.851653    25A1     0.853662     4A2     0.853664  
      13B1     0.900223    13B2     0.900223    26A1     0.906223  
       5A2     0.906226    27A1     0.940922    14B2     1.067804  
      14B1     1.067804    15B1     1.068295    15B2     1.068295  
      28A1     1.114719    29A1     1.211604     6A2     1.211608  
      30A1     1.277163    16B1     1.278514    16B2     1.278514  
      31A1     1.305666    17B2     1.438204    17B1     1.438204  
      32A1     1.438420     7A2     1.438422    18B1     1.456219  
      18B2     1.456219    33A1     1.460619    34A1     1.567559  
      19B1     1.618226    19B2     1.618226    35A1     1.627453  
       8A2     1.627453    36A1     1.742857    20B1     1.804893  
      20B2     1.804893    21B1     1.853111    21B2     1.853111  
      37A1     1.861660     9A2     1.943892    38A1     1.943894  
      39A1     2.060129    22B1     2.160919    22B2     2.160919  
      10A2     2.476755    40A1     2.476759    41A1     2.641665  
      11A2     2.641670    23B1     2.644167    23B2     2.644167  
      24B1     2.718886    24B2     2.718886    42A1     2.754715  
      43A1     2.779519    25B1     2.864304    25B2     2.864304  
      26B1     2.882834    26B2     2.882834    12A2     2.887042  
      44A1     2.887048    45A1     2.888302    13A2     2.912956  
      46A1     2.912967    27B2     2.982445    27B1     2.982445  
      47A1     3.007183    14A2     3.007186    28B1     3.084243  
      28B2     3.084243    48A1     3.085579    49A1     3.140015  
      15A2     3.140025    29B1     3.213260    29B2     3.213260  
      50A1     3.291091    30B1     3.463616    30B2     3.463616  
      51A1     3.482297    52A1     3.581713    16A2     3.581725  
      31B1     3.675147    31B2     3.675147    53A1     3.757485  
      54A1     3.790735    17A2     3.790737    32B1     3.914522  
      32B2     3.914522    33B2     3.922453    33B1     3.922453  
      55A1     4.021530    34B1     4.079237    34B2     4.079237  
      56A1     4.201811    18A2     4.201820    57A1     4.365963  
      58A1     4.511481    19A2     4.511484    35B2     4.547116  
      35B1     4.547116    36B1     4.586782    36B2     4.586782  
      59A1     4.941901    60A1     5.151776    20A2     5.151800  
      37B1     5.203003    37B2     5.203003    61A1     5.321428  
      62A1     5.363157    63A1     5.581283    21A2     5.581308  
      38B1     5.870136    38B2     5.870136    64A1     5.898724  
      65A1     6.126503    39B2     6.154706    39B1     6.154706  
      66A1     6.867533    40B2     7.440666    40B1     7.440666  
      67A1     7.530694    22A2     7.530709    23A2     7.672182  
      68A1     7.672227    41B2     7.678528    41B1     7.678528  
      24A2     8.005225    69A1     8.005266    70A1     8.044167  
      42B1     8.186883    42B2     8.186883    71A1     8.309883  
      25A2     8.309896    43B1     8.398216    43B2     8.398216  
      44B2     8.450269    44B1     8.450269    72A1     8.560535  
      45B2     8.673987    45B1     8.673987    46B1     8.801185  
      46B2     8.801185    73A1     8.888287    26A2     8.888305  
      74A1     8.895721    47B2     8.998908    47B1     8.998908  
      75A1     9.274515    27A2     9.281201    76A1     9.281223  
      48B1     9.329620    48B2     9.329620    77A1    10.015543  
      78A1    10.145187    28A2    10.145221    79A1    10.234846  
      29A2    10.234876    30A2    10.272078    80A1    10.272096  
      49B1    10.400738    49B2    10.400738    50B2    10.541532  
      50B1    10.541532    51B1    10.826294    51B2    10.826294  
      52B1    10.982661    52B2    10.982661    81A1    11.079002  
      31A2    11.302237    82A1    11.302240    83A1    11.355488  
      53B2    11.484849    53B1    11.484849    54B1    11.645488  
      54B2    11.645488    32A2    12.157480    84A1    12.157492  
      55B2    12.159424    55B1    12.159424    85A1    12.163394  
      33A2    12.664701    86A1    12.664737    87A1    12.747651  
      56B2    13.468832    56B1    13.468832    88A1    13.625581  
      57B1    14.945141    57B2    14.945141    89A1    15.679336  
      90A1    16.152385    91A1    33.873238    92A1    34.375244  
      93A1    43.111577  

    Final Occupation by Irrep:
             A1    A2    B1    B2 
    DOCC [     7,    0,    2,    2 ]

  @DF-RKS Final Energy:  -184.70129805624396

   => Energetics <=

    Nuclear Repulsion Energy =             62.1757409779029047
    One-Electron Energy =                -373.5930396733879775
    Two-Electron Energy =                 142.8448033292494586
    DFT Exchange-Correlation Energy =     -16.2199992743589547
    Empirical Dispersion Energy =           0.0000000000000000
    VV10 Nonlocal Energy =                  0.0911965843506511
    Total Energy =                       -184.7012980562439566

Computation Completed


Properties will be evaluated at   0.000000,   0.000000,   0.000000 [a0]

Properties computed using the SCF density matrix

  Nuclear Dipole Moment: [e a0]
     X:     0.0000      Y:     0.0000      Z:     0.0088

  Electronic Dipole Moment: [e a0]
     X:     0.0000      Y:     0.0000      Z:    -0.0339

  Dipole Moment: [e a0]
     X:     0.0000      Y:     0.0000      Z:    -0.0250     Total:     0.0250

  Dipole Moment: [D]
     X:     0.0000      Y:     0.0000      Z:    -0.0637     Total:     0.0637


*** tstop() called on bp1-compute00148.data.bp.acrc.priv at Mon Apr 19 16:03:19 2021
Module time:
	user time   =     138.57 seconds =       2.31 minutes
	system time =       7.68 seconds =       0.13 minutes
	total time  =          7 seconds =       0.12 minutes
Total time:
	user time   =     138.57 seconds =       2.31 minutes
	system time =       7.68 seconds =       0.13 minutes
	total time  =          7 seconds =       0.12 minutes

  //>>>>>>>>>>>>>>>>>>>>>>>>>>>>>>>>>>>//
  //    Loading displacement 2 of 5    //
  //<<<<<<<<<<<<<<<<<<<<<<<<<<<<<<<<<<<//

*** tstart() called on bp1-compute00148.data.bp.acrc.priv
*** at Mon Apr 19 16:03:19 2021

   => Loading Basis Set <=

    Name: AUG-CC-PV(Q+D)Z
    Role: ORBITAL
    Keyword: BASIS
    atoms 1-2 entry N          line   379 file /work/zw18965/.conda/envs/p4env/share/psi4/basis/aug-cc-pv_qpd_z.gbs 
    atoms 3   entry O          line   439 file /work/zw18965/.conda/envs/p4env/share/psi4/basis/aug-cc-pv_qpd_z.gbs 


         ---------------------------------------------------------
                                   SCF
               by Justin Turney, Rob Parrish, Andy Simmonett
                          and Daniel G. A. Smith
                              RKS Reference
                       24 Threads, 137329 MiB Core
         ---------------------------------------------------------

  ==> Geometry <==

    Molecular point group: c2v
    Full point group: C_inf_v

    Geometry (in Angstrom), charge = 0, multiplicity = 1:

       Center              X                  Y                   Z               Mass       
    ------------   -----------------  -----------------  -----------------  -----------------
         N            0.000000000000     0.000000000000    -1.174153867929    14.003074004430
         N            0.000000000000     0.000000000000    -0.069510890235    14.003074004430
         O            0.000000000000     0.000000000000     1.088791660317    15.994914619570

  Running in c2v symmetry.

  Rotational constants: A = ************  B =      0.43975  C =      0.43975 [cm^-1]
  Rotational constants: A = ************  B =  13183.47889  C =  13183.47889 [MHz]
  Nuclear repulsion =   62.152572564896275

  Charge       = 0
  Multiplicity = 1
  Electrons    = 22
  Nalpha       = 11
  Nbeta        = 11

  ==> Algorithm <==

  SCF Algorithm Type is DF.
  DIIS enabled.
  MOM disabled.
  Fractional occupation disabled.
  Guess Type is SAD.
  Energy threshold   = 1.00e-08
  Density threshold  = 1.00e-08
  Integral threshold = 0.00e+00

  ==> Primary Basis <==

  Basis Set: AUG-CC-PV(Q+D)Z
    Blend: AUG-CC-PV(Q+D)Z
    Number of shells: 60
    Number of basis function: 240
    Number of Cartesian functions: 315
    Spherical Harmonics?: true
    Max angular momentum: 4

  ==> DFT Potential <==

   => Composite Functional: WB97M-V <= 

    wB97M-V Hyb-GGA Exchange-Correlation Functional

    N. Mardirossian and M. Head-Gordon, J. Chem. Phys. 144, 214110 (2016)

    Deriv               =              1
    GGA                 =           TRUE
    Meta                =           TRUE

    Exchange Hybrid     =           TRUE
    MP2 Hybrid          =          FALSE

   => Exchange-Correlation Functionals <=

    1.0000   wB97M-V exchange-correlation functional

   => Exact (HF) Exchange <=

    0.8500            HF,LR [omega = 0.3000]
    0.1500               HF 

   => VV10 Non-Local Parameters <=

    VV10 B              =     6.0000E+00
    VV10 C              =     1.0000E-02

   => Molecular Quadrature <=

    Radial Scheme          =       TREUTLER
    Pruning Scheme         =           FLAT
    Nuclear Scheme         =       TREUTLER

    BS radius alpha        =              1
    Pruning alpha          =              1
    Radial Points          =             75
    Spherical Points       =            302
    Total Points           =          67950
    Total Blocks           =            584
    Max Points             =            256
    Max Functions          =            240

   => Loading Basis Set <=

    Name: (AUG-CC-PV(Q+D)Z AUX)
    Role: JKFIT
    Keyword: DF_BASIS_SCF
    atoms 1-2 entry N          line   248 file /work/zw18965/.conda/envs/p4env/share/psi4/basis/aug-cc-pvqz-jkfit.gbs 
    atoms 3   entry O          line   318 file /work/zw18965/.conda/envs/p4env/share/psi4/basis/aug-cc-pvqz-jkfit.gbs 

  ==> Pre-Iterations <==

   -------------------------------------------------------
    Irrep   Nso     Nmo     Nalpha   Nbeta   Ndocc  Nsocc
   -------------------------------------------------------
     A1        93      93       0       0       0       0
     A2        33      33       0       0       0       0
     B1        57      57       0       0       0       0
     B2        57      57       0       0       0       0
   -------------------------------------------------------
    Total     240     240      11      11      11       0
   -------------------------------------------------------

  ==> Integral Setup <==

  ==> DiskDFJK: Density-Fitted J/K Matrices <==

    J tasked:                  Yes
    K tasked:                  Yes
    wK tasked:                 Yes
    Omega:               3.000E-01
    OpenMP threads:             24
    Integrals threads:          24
    Memory [MiB]:           101953
    Algorithm:                Core
    Integral Cache:           NONE
    Schwarz Cutoff:          1E-12
    Fitting Condition:       1E-10

   => Auxiliary Basis Set <=

  Basis Set: (AUG-CC-PV(Q+D)Z AUX)
    Blend: AUG-CC-PVQZ-JKFIT
    Number of shells: 102
    Number of basis function: 426
    Number of Cartesian functions: 594
    Spherical Harmonics?: true
    Max angular momentum: 5

  Cached 100.0% of DFT collocation blocks in 1.019 [GiB].

  Minimum eigenvalue in the overlap matrix is 1.5954117383E-05.
  Using Symmetric Orthogonalization.

  SCF Guess: Superposition of Atomic Densities via on-the-fly atomic UHF.

  ==> Iterations <==

                           Total Energy        Delta E     RMS |[F,P]|

   @DF-RKS iter SAD:  -184.29736268845525   -1.84297e+02   0.00000e+00 
   @DF-RKS iter   1:  -184.61161089440861   -3.14248e-01   4.05068e-03 DIIS
   @DF-RKS iter   2:  -184.58569043220268    2.59205e-02   4.69240e-03 DIIS
   @DF-RKS iter   3:  -184.69820224855388   -1.12512e-01   7.42556e-04 DIIS
   @DF-RKS iter   4:  -184.70042510870604   -2.22286e-03   4.03314e-04 DIIS
   @DF-RKS iter   5:  -184.70132446792331   -8.99359e-04   5.78983e-05 DIIS
   @DF-RKS iter   6:  -184.70134787424087   -2.34063e-05   1.28267e-05 DIIS
   @DF-RKS iter   7:  -184.70134916824890   -1.29401e-06   2.05686e-06 DIIS
   @DF-RKS iter   8:  -184.70134923306617   -6.48173e-08   3.53744e-07 DIIS
   @DF-RKS iter   9:  -184.70134923475291   -1.68674e-09   6.53130e-08 DIIS
   @DF-RKS iter  10:  -184.70134923480242   -4.95106e-11   1.20873e-08 DIIS
   @DF-RKS iter  11:  -184.70134923480421   -1.79057e-12   1.05540e-09 DIIS
  Energy and wave function converged.


  ==> Post-Iterations <==

    Orbital Energies [Eh]
    ---------------------

    Doubly Occupied:                                                      

       1A1   -19.427627     2A1   -14.738762     3A1   -14.597552  
       4A1    -1.398873     5A1    -1.231676     6A1    -0.721276  
       1B2    -0.695920     1B1    -0.695920     7A1    -0.591598  
       2B1    -0.445645     2B2    -0.445645  

    Virtual:                                                              

       8A1     0.031545     9A1     0.057205     3B1     0.063121  
       3B2     0.063121    10A1     0.099386     4B1     0.100193  
       4B2     0.100193     5B1     0.113871     5B2     0.113871  
      11A1     0.168872     6B1     0.178668     6B2     0.178668  
      12A1     0.208617    13A1     0.229678    14A1     0.260746  
       1A2     0.260749    15A1     0.313716     7B1     0.356883  
       7B2     0.356883    16A1     0.357046     2A2     0.360708  
      17A1     0.360710    18A1     0.421945     8B2     0.456113  
       8B1     0.456113     9B1     0.484342     9B2     0.484342  
      19A1     0.542338    20A1     0.573486     3A2     0.573495  
      10B1     0.589364    10B2     0.589364    21A1     0.597434  
      22A1     0.693194    23A1     0.723085    11B1     0.759006  
      11B2     0.759006    24A1     0.825147    12B1     0.851657  
      12B2     0.851657    25A1     0.853715     4A2     0.853718  
      13B2     0.900235    13B1     0.900235    26A1     0.906316  
       5A2     0.906319    27A1     0.940490    14B1     1.067767  
      14B2     1.067767    15B1     1.068254    15B2     1.068254  
      28A1     1.114031    29A1     1.211485     6A2     1.211489  
      30A1     1.276970    16B1     1.278420    16B2     1.278420  
      31A1     1.305396    17B1     1.438074    17B2     1.438074  
      32A1     1.438203     7A2     1.438204    18B2     1.455932  
      18B1     1.455932    33A1     1.460601    34A1     1.567463  
      19B2     1.618031    19B1     1.618031    35A1     1.627312  
       8A2     1.627312    36A1     1.742626    20B1     1.804781  
      20B2     1.804781    21B2     1.853120    21B1     1.853120  
      37A1     1.861699     9A2     1.943964    38A1     1.943966  
      39A1     2.059969    22B1     2.161360    22B2     2.161360  
      10A2     2.476827    40A1     2.476831    41A1     2.641763  
      11A2     2.641769    23B2     2.644138    23B1     2.644138  
      24B1     2.718806    24B2     2.718806    42A1     2.755077  
      43A1     2.779075    25B2     2.864308    25B1     2.864308  
      26B2     2.882631    26B1     2.882631    12A2     2.886816  
      44A1     2.886821    45A1     2.887698    13A2     2.912968  
      46A1     2.912979    27B2     2.982364    27B1     2.982364  
      47A1     3.007211    14A2     3.007215    28B1     3.083878  
      28B2     3.083878    48A1     3.084987    49A1     3.139490  
      15A2     3.139500    29B1     3.213010    29B2     3.213010  
      50A1     3.290131    30B2     3.462650    30B1     3.462650  
      51A1     3.482221    52A1     3.581543    16A2     3.581554  
      31B2     3.674276    31B1     3.674276    53A1     3.757496  
      54A1     3.790316    17A2     3.790318    32B2     3.914160  
      32B1     3.914160    33B1     3.922173    33B2     3.922173  
      55A1     4.021086    34B1     4.079028    34B2     4.079028  
      56A1     4.201324    18A2     4.201332    57A1     4.365540  
      58A1     4.510504    19A2     4.510506    35B1     4.546549  
      35B2     4.546549    36B2     4.586085    36B1     4.586085  
      59A1     4.940077    60A1     5.151105    20A2     5.151129  
      37B1     5.203178    37B2     5.203178    61A1     5.320996  
      62A1     5.361111    63A1     5.580773    21A2     5.580798  
      38B1     5.869253    38B2     5.869253    64A1     5.898898  
      65A1     6.124675    39B1     6.155226    39B2     6.155226  
      66A1     6.866509    40B1     7.441413    40B2     7.441413  
      67A1     7.530288    22A2     7.530303    23A2     7.672658  
      68A1     7.672702    41B1     7.678194    41B2     7.678194  
      24A2     8.004737    69A1     8.004779    70A1     8.043734  
      42B1     8.186206    42B2     8.186206    71A1     8.310810  
      25A2     8.310824    43B1     8.397614    43B2     8.397614  
      44B1     8.449919    44B2     8.449919    72A1     8.560527  
      45B1     8.673709    45B2     8.673709    46B2     8.800183  
      46B1     8.800183    73A1     8.888255    26A2     8.888273  
      74A1     8.893648    47B2     8.997315    47B1     8.997315  
      75A1     9.272732    27A2     9.280368    76A1     9.280390  
      48B2     9.329371    48B1     9.329371    77A1    10.013801  
      78A1    10.141976    28A2    10.142010    79A1    10.234699  
      29A2    10.234729    30A2    10.269517    80A1    10.269535  
      49B1    10.397514    49B2    10.397514    50B1    10.541276  
      50B2    10.541276    51B2    10.825972    51B1    10.825972  
      52B1    10.979883    52B2    10.979883    81A1    11.078693  
      31A2    11.300413    82A1    11.300416    83A1    11.353523  
      53B1    11.484569    53B2    11.484569    54B2    11.645180  
      54B1    11.645180    55B2    12.156060    55B1    12.156060  
      32A2    12.157288    84A1    12.157300    85A1    12.160717  
      33A2    12.664118    86A1    12.664153    87A1    12.746001  
      56B2    13.466301    56B1    13.466301    88A1    13.622830  
      57B2    14.941410    57B1    14.941410    89A1    15.675124  
      90A1    16.150344    91A1    33.856702    92A1    34.370473  
      93A1    43.110450  

    Final Occupation by Irrep:
             A1    A2    B1    B2 
    DOCC [     7,    0,    2,    2 ]

  @DF-RKS Final Energy:  -184.70134923480421

   => Energetics <=

    Nuclear Repulsion Energy =             62.1525725648962748
    One-Electron Energy =                -373.5480666192782451
    Two-Electron Energy =                 142.8220682685764018
    DFT Exchange-Correlation Energy =     -16.2191197691481790
    Empirical Dispersion Energy =           0.0000000000000000
    VV10 Nonlocal Energy =                  0.0911963201495589
    Total Energy =                       -184.7013492348041837

Computation Completed


Properties will be evaluated at   0.000000,   0.000000,   0.000000 [a0]

Properties computed using the SCF density matrix

  Nuclear Dipole Moment: [e a0]
     X:     0.0000      Y:     0.0000      Z:     0.0088

  Electronic Dipole Moment: [e a0]
     X:     0.0000      Y:     0.0000      Z:    -0.0326

  Dipole Moment: [e a0]
     X:     0.0000      Y:     0.0000      Z:    -0.0237     Total:     0.0237

  Dipole Moment: [D]
     X:     0.0000      Y:     0.0000      Z:    -0.0603     Total:     0.0603


*** tstop() called on bp1-compute00148.data.bp.acrc.priv at Mon Apr 19 16:03:25 2021
Module time:
	user time   =     142.69 seconds =       2.38 minutes
	system time =       5.20 seconds =       0.09 minutes
	total time  =          6 seconds =       0.10 minutes
Total time:
	user time   =     281.40 seconds =       4.69 minutes
	system time =      12.89 seconds =       0.21 minutes
	total time  =         13 seconds =       0.22 minutes

  //>>>>>>>>>>>>>>>>>>>>>>>>>>>>>>>>>>>//
  //    Loading displacement 3 of 5    //
  //<<<<<<<<<<<<<<<<<<<<<<<<<<<<<<<<<<<//

*** tstart() called on bp1-compute00148.data.bp.acrc.priv
*** at Mon Apr 19 16:03:25 2021

   => Loading Basis Set <=

    Name: AUG-CC-PV(Q+D)Z
    Role: ORBITAL
    Keyword: BASIS
    atoms 1-2 entry N          line   379 file /work/zw18965/.conda/envs/p4env/share/psi4/basis/aug-cc-pv_qpd_z.gbs 
    atoms 3   entry O          line   439 file /work/zw18965/.conda/envs/p4env/share/psi4/basis/aug-cc-pv_qpd_z.gbs 


         ---------------------------------------------------------
                                   SCF
               by Justin Turney, Rob Parrish, Andy Simmonett
                          and Daniel G. A. Smith
                              RKS Reference
                       24 Threads, 137329 MiB Core
         ---------------------------------------------------------

  ==> Geometry <==

    Molecular point group: c2v
    Full point group: C_inf_v

    Geometry (in Angstrom), charge = 0, multiplicity = 1:

       Center              X                  Y                   Z               Mass       
    ------------   -----------------  -----------------  -----------------  -----------------
         N            0.000000000000     0.000000000000    -1.172986241474    14.003074004430
         N            0.000000000000     0.000000000000    -0.070055938767    14.003074004430
         O            0.000000000000     0.000000000000     1.088246611785    15.994914619570

  Running in c2v symmetry.

  Rotational constants: A = ************  B =      0.44040  C =      0.44040 [cm^-1]
  Rotational constants: A = ************  B =  13202.86624  C =  13202.86624 [MHz]
  Nuclear repulsion =   62.198941424516292

  Charge       = 0
  Multiplicity = 1
  Electrons    = 22
  Nalpha       = 11
  Nbeta        = 11

  ==> Algorithm <==

  SCF Algorithm Type is DF.
  DIIS enabled.
  MOM disabled.
  Fractional occupation disabled.
  Guess Type is SAD.
  Energy threshold   = 1.00e-08
  Density threshold  = 1.00e-08
  Integral threshold = 0.00e+00

  ==> Primary Basis <==

  Basis Set: AUG-CC-PV(Q+D)Z
    Blend: AUG-CC-PV(Q+D)Z
    Number of shells: 60
    Number of basis function: 240
    Number of Cartesian functions: 315
    Spherical Harmonics?: true
    Max angular momentum: 4

  ==> DFT Potential <==

   => Composite Functional: WB97M-V <= 

    wB97M-V Hyb-GGA Exchange-Correlation Functional

    N. Mardirossian and M. Head-Gordon, J. Chem. Phys. 144, 214110 (2016)

    Deriv               =              1
    GGA                 =           TRUE
    Meta                =           TRUE

    Exchange Hybrid     =           TRUE
    MP2 Hybrid          =          FALSE

   => Exchange-Correlation Functionals <=

    1.0000   wB97M-V exchange-correlation functional

   => Exact (HF) Exchange <=

    0.8500            HF,LR [omega = 0.3000]
    0.1500               HF 

   => VV10 Non-Local Parameters <=

    VV10 B              =     6.0000E+00
    VV10 C              =     1.0000E-02

   => Molecular Quadrature <=

    Radial Scheme          =       TREUTLER
    Pruning Scheme         =           FLAT
    Nuclear Scheme         =       TREUTLER

    BS radius alpha        =              1
    Pruning alpha          =              1
    Radial Points          =             75
    Spherical Points       =            302
    Total Points           =          67950
    Total Blocks           =            586
    Max Points             =            256
    Max Functions          =            240

   => Loading Basis Set <=

    Name: (AUG-CC-PV(Q+D)Z AUX)
    Role: JKFIT
    Keyword: DF_BASIS_SCF
    atoms 1-2 entry N          line   248 file /work/zw18965/.conda/envs/p4env/share/psi4/basis/aug-cc-pvqz-jkfit.gbs 
    atoms 3   entry O          line   318 file /work/zw18965/.conda/envs/p4env/share/psi4/basis/aug-cc-pvqz-jkfit.gbs 

  ==> Pre-Iterations <==

   -------------------------------------------------------
    Irrep   Nso     Nmo     Nalpha   Nbeta   Ndocc  Nsocc
   -------------------------------------------------------
     A1        93      93       0       0       0       0
     A2        33      33       0       0       0       0
     B1        57      57       0       0       0       0
     B2        57      57       0       0       0       0
   -------------------------------------------------------
    Total     240     240      11      11      11       0
   -------------------------------------------------------

  ==> Integral Setup <==

  ==> DiskDFJK: Density-Fitted J/K Matrices <==

    J tasked:                  Yes
    K tasked:                  Yes
    wK tasked:                 Yes
    Omega:               3.000E-01
    OpenMP threads:             24
    Integrals threads:          24
    Memory [MiB]:           101953
    Algorithm:                Core
    Integral Cache:           NONE
    Schwarz Cutoff:          1E-12
    Fitting Condition:       1E-10

   => Auxiliary Basis Set <=

  Basis Set: (AUG-CC-PV(Q+D)Z AUX)
    Blend: AUG-CC-PVQZ-JKFIT
    Number of shells: 102
    Number of basis function: 426
    Number of Cartesian functions: 594
    Spherical Harmonics?: true
    Max angular momentum: 5

  Cached 100.0% of DFT collocation blocks in 1.019 [GiB].

  Minimum eigenvalue in the overlap matrix is 1.5859273732E-05.
  Using Symmetric Orthogonalization.

  SCF Guess: Superposition of Atomic Densities via on-the-fly atomic UHF.

  ==> Iterations <==

                           Total Energy        Delta E     RMS |[F,P]|

   @DF-RKS iter SAD:  -184.30098433583044   -1.84301e+02   0.00000e+00 
   @DF-RKS iter   1:  -184.61157827953400   -3.10594e-01   4.05085e-03 DIIS
   @DF-RKS iter   2:  -184.58655984402108    2.50184e-02   4.67569e-03 DIIS
   @DF-RKS iter   3:  -184.69814515313351   -1.11585e-01   7.36841e-04 DIIS
   @DF-RKS iter   4:  -184.70033098410019   -2.18583e-03   4.00769e-04 DIIS
   @DF-RKS iter   5:  -184.70121815956557   -8.87175e-04   5.81592e-05 DIIS
   @DF-RKS iter   6:  -184.70124172370311   -2.35641e-05   1.28233e-05 DIIS
   @DF-RKS iter   7:  -184.70124301719446   -1.29349e-06   2.05338e-06 DIIS
   @DF-RKS iter   8:  -184.70124308186871   -6.46743e-08   3.52908e-07 DIIS
   @DF-RKS iter   9:  -184.70124308354931   -1.68060e-09   6.49074e-08 DIIS
   @DF-RKS iter  10:  -184.70124308359834   -4.90274e-11   1.19609e-08 DIIS
   @DF-RKS iter  11:  -184.70124308359993   -1.59162e-12   1.04305e-09 DIIS
  Energy and wave function converged.


  ==> Post-Iterations <==

    Orbital Energies [Eh]
    ---------------------

    Doubly Occupied:                                                      

       1A1   -19.427272     2A1   -14.738513     3A1   -14.597249  
       4A1    -1.399010     5A1    -1.232592     6A1    -0.720989  
       1B1    -0.696276     1B2    -0.696276     7A1    -0.591553  
       2B1    -0.445758     2B2    -0.445758  

    Virtual:                                                              

       8A1     0.031561     9A1     0.057209     3B1     0.063303  
       3B2     0.063303    10A1     0.099399     4B1     0.100441  
       4B2     0.100441     5B1     0.114082     5B2     0.114082  
      11A1     0.168887     6B2     0.178738     6B1     0.178738  
      12A1     0.208779    13A1     0.229652    14A1     0.260722  
       1A2     0.260725    15A1     0.313726     7B2     0.356909  
       7B1     0.356909    16A1     0.357670     2A2     0.360677  
      17A1     0.360679    18A1     0.421997     8B2     0.456137  
       8B1     0.456137     9B1     0.484175     9B2     0.484175  
      19A1     0.542544    20A1     0.573603     3A2     0.573611  
      10B1     0.589477    10B2     0.589477    21A1     0.597337  
      22A1     0.693351    23A1     0.723228    11B2     0.759223  
      11B1     0.759223    24A1     0.825233    12B1     0.851649  
      12B2     0.851649    25A1     0.853608     4A2     0.853610  
      13B2     0.900212    13B1     0.900212    26A1     0.906130  
       5A2     0.906133    27A1     0.941352    14B2     1.067840  
      14B1     1.067840    15B2     1.068336    15B1     1.068336  
      28A1     1.115411    29A1     1.211723     6A2     1.211727  
      30A1     1.277356    16B2     1.278608    16B1     1.278608  
      31A1     1.305935    17B2     1.438333    17B1     1.438333  
      32A1     1.438637     7A2     1.438639    18B2     1.456506  
      18B1     1.456506    33A1     1.460639    34A1     1.567655  
      19B2     1.618419    19B1     1.618419    35A1     1.627594  
       8A2     1.627594    36A1     1.743089    20B2     1.805004  
      20B1     1.805004    21B2     1.853103    21B1     1.853103  
      37A1     1.861622     9A2     1.943819    38A1     1.943822  
      39A1     2.060290    22B2     2.160479    22B1     2.160479  
      10A2     2.476684    40A1     2.476687    41A1     2.641566  
      11A2     2.641571    23B1     2.644195    23B2     2.644195  
      24B1     2.718964    24B2     2.718964    42A1     2.754345  
      43A1     2.779967    25B1     2.864299    25B2     2.864299  
      26B2     2.883036    26B1     2.883036    12A2     2.887268  
      44A1     2.887274    45A1     2.888910    13A2     2.912944  
      46A1     2.912955    27B1     2.982528    27B2     2.982528  
      47A1     3.007151    14A2     3.007155    28B2     3.084607  
      28B1     3.084607    48A1     3.086173    49A1     3.140544  
      15A2     3.140554    29B2     3.213512    29B1     3.213512  
      50A1     3.292053    30B2     3.464583    30B1     3.464583  
      51A1     3.482374    52A1     3.581884    16A2     3.581895  
      31B1     3.676018    31B2     3.676018    53A1     3.757474  
      54A1     3.791154    17A2     3.791156    32B2     3.914883  
      32B1     3.914883    33B2     3.922734    33B1     3.922734  
      55A1     4.021975    34B1     4.079447    34B2     4.079447  
      56A1     4.202297    18A2     4.202306    57A1     4.366386  
      58A1     4.512460    19A2     4.512462    35B2     4.547681  
      35B1     4.547681    36B1     4.587479    36B2     4.587479  
      59A1     4.943722    60A1     5.152446    20A2     5.152470  
      37B2     5.202824    37B1     5.202824    61A1     5.321858  
      62A1     5.365195    63A1     5.581798    21A2     5.581823  
      38B2     5.871021    38B1     5.871021    64A1     5.898556  
      65A1     6.128346    39B2     6.154187    39B1     6.154187  
      66A1     6.868559    40B1     7.439922    40B2     7.439922  
      67A1     7.531103    22A2     7.531118    23A2     7.671705  
      68A1     7.671749    41B2     7.678859    41B1     7.678859  
      24A2     8.005714    69A1     8.005755    70A1     8.044593  
      42B1     8.187556    42B2     8.187556    71A1     8.308951  
      25A2     8.308964    43B2     8.398826    43B1     8.398826  
      44B1     8.450613    44B2     8.450613    72A1     8.560547  
      45B2     8.674266    45B1     8.674266    46B2     8.802189  
      46B1     8.802189    73A1     8.888317    26A2     8.888335  
      74A1     8.897765    47B2     9.000509    47B1     9.000509  
      75A1     9.276333    27A2     9.282041    76A1     9.282062  
      48B2     9.329877    48B1     9.329877    77A1    10.017293  
      78A1    10.148399    28A2    10.148433    79A1    10.234993  
      29A2    10.235023    30A2    10.274640    80A1    10.274658  
      49B2    10.403963    49B1    10.403963    50B1    10.541790  
      50B2    10.541790    51B2    10.826615    51B1    10.826615  
      52B2    10.985441    52B1    10.985441    81A1    11.079290  
      31A2    11.304068    82A1    11.304072    83A1    11.357467  
      53B2    11.485128    53B1    11.485128    54B2    11.645791  
      54B1    11.645791    32A2    12.157673    84A1    12.157685  
      55B1    12.162791    55B2    12.162791    85A1    12.166067  
      33A2    12.665286    86A1    12.665322    87A1    12.749310  
      56B2    13.471367    56B1    13.471367    88A1    13.628329  
      57B1    14.948883    57B2    14.948883    89A1    15.683529  
      90A1    16.154452    91A1    33.889803    92A1    34.380019  
      93A1    43.112706  

    Final Occupation by Irrep:
             A1    A2    B1    B2 
    DOCC [     7,    0,    2,    2 ]

  @DF-RKS Final Energy:  -184.70124308359993

   => Energetics <=

    Nuclear Repulsion Energy =             62.1989414245162919
    One-Electron Energy =                -373.6380669853798508
    Two-Electron Energy =                 142.8675662537277162
    DFT Exchange-Correlation Energy =     -16.2208806270148429
    Empirical Dispersion Energy =           0.0000000000000000
    VV10 Nonlocal Energy =                  0.0911968505507632
    Total Energy =                       -184.7012430835999055

Computation Completed


Properties will be evaluated at   0.000000,   0.000000,   0.000000 [a0]

Properties computed using the SCF density matrix

  Nuclear Dipole Moment: [e a0]
     X:     0.0000      Y:     0.0000      Z:     0.0088

  Electronic Dipole Moment: [e a0]
     X:     0.0000      Y:     0.0000      Z:    -0.0352

  Dipole Moment: [e a0]
     X:     0.0000      Y:     0.0000      Z:    -0.0264     Total:     0.0264

  Dipole Moment: [D]
     X:     0.0000      Y:     0.0000      Z:    -0.0670     Total:     0.0670


*** tstop() called on bp1-compute00148.data.bp.acrc.priv at Mon Apr 19 16:03:31 2021
Module time:
	user time   =     131.00 seconds =       2.18 minutes
	system time =       3.72 seconds =       0.06 minutes
	total time  =          6 seconds =       0.10 minutes
Total time:
	user time   =     412.57 seconds =       6.88 minutes
	system time =      16.62 seconds =       0.28 minutes
	total time  =         19 seconds =       0.32 minutes

  //>>>>>>>>>>>>>>>>>>>>>>>>>>>>>>>>>>>//
  //    Loading displacement 4 of 5    //
  //<<<<<<<<<<<<<<<<<<<<<<<<<<<<<<<<<<<//

*** tstart() called on bp1-compute00148.data.bp.acrc.priv
*** at Mon Apr 19 16:03:31 2021

   => Loading Basis Set <=

    Name: AUG-CC-PV(Q+D)Z
    Role: ORBITAL
    Keyword: BASIS
    atoms 1-2 entry N          line   379 file /work/zw18965/.conda/envs/p4env/share/psi4/basis/aug-cc-pv_qpd_z.gbs 
    atoms 3   entry O          line   439 file /work/zw18965/.conda/envs/p4env/share/psi4/basis/aug-cc-pv_qpd_z.gbs 


         ---------------------------------------------------------
                                   SCF
               by Justin Turney, Rob Parrish, Andy Simmonett
                          and Daniel G. A. Smith
                              RKS Reference
                       24 Threads, 137329 MiB Core
         ---------------------------------------------------------

  ==> Geometry <==

    Molecular point group: c2v
    Full point group: C_inf_v

    Geometry (in Angstrom), charge = 0, multiplicity = 1:

       Center              X                  Y                   Z               Mass       
    ------------   -----------------  -----------------  -----------------  -----------------
         N            0.000000000000     0.000000000000    -1.173570054702    14.003074004430
         N            0.000000000000     0.000000000000    -0.070299717134    14.003074004430
         O            0.000000000000     0.000000000000     1.088971143715    15.994914619570

  Running in c2v symmetry.

  Rotational constants: A = ************  B =      0.43988  C =      0.43988 [cm^-1]
  Rotational constants: A = ************  B =  13187.39950  C =  13187.39950 [MHz]
  Nuclear repulsion =   62.162747670200559

  Charge       = 0
  Multiplicity = 1
  Electrons    = 22
  Nalpha       = 11
  Nbeta        = 11

  ==> Algorithm <==

  SCF Algorithm Type is DF.
  DIIS enabled.
  MOM disabled.
  Fractional occupation disabled.
  Guess Type is SAD.
  Energy threshold   = 1.00e-08
  Density threshold  = 1.00e-08
  Integral threshold = 0.00e+00

  ==> Primary Basis <==

  Basis Set: AUG-CC-PV(Q+D)Z
    Blend: AUG-CC-PV(Q+D)Z
    Number of shells: 60
    Number of basis function: 240
    Number of Cartesian functions: 315
    Spherical Harmonics?: true
    Max angular momentum: 4

  ==> DFT Potential <==

   => Composite Functional: WB97M-V <= 

    wB97M-V Hyb-GGA Exchange-Correlation Functional

    N. Mardirossian and M. Head-Gordon, J. Chem. Phys. 144, 214110 (2016)

    Deriv               =              1
    GGA                 =           TRUE
    Meta                =           TRUE

    Exchange Hybrid     =           TRUE
    MP2 Hybrid          =          FALSE

   => Exchange-Correlation Functionals <=

    1.0000   wB97M-V exchange-correlation functional

   => Exact (HF) Exchange <=

    0.8500            HF,LR [omega = 0.3000]
    0.1500               HF 

   => VV10 Non-Local Parameters <=

    VV10 B              =     6.0000E+00
    VV10 C              =     1.0000E-02

   => Molecular Quadrature <=

    Radial Scheme          =       TREUTLER
    Pruning Scheme         =           FLAT
    Nuclear Scheme         =       TREUTLER

    BS radius alpha        =              1
    Pruning alpha          =              1
    Radial Points          =             75
    Spherical Points       =            302
    Total Points           =          67950
    Total Blocks           =            587
    Max Points             =            256
    Max Functions          =            240

   => Loading Basis Set <=

    Name: (AUG-CC-PV(Q+D)Z AUX)
    Role: JKFIT
    Keyword: DF_BASIS_SCF
    atoms 1-2 entry N          line   248 file /work/zw18965/.conda/envs/p4env/share/psi4/basis/aug-cc-pvqz-jkfit.gbs 
    atoms 3   entry O          line   318 file /work/zw18965/.conda/envs/p4env/share/psi4/basis/aug-cc-pvqz-jkfit.gbs 

  ==> Pre-Iterations <==

   -------------------------------------------------------
    Irrep   Nso     Nmo     Nalpha   Nbeta   Ndocc  Nsocc
   -------------------------------------------------------
     A1        93      93       0       0       0       0
     A2        33      33       0       0       0       0
     B1        57      57       0       0       0       0
     B2        57      57       0       0       0       0
   -------------------------------------------------------
    Total     240     240      11      11      11       0
   -------------------------------------------------------

  ==> Integral Setup <==

  ==> DiskDFJK: Density-Fitted J/K Matrices <==

    J tasked:                  Yes
    K tasked:                  Yes
    wK tasked:                 Yes
    Omega:               3.000E-01
    OpenMP threads:             24
    Integrals threads:          24
    Memory [MiB]:           101953
    Algorithm:                Core
    Integral Cache:           NONE
    Schwarz Cutoff:          1E-12
    Fitting Condition:       1E-10

   => Auxiliary Basis Set <=

  Basis Set: (AUG-CC-PV(Q+D)Z AUX)
    Blend: AUG-CC-PVQZ-JKFIT
    Number of shells: 102
    Number of basis function: 426
    Number of Cartesian functions: 594
    Spherical Harmonics?: true
    Max angular momentum: 5

  Cached 100.0% of DFT collocation blocks in 1.019 [GiB].

  Minimum eigenvalue in the overlap matrix is 1.5891918065E-05.
  Using Symmetric Orthogonalization.

  SCF Guess: Superposition of Atomic Densities via on-the-fly atomic UHF.

  ==> Iterations <==

                           Total Energy        Delta E     RMS |[F,P]|

   @DF-RKS iter SAD:  -184.29788139559861   -1.84298e+02   0.00000e+00 
   @DF-RKS iter   1:  -184.61169802105738   -3.13817e-01   4.05020e-03 DIIS
   @DF-RKS iter   2:  -184.58647829796334    2.52197e-02   4.67993e-03 DIIS
   @DF-RKS iter   3:  -184.69826502335940   -1.11787e-01   7.34021e-04 DIIS
   @DF-RKS iter   4:  -184.70042586802592   -2.16084e-03   4.01129e-04 DIIS
   @DF-RKS iter   5:  -184.70131508960523   -8.89222e-04   5.81983e-05 DIIS
   @DF-RKS iter   6:  -184.70133872985539   -2.36403e-05   1.28708e-05 DIIS
   @DF-RKS iter   7:  -184.70134003464739   -1.30479e-06   2.06868e-06 DIIS
   @DF-RKS iter   8:  -184.70134010023747   -6.55901e-08   3.55123e-07 DIIS
   @DF-RKS iter   9:  -184.70134010194064   -1.70317e-09   6.52356e-08 DIIS
   @DF-RKS iter  10:  -184.70134010199038   -4.97380e-11   1.20252e-08 DIIS
   @DF-RKS iter  11:  -184.70134010199169   -1.30740e-12   1.04768e-09 DIIS
  Energy and wave function converged.


  ==> Post-Iterations <==

    Orbital Energies [Eh]
    ---------------------

    Doubly Occupied:                                                      

       1A1   -19.427281     2A1   -14.738597     3A1   -14.597576  
       4A1    -1.398309     5A1    -1.232333     6A1    -0.720987  
       1B2    -0.695914     1B1    -0.695914     7A1    -0.591710  
       2B2    -0.445759     2B1    -0.445759  

    Virtual:                                                              

       8A1     0.031552     9A1     0.057195     3B2     0.063185  
       3B1     0.063185    10A1     0.099394     4B2     0.100298  
       4B1     0.100298     5B2     0.113964     5B1     0.113964  
      11A1     0.168888     6B1     0.178708     6B2     0.178708  
      12A1     0.208592    13A1     0.229616    14A1     0.260720  
       1A2     0.260722    15A1     0.313713     7B2     0.356930  
       7B1     0.356930    16A1     0.357001     2A2     0.360673  
      17A1     0.360675    18A1     0.421837     8B1     0.456147  
       8B2     0.456147     9B1     0.484183     9B2     0.484183  
      19A1     0.542480    20A1     0.573606     3A2     0.573615  
      10B2     0.589486    10B1     0.589486    21A1     0.597303  
      22A1     0.693224    23A1     0.723174    11B1     0.759116  
      11B2     0.759116    24A1     0.825258    12B1     0.851627  
      12B2     0.851627    25A1     0.853625     4A2     0.853628  
      13B1     0.900268    13B2     0.900268    26A1     0.906178  
       5A2     0.906181    27A1     0.940733    14B1     1.067789  
      14B2     1.067789    15B2     1.068129    15B1     1.068129  
      28A1     1.114876    29A1     1.211557     6A2     1.211560  
      30A1     1.277055    16B1     1.278595    16B2     1.278595  
      31A1     1.305843    17B2     1.438165    17B1     1.438165  
      32A1     1.438609     7A2     1.438610    18B1     1.456331  
      18B2     1.456331    33A1     1.460369    34A1     1.567448  
      19B1     1.618104    19B2     1.618104    35A1     1.627408  
       8A2     1.627409    36A1     1.743235    20B2     1.804628  
      20B1     1.804628    21B2     1.853399    21B1     1.853399  
      37A1     1.862087     9A2     1.943820    38A1     1.943822  
      39A1     2.059759    22B1     2.160836    22B2     2.160836  
      10A2     2.476673    40A1     2.476676    41A1     2.641500  
      11A2     2.641505    23B2     2.644124    23B1     2.644124  
      24B1     2.718872    24B2     2.718872    42A1     2.754273  
      43A1     2.779455    25B2     2.864215    25B1     2.864215  
      26B1     2.882927    26B2     2.882927    12A2     2.887164  
      44A1     2.887169    45A1     2.887832    13A2     2.913092  
      46A1     2.913103    27B1     2.982268    27B2     2.982268  
      47A1     3.006770    14A2     3.006774    28B1     3.084171  
      28B2     3.084171    48A1     3.086125    49A1     3.140027  
      15A2     3.140037    29B1     3.212674    29B2     3.212674  
      50A1     3.290625    30B1     3.463281    30B2     3.463281  
      51A1     3.482810    52A1     3.581606    16A2     3.581617  
      31B1     3.675357    31B2     3.675357    53A1     3.757697  
      54A1     3.791180    17A2     3.791182    32B1     3.914918  
      32B2     3.914918    33B1     3.922476    33B2     3.922476  
      55A1     4.021368    34B1     4.079795    34B2     4.079795  
      56A1     4.201634    18A2     4.201642    57A1     4.365732  
      58A1     4.511292    19A2     4.511294    35B1     4.546544  
      35B2     4.546544    36B1     4.585809    36B2     4.585809  
      59A1     4.941234    60A1     5.151869    20A2     5.151892  
      37B1     5.203489    37B2     5.203489    61A1     5.319474  
      62A1     5.364515    63A1     5.580044    21A2     5.580069  
      38B1     5.869130    38B2     5.869130    64A1     5.896720  
      65A1     6.125510    39B1     6.153646    39B2     6.153646  
      66A1     6.870380    40B2     7.440161    40B1     7.440161  
      67A1     7.530656    22A2     7.530672    23A2     7.671869  
      68A1     7.671913    41B1     7.678239    41B2     7.678239  
      24A2     8.005415    69A1     8.005456    70A1     8.044092  
      42B1     8.186067    42B2     8.186067    71A1     8.309614  
      25A2     8.309627    43B1     8.397571    43B2     8.397571  
      44B2     8.450828    44B1     8.450828    72A1     8.559716  
      45B2     8.673979    45B1     8.673979    46B1     8.800674  
      46B2     8.800674    73A1     8.888395    26A2     8.888412  
      74A1     8.895084    47B1     8.999768    47B2     8.999768  
      75A1     9.275810    27A2     9.280972    76A1     9.280993  
      48B1     9.330453    48B2     9.330453    77A1    10.014158  
      78A1    10.146359    28A2    10.146392    79A1    10.235059  
      29A2    10.235089    30A2    10.272593    80A1    10.272611  
      49B1    10.400437    49B2    10.400437    50B1    10.540770  
      50B2    10.540770    51B1    10.825987    51B2    10.825987  
      52B1    10.983681    52B2    10.983681    81A1    11.079549  
      31A2    11.300694    82A1    11.300697    83A1    11.354572  
      53B2    11.484716    53B1    11.484716    54B2    11.646328  
      54B1    11.646328    32A2    12.156649    84A1    12.156661  
      55B1    12.159306    55B2    12.159306    85A1    12.161179  
      33A2    12.663067    86A1    12.663102    87A1    12.746028  
      56B1    13.466024    56B2    13.466024    88A1    13.627118  
      57B1    14.939693    57B2    14.939693    89A1    15.674948  
      90A1    16.149625    91A1    33.878726    92A1    34.374339  
      93A1    43.105612  

    Final Occupation by Irrep:
             A1    A2    B1    B2 
    DOCC [     7,    0,    2,    2 ]

  @DF-RKS Final Energy:  -184.70134010199169

   => Energetics <=

    Nuclear Repulsion Energy =             62.1627476702005595
    One-Electron Energy =                -373.5687349793549856
    Two-Electron Energy =                 142.8332183183301822
    DFT Exchange-Correlation Energy =     -16.2197683583582482
    Empirical Dispersion Energy =           0.0000000000000000
    VV10 Nonlocal Energy =                  0.0911972471907757
    Total Energy =                       -184.7013401019916898

Computation Completed


Properties will be evaluated at   0.000000,   0.000000,   0.000000 [a0]

Properties computed using the SCF density matrix

  Nuclear Dipole Moment: [e a0]
     X:     0.0000      Y:     0.0000      Z:     0.0088

  Electronic Dipole Moment: [e a0]
     X:     0.0000      Y:     0.0000      Z:    -0.0375

  Dipole Moment: [e a0]
     X:     0.0000      Y:     0.0000      Z:    -0.0287     Total:     0.0287

  Dipole Moment: [D]
     X:     0.0000      Y:     0.0000      Z:    -0.0729     Total:     0.0729


*** tstop() called on bp1-compute00148.data.bp.acrc.priv at Mon Apr 19 16:03:38 2021
Module time:
	user time   =     144.29 seconds =       2.40 minutes
	system time =       4.74 seconds =       0.08 minutes
	total time  =          7 seconds =       0.12 minutes
Total time:
	user time   =     557.01 seconds =       9.28 minutes
	system time =      21.36 seconds =       0.36 minutes
	total time  =         26 seconds =       0.43 minutes

  //>>>>>>>>>>>>>>>>>>>>>>>>>>>>>>>>>>>//
  //    Loading displacement 5 of 5    //
  //<<<<<<<<<<<<<<<<<<<<<<<<<<<<<<<<<<<//

*** tstart() called on bp1-compute00148.data.bp.acrc.priv
*** at Mon Apr 19 16:03:38 2021

   => Loading Basis Set <=

    Name: AUG-CC-PV(Q+D)Z
    Role: ORBITAL
    Keyword: BASIS
    atoms 1-2 entry N          line   379 file /work/zw18965/.conda/envs/p4env/share/psi4/basis/aug-cc-pv_qpd_z.gbs 
    atoms 3   entry O          line   439 file /work/zw18965/.conda/envs/p4env/share/psi4/basis/aug-cc-pv_qpd_z.gbs 


         ---------------------------------------------------------
                                   SCF
               by Justin Turney, Rob Parrish, Andy Simmonett
                          and Daniel G. A. Smith
                              RKS Reference
                       24 Threads, 137329 MiB Core
         ---------------------------------------------------------

  ==> Geometry <==

    Molecular point group: c2v
    Full point group: C_inf_v

    Geometry (in Angstrom), charge = 0, multiplicity = 1:

       Center              X                  Y                   Z               Mass       
    ------------   -----------------  -----------------  -----------------  -----------------
         N            0.000000000000     0.000000000000    -1.173570054702    14.003074004430
         N            0.000000000000     0.000000000000    -0.069267111867    14.003074004430
         O            0.000000000000     0.000000000000     1.088067128388    15.994914619570

  Running in c2v symmetry.

  Rotational constants: A = ************  B =      0.44027  C =      0.44027 [cm^-1]
  Rotational constants: A = ************  B =  13198.93644  C =  13198.93644 [MHz]
  Nuclear repulsion =   62.188781370194690

  Charge       = 0
  Multiplicity = 1
  Electrons    = 22
  Nalpha       = 11
  Nbeta        = 11

  ==> Algorithm <==

  SCF Algorithm Type is DF.
  DIIS enabled.
  MOM disabled.
  Fractional occupation disabled.
  Guess Type is SAD.
  Energy threshold   = 1.00e-08
  Density threshold  = 1.00e-08
  Integral threshold = 0.00e+00

  ==> Primary Basis <==

  Basis Set: AUG-CC-PV(Q+D)Z
    Blend: AUG-CC-PV(Q+D)Z
    Number of shells: 60
    Number of basis function: 240
    Number of Cartesian functions: 315
    Spherical Harmonics?: true
    Max angular momentum: 4

  ==> DFT Potential <==

   => Composite Functional: WB97M-V <= 

    wB97M-V Hyb-GGA Exchange-Correlation Functional

    N. Mardirossian and M. Head-Gordon, J. Chem. Phys. 144, 214110 (2016)

    Deriv               =              1
    GGA                 =           TRUE
    Meta                =           TRUE

    Exchange Hybrid     =           TRUE
    MP2 Hybrid          =          FALSE

   => Exchange-Correlation Functionals <=

    1.0000   wB97M-V exchange-correlation functional

   => Exact (HF) Exchange <=

    0.8500            HF,LR [omega = 0.3000]
    0.1500               HF 

   => VV10 Non-Local Parameters <=

    VV10 B              =     6.0000E+00
    VV10 C              =     1.0000E-02

   => Molecular Quadrature <=

    Radial Scheme          =       TREUTLER
    Pruning Scheme         =           FLAT
    Nuclear Scheme         =       TREUTLER

    BS radius alpha        =              1
    Pruning alpha          =              1
    Radial Points          =             75
    Spherical Points       =            302
    Total Points           =          67950
    Total Blocks           =            583
    Max Points             =            256
    Max Functions          =            240

   => Loading Basis Set <=

    Name: (AUG-CC-PV(Q+D)Z AUX)
    Role: JKFIT
    Keyword: DF_BASIS_SCF
    atoms 1-2 entry N          line   248 file /work/zw18965/.conda/envs/p4env/share/psi4/basis/aug-cc-pvqz-jkfit.gbs 
    atoms 3   entry O          line   318 file /work/zw18965/.conda/envs/p4env/share/psi4/basis/aug-cc-pvqz-jkfit.gbs 

  ==> Pre-Iterations <==

   -------------------------------------------------------
    Irrep   Nso     Nmo     Nalpha   Nbeta   Ndocc  Nsocc
   -------------------------------------------------------
     A1        93      93       0       0       0       0
     A2        33      33       0       0       0       0
     B1        57      57       0       0       0       0
     B2        57      57       0       0       0       0
   -------------------------------------------------------
    Total     240     240      11      11      11       0
   -------------------------------------------------------

  ==> Integral Setup <==

  ==> DiskDFJK: Density-Fitted J/K Matrices <==

    J tasked:                  Yes
    K tasked:                  Yes
    wK tasked:                 Yes
    Omega:               3.000E-01
    OpenMP threads:             24
    Integrals threads:          24
    Memory [MiB]:           101953
    Algorithm:                Core
    Integral Cache:           NONE
    Schwarz Cutoff:          1E-12
    Fitting Condition:       1E-10

   => Auxiliary Basis Set <=

  Basis Set: (AUG-CC-PV(Q+D)Z AUX)
    Blend: AUG-CC-PVQZ-JKFIT
    Number of shells: 102
    Number of basis function: 426
    Number of Cartesian functions: 594
    Spherical Harmonics?: true
    Max angular momentum: 5

  Cached 100.0% of DFT collocation blocks in 1.019 [GiB].

  Minimum eigenvalue in the overlap matrix is 1.5921409191E-05.
  Using Symmetric Orthogonalization.

  SCF Guess: Superposition of Atomic Densities via on-the-fly atomic UHF.

  ==> Iterations <==

                           Total Energy        Delta E     RMS |[F,P]|

   @DF-RKS iter SAD:  -184.30046853292788   -1.84300e+02   0.00000e+00 
   @DF-RKS iter   1:  -184.61149012030762   -3.11022e-01   4.05134e-03 DIIS
   @DF-RKS iter   2:  -184.58576935593328    2.57208e-02   4.68820e-03 DIIS
   @DF-RKS iter   3:  -184.69808178986318   -1.12312e-01   7.45369e-04 DIIS
   @DF-RKS iter   4:  -184.70033002161645   -2.24823e-03   4.02913e-04 DIIS
   @DF-RKS iter   5:  -184.70122712713928   -8.97106e-04   5.78633e-05 DIIS
   @DF-RKS iter   6:  -184.70125046092042   -2.33338e-05   1.27796e-05 DIIS
   @DF-RKS iter   7:  -184.70125174377483   -1.28285e-06   2.04164e-06 DIIS
   @DF-RKS iter   8:  -184.70125180768747   -6.39126e-08   3.51523e-07 DIIS
   @DF-RKS iter   9:  -184.70125180935247   -1.66500e-09   6.49812e-08 DIIS
   @DF-RKS iter  10:  -184.70125180940124   -4.87717e-11   1.20225e-08 DIIS
   @DF-RKS iter  11:  -184.70125180940289   -1.64846e-12   1.05067e-09 DIIS
  Energy and wave function converged.


  ==> Post-Iterations <==

    Orbital Energies [Eh]
    ---------------------

    Doubly Occupied:                                                      

       1A1   -19.427618     2A1   -14.738678     3A1   -14.597226  
       4A1    -1.399578     5A1    -1.231932     6A1    -0.721279  
       1B2    -0.696285     1B1    -0.696285     7A1    -0.591441  
       2B1    -0.445643     2B2    -0.445643  

    Virtual:                                                              

       8A1     0.031554     9A1     0.057219     3B2     0.063240  
       3B1     0.063240    10A1     0.099391     4B2     0.100337  
       4B1     0.100337     5B1     0.113987     5B2     0.113987  
      11A1     0.168872     6B2     0.178697     6B1     0.178697  
      12A1     0.208803    13A1     0.229714    14A1     0.260748  
       1A2     0.260751    15A1     0.313729     7B1     0.356861  
       7B2     0.356861    16A1     0.357714     2A2     0.360712  
      17A1     0.360714    18A1     0.422106     8B2     0.456104  
       8B1     0.456104     9B2     0.484335     9B1     0.484335  
      19A1     0.542402    20A1     0.573482     3A2     0.573491  
      10B2     0.589354    10B1     0.589354    21A1     0.597468  
      22A1     0.693321    23A1     0.723139    11B1     0.759113  
      11B2     0.759113    24A1     0.825124    12B2     0.851680  
      12B1     0.851680    25A1     0.853698     4A2     0.853700  
      13B2     0.900179    13B1     0.900179    26A1     0.906268  
       5A2     0.906271    27A1     0.941115    14B1     1.067818  
      14B2     1.067818    15B2     1.068461    15B1     1.068461  
      28A1     1.114565    29A1     1.211651     6A2     1.211655  
      30A1     1.277270    16B2     1.278431    16B1     1.278431  
      31A1     1.305489    32A1     1.438232     7A2     1.438233  
      17B1     1.438242    17B2     1.438242    18B1     1.456107  
      18B2     1.456107    33A1     1.460869    34A1     1.567671  
      19B1     1.618347    19B2     1.618347    35A1     1.627498  
       8A2     1.627499    36A1     1.742479    20B2     1.805159  
      20B1     1.805159    21B1     1.852824    21B2     1.852824  
      37A1     1.861235     9A2     1.943962    38A1     1.943964  
      39A1     2.060501    22B2     2.161001    22B1     2.161001  
      10A2     2.476838    40A1     2.476841    41A1     2.641829  
      11A2     2.641834    23B1     2.644209    23B2     2.644209  
      24B1     2.718901    24B2     2.718901    42A1     2.755153  
      43A1     2.779577    25B1     2.864394    25B2     2.864394  
      26B1     2.882741    26B2     2.882741    12A2     2.886921  
      44A1     2.886926    45A1     2.888777    13A2     2.912819  
      46A1     2.912830    27B1     2.982623    27B2     2.982623  
      47A1     3.007596    14A2     3.007600    28B1     3.084314  
      28B2     3.084314    48A1     3.085032    49A1     3.140004  
      15A2     3.140014    29B1     3.213843    29B2     3.213843  
      50A1     3.291558    30B2     3.463954    30B1     3.463954  
      51A1     3.481788    52A1     3.581821    16A2     3.581832  
      31B1     3.674935    31B2     3.674935    53A1     3.757274  
      54A1     3.790290    17A2     3.790292    32B2     3.914123  
      32B1     3.914123    33B2     3.922431    33B1     3.922431  
      55A1     4.021694    34B1     4.078687    34B2     4.078687  
      56A1     4.201986    18A2     4.201995    57A1     4.366197  
      58A1     4.511670    19A2     4.511672    35B2     4.547691  
      35B1     4.547691    36B1     4.587757    36B2     4.587757  
      59A1     4.942558    60A1     5.151687    20A2     5.151711  
      37B1     5.202515    37B2     5.202515    61A1     5.323373  
      62A1     5.361802    63A1     5.582521    21A2     5.582546  
      38B1     5.871133    38B2     5.871133    64A1     5.900737  
      65A1     6.127518    39B2     6.155766    39B1     6.155766  
      66A1     6.864677    40B2     7.441173    40B1     7.441173  
      67A1     7.530732    22A2     7.530747    23A2     7.672495  
      68A1     7.672539    41B2     7.678815    41B1     7.678815  
      24A2     8.005036    69A1     8.005077    70A1     8.044231  
      42B1     8.187690    42B2     8.187690    71A1     8.310152  
      25A2     8.310166    43B1     8.398868    43B2     8.398868  
      44B2     8.449707    44B1     8.449707    72A1     8.561357  
      45B1     8.673994    45B2     8.673994    46B1     8.801704  
      46B2     8.801704    73A1     8.888181    26A2     8.888199  
      74A1     8.896361    47B2     8.998053    47B1     8.998053  
      75A1     9.273235    27A2     9.281436    76A1     9.281457  
      48B1     9.328795    48B2     9.328795    77A1    10.016941  
      78A1    10.144014    28A2    10.144048    79A1    10.234633  
      29A2    10.234662    30A2    10.271572    80A1    10.271590  
      49B1    10.401038    49B2    10.401038    50B2    10.542298  
      50B1    10.542298    51B2    10.826601    51B1    10.826601  
      52B1    10.981643    52B2    10.981643    81A1    11.078456  
      31A2    11.303776    82A1    11.303779    83A1    11.356401  
      53B2    11.484983    53B1    11.484983    54B1    11.644625  
      54B2    11.644625    32A2    12.158317    84A1    12.158328  
      55B1    12.159571    55B2    12.159571    85A1    12.165609  
      33A2    12.666342    86A1    12.666378    87A1    12.749275  
      56B1    13.471648    56B2    13.471648    88A1    13.624027  
      57B1    14.950599    57B2    14.950599    89A1    15.683698  
      90A1    16.155168    91A1    33.867751    92A1    34.376210  
      93A1    43.117605  

    Final Occupation by Irrep:
             A1    A2    B1    B2 
    DOCC [     7,    0,    2,    2 ]

  @DF-RKS Final Energy:  -184.70125180940289

   => Energetics <=

    Nuclear Repulsion Energy =             62.1887813701946897
    One-Electron Energy =                -373.6174213143100928
    Two-Electron Energy =                 142.8564252112127519
    DFT Exchange-Correlation Energy =     -16.2202330015855729
    Empirical Dispersion Energy =           0.0000000000000000
    VV10 Nonlocal Energy =                  0.0911959250853074
    Total Energy =                       -184.7012518094028906

Computation Completed


Properties will be evaluated at   0.000000,   0.000000,   0.000000 [a0]

Properties computed using the SCF density matrix

  Nuclear Dipole Moment: [e a0]
     X:     0.0000      Y:     0.0000      Z:     0.0088

  Electronic Dipole Moment: [e a0]
     X:     0.0000      Y:     0.0000      Z:    -0.0303

  Dipole Moment: [e a0]
     X:     0.0000      Y:     0.0000      Z:    -0.0214     Total:     0.0214

  Dipole Moment: [D]
     X:     0.0000      Y:     0.0000      Z:    -0.0544     Total:     0.0544


*** tstop() called on bp1-compute00148.data.bp.acrc.priv at Mon Apr 19 16:03:43 2021
Module time:
	user time   =     126.18 seconds =       2.10 minutes
	system time =       3.09 seconds =       0.05 minutes
	total time  =          5 seconds =       0.08 minutes
Total time:
	user time   =     683.32 seconds =      11.39 minutes
	system time =      24.45 seconds =       0.41 minutes
	total time  =         31 seconds =       0.52 minutes

         ----------------------------------------------------------
                                   FINDIF
                     R. A. King and Jonathon Misiewicz
         ---------------------------------------------------------

  Computing gradient from energies.
    Using 3-point formula.
    Energy without displacement: -184.7012980562
    Check energies below for precision!
    Forces are for mass-weighted, symmetry-adapted cartesians (in au).

     Coord      Energy(-1)        Energy(+1)            Force
        0   -184.7013492348   -184.7012430836      0.0106151204
        1   -184.7013401020   -184.7012518094      0.0088292589


-------------------------------------------------------------
  ## New Matrix (Symmetry 0) ##
  Irrep: 1 Size: 3 x 3

                 1                   2                   3

    1     0.00000000000000     0.00000000000000     0.03279828257227
    2     0.00000000000000     0.00000000000000     0.00881549839007
    3     0.00000000000000     0.00000000000000    -0.04161378096233




			-----------------------------------------
			 OPTKING 2.0: for geometry optimizations 
			  - R.A. King,  Bethel University        
			-----------------------------------------

	Internal coordinates to be generated automatically.
	Detected frag 1 with atoms:  1 2 3
	---Fragment 1 Bond Connectivity---
	 1 : 2
	 2 : 1 3
	 3 : 2

	---Fragment 1 Geometry and Gradient---
	 N           0.0000000000        0.0000000000       -2.2177259924
	 N           0.0000000000        0.0000000000       -0.1318715415
	 O           0.0000000000        0.0000000000        2.0570030495
	             0.0000000000        0.0000000000        0.0327982826
	             0.0000000000        0.0000000000        0.0088154984
	             0.0000000000        0.0000000000       -0.0416137810

	Previous optimization step data not found.  Starting new optimization.

	---Fragment 1 Intrafragment Coordinates---
	 - Coordinate -           - BOHR/RAD -       - ANG/DEG -
	 R(1,2)           =         2.085854	       1.103787
	 R(2,3)           =         2.188875	       1.158303
	 L(1,2,3)         =         3.141593	     180.000000
	 l(1,2,3)         =         3.141593	     180.000000

	Current energy   :      -184.7012980562

	Generating empirical Hessian (Schlegel '84) for each fragment.
	Taking RFO optimization step.
	Going to follow RFO solution 1.
	Using RFO vector 1.
	Norm of target step-size    0.03739
	Projected energy change by RFO approximation:        -0.0019598142

	Back-transformation to cartesian coordinates...
	Successfully converged to displaced geometry.

	--- Internal Coordinate Step in ANG or DEG, aJ/ANG or AJ/DEG ---
	 ---------------------------------------------------------------------------
	   Coordinate                Previous        Force       Change         New 
	   ----------                --------       ------       ------       ------
	    1 R(1,2)          =      1.103787     0.270216     0.010024     1.113810
	    2 R(2,3)          =      1.158303     0.342844     0.017056     1.175359
	    3 L(1,2,3)        =    180.000000     0.000000     0.000000   180.000000
	    4 l(1,2,3)        =    180.000000     0.000000     0.000000   180.000000
	 ---------------------------------------------------------------------------
	Successfully symmetrized geometry.

  ==> Convergence Check <==

  Measures of convergence in internal coordinates in au.
  Criteria marked as inactive (o), active & met (*), and active & unmet ( ).
  --------------------------------------------------------------------------------------------- ~
   Step     Total Energy     Delta E     MAX Force     RMS Force      MAX Disp      RMS Disp    ~
  --------------------------------------------------------------------------------------------- ~
    Convergence Criteria    1.00e-06 *    3.00e-04 *             o    1.20e-03 *             o  ~
  --------------------------------------------------------------------------------------------- ~
      1    -184.70129806   -1.85e+02      4.16e-02      2.65e-02 o    3.22e-02      1.87e-02 o  ~
  ---------------------------------------------------------------------------------------------

	Writing optimization data to binary file.
	Structure for next step:
	Cartesian Geometry (in Angstrom)
	    N    -0.0000000000  -0.0000000000  -1.1859379167
	    N     0.0000000000   0.0000000000  -0.0721276884
	    O    -0.0000000000  -0.0000000000   1.1032312725
			--------------------------
			 OPTKING Finished Execution 
			--------------------------

    Structure for next step:
    Molecular point group: c2v
    Full point group: C_inf_v

    Geometry (in Angstrom), charge = 0, multiplicity = 1:

    N           -0.000000000000     0.000000000000    -1.186603910682
    N            0.000000000000    -0.000000000000    -0.072793678080
    O           -0.000000000000     0.000000000000     1.102565287524

gradient() will perform gradient computation by finite difference of analytic energies.

         ----------------------------------------------------------
                                   FINDIF
                     R. A. King and Jonathon Misiewicz
         ---------------------------------------------------------

  Using finite-differences of energies to determine gradients.
    Generating geometries for use with 3-point formula.
    Displacement size will be 5.00e-03.
    Number of atoms is 3.
    Number of symmetric SALCs is 2.
    Translations projected? 1. Rotations projected? 1.
    Number of geometries (including reference) is 5.

  //>>>>>>>>>>>>>>>>>>>>>>>>>>>>>>>>>>>//
  //    Loading displacement 1 of 5    //
  //<<<<<<<<<<<<<<<<<<<<<<<<<<<<<<<<<<<//

*** tstart() called on bp1-compute00148.data.bp.acrc.priv
*** at Mon Apr 19 16:03:43 2021

   => Loading Basis Set <=

    Name: AUG-CC-PV(Q+D)Z
    Role: ORBITAL
    Keyword: BASIS
    atoms 1-2 entry N          line   379 file /work/zw18965/.conda/envs/p4env/share/psi4/basis/aug-cc-pv_qpd_z.gbs 
    atoms 3   entry O          line   439 file /work/zw18965/.conda/envs/p4env/share/psi4/basis/aug-cc-pv_qpd_z.gbs 


         ---------------------------------------------------------
                                   SCF
               by Justin Turney, Rob Parrish, Andy Simmonett
                          and Daniel G. A. Smith
                              RKS Reference
                       24 Threads, 137329 MiB Core
         ---------------------------------------------------------

  ==> Geometry <==

    Molecular point group: c2v
    Full point group: C_inf_v

    Geometry (in Angstrom), charge = 0, multiplicity = 1:

       Center              X                  Y                   Z               Mass       
    ------------   -----------------  -----------------  -----------------  -----------------
         N            0.000000000000    -0.000000000000    -1.186603910682    14.003074004430
         N           -0.000000000000     0.000000000000    -0.072793678080    14.003074004430
         O            0.000000000000    -0.000000000000     1.102565287524    15.994914619570

  Running in c2v symmetry.

  Rotational constants: A = ************  B =      0.42966  C =      0.42966 [cm^-1]
  Rotational constants: A = ************  B =  12880.77017  C =  12880.77017 [MHz]
  Nuclear repulsion =   61.438095312587222

  Charge       = 0
  Multiplicity = 1
  Electrons    = 22
  Nalpha       = 11
  Nbeta        = 11

  ==> Algorithm <==

  SCF Algorithm Type is DF.
  DIIS enabled.
  MOM disabled.
  Fractional occupation disabled.
  Guess Type is READ.
  Energy threshold   = 1.00e-08
  Density threshold  = 1.00e-08
  Integral threshold = 0.00e+00

  ==> Primary Basis <==

  Basis Set: AUG-CC-PV(Q+D)Z
    Blend: AUG-CC-PV(Q+D)Z
    Number of shells: 60
    Number of basis function: 240
    Number of Cartesian functions: 315
    Spherical Harmonics?: true
    Max angular momentum: 4

  ==> DFT Potential <==

   => Composite Functional: WB97M-V <= 

    wB97M-V Hyb-GGA Exchange-Correlation Functional

    N. Mardirossian and M. Head-Gordon, J. Chem. Phys. 144, 214110 (2016)

    Deriv               =              1
    GGA                 =           TRUE
    Meta                =           TRUE

    Exchange Hybrid     =           TRUE
    MP2 Hybrid          =          FALSE

   => Exchange-Correlation Functionals <=

    1.0000   wB97M-V exchange-correlation functional

   => Exact (HF) Exchange <=

    0.8500            HF,LR [omega = 0.3000]
    0.1500               HF 

   => VV10 Non-Local Parameters <=

    VV10 B              =     6.0000E+00
[...]
    Spherical Harmonics?: true
    Max angular momentum: 4

  ==> DFT Potential <==

   => Composite Functional: WB97M-V <= 

    wB97M-V Hyb-GGA Exchange-Correlation Functional

    N. Mardirossian and M. Head-Gordon, J. Chem. Phys. 144, 214110 (2016)

    Deriv               =              1
    GGA                 =           TRUE
    Meta                =           TRUE

    Exchange Hybrid     =           TRUE
    MP2 Hybrid          =          FALSE

   => Exchange-Correlation Functionals <=

    1.0000   wB97M-V exchange-correlation functional

   => Exact (HF) Exchange <=

    0.8500            HF,LR [omega = 0.3000]
    0.1500               HF 

   => VV10 Non-Local Parameters <=

    VV10 B              =     6.0000E+00
    VV10 C              =     1.0000E-02

   => Molecular Quadrature <=

    Radial Scheme          =       TREUTLER
    Pruning Scheme         =           FLAT
    Nuclear Scheme         =       TREUTLER

    BS radius alpha        =              1
    Pruning alpha          =              1
    Radial Points          =             75
    Spherical Points       =            302
    Total Points           =          67950
    Total Blocks           =            580
    Max Points             =            256
    Max Functions          =            240

   => Loading Basis Set <=

    Name: (AUG-CC-PV(Q+D)Z AUX)
    Role: JKFIT
    Keyword: DF_BASIS_SCF
    atoms 1-2 entry N          line   248 file /work/zw18965/.conda/envs/p4env/share/psi4/basis/aug-cc-pvqz-jkfit.gbs 
    atoms 3   entry O          line   318 file /work/zw18965/.conda/envs/p4env/share/psi4/basis/aug-cc-pvqz-jkfit.gbs 

  ==> Pre-Iterations <==

   -------------------------------------------------------
    Irrep   Nso     Nmo     Nalpha   Nbeta   Ndocc  Nsocc
   -------------------------------------------------------
     A'       150     150       0       0       0       0
     A"        90      90       0       0       0       0
   -------------------------------------------------------
    Total     240     240      11      11      11       0
   -------------------------------------------------------

  ==> Integral Setup <==

  ==> DiskDFJK: Density-Fitted J/K Matrices <==

    J tasked:                  Yes
    K tasked:                  Yes
    wK tasked:                 Yes
    Omega:               3.000E-01
    OpenMP threads:             24
    Integrals threads:          24
    Memory [MiB]:           101953
    Algorithm:                Core
    Integral Cache:           NONE
    Schwarz Cutoff:          1E-12
    Fitting Condition:       1E-10

   => Auxiliary Basis Set <=

  Basis Set: (AUG-CC-PV(Q+D)Z AUX)
    Blend: AUG-CC-PVQZ-JKFIT
    Number of shells: 102
    Number of basis function: 426
    Number of Cartesian functions: 594
    Spherical Harmonics?: true
    Max angular momentum: 5

  Cached 100.0% of DFT collocation blocks in 1.019 [GiB].

  Minimum eigenvalue in the overlap matrix is 1.6858653343E-05.
  Using Symmetric Orthogonalization.

  SCF Guess: Superposition of Atomic Densities via on-the-fly atomic UHF.

  ==> Iterations <==

                           Total Energy        Delta E     RMS |[F,P]|

   @DF-RKS iter SAD:  -184.21839574174672   -1.84218e+02   0.00000e+00 
   @DF-RKS iter   1:  -184.61312004425139   -3.94724e-01   2.94103e-03 DIIS
   @DF-RKS iter   2:  -184.58125898036639    3.18611e-02   3.50858e-03 DIIS
   @DF-RKS iter   3:  -184.69992995123525   -1.18671e-01   4.91316e-04 DIIS
   @DF-RKS iter   4:  -184.70157121018701   -1.64126e-03   2.99484e-04 DIIS
   @DF-RKS iter   5:  -184.70251737362270   -9.46163e-04   4.30061e-05 DIIS
   @DF-RKS iter   6:  -184.70254298500706   -2.56114e-05   1.02732e-05 DIIS
   @DF-RKS iter   7:  -184.70254460804372   -1.62304e-06   1.80160e-06 DIIS
   @DF-RKS iter   8:  -184.70254470083702   -9.27933e-08   3.00326e-07 DIIS
   @DF-RKS iter   9:  -184.70254470317261   -2.33558e-09   5.36380e-08 DIIS
   @DF-RKS iter  10:  -184.70254470323439   -6.17888e-11   1.01575e-08 DIIS
   @DF-RKS iter  11:  -184.70254470323638   -1.98952e-12   8.88920e-10 DIIS
   @DF-RKS iter  12:  -184.70254470323650   -1.13687e-13   1.63788e-10 DIIS
   @DF-RKS iter  13:  -184.70254470323624    2.55795e-13   1.79217e-11 DIIS
  Energy and wave function converged.


  ==> Post-Iterations <==

    Orbital Energies [Eh]
    ---------------------

    Doubly Occupied:                                                      

       1Ap   -19.428130     2Ap   -14.740945     3Ap   -14.605777  
       4Ap    -1.381750     5Ap    -1.224351     6Ap    -0.721659  
       1App   -0.686843     7Ap    -0.686843     8Ap    -0.595333  
       2App   -0.445522     9Ap    -0.445522  

    Virtual:                                                              

      10Ap     0.031256    11Ap     0.056848    12Ap     0.059467  
       3App    0.059467    13Ap     0.096163     4App    0.096165  
      14Ap     0.099266    15Ap     0.111732     5App    0.111732  
      16Ap     0.168865    17Ap     0.177982     6App    0.177982  
      18Ap     0.203022    19Ap     0.228806    20Ap     0.260705  
       7App    0.260707    21Ap     0.312943    22Ap     0.340783  
       8App    0.357380    23Ap     0.357380     9App    0.360668  
      24Ap     0.360669    25Ap     0.418589    10App    0.456377  
      26Ap     0.456377    27Ap     0.484658    11App    0.484658  
      28Ap     0.540579    29Ap     0.573434    12App    0.573442  
      30Ap     0.589440    13App    0.589441    31Ap     0.596546  
      32Ap     0.689729    33Ap     0.721968    14App    0.756231  
      34Ap     0.756231    35Ap     0.825821    15App    0.851109  
      36Ap     0.851109    37Ap     0.854252    16App    0.854254  
      38Ap     0.901714    17App    0.901715    39Ap     0.907817  
      18App    0.907821    40Ap     0.923218    41Ap     1.062913  
      19App    1.062915    42Ap     1.066453    20App    1.066453  
      43Ap     1.100794    44Ap     1.206996    21App    1.207000  
      45Ap     1.269807    22App    1.277941    46Ap     1.277945  
      47Ap     1.302495    23App    1.433652    48Ap     1.433652  
      49Ap     1.437228    24App    1.437229    50Ap     1.451218  
      25App    1.451227    51Ap     1.454457    52Ap     1.562235  
      53Ap     1.609692    26App    1.609692    54Ap     1.622666  
      27App    1.622666    55Ap     1.746156    28App    1.794662  
      56Ap     1.794662    57Ap     1.861485    29App    1.861488  
      58Ap     1.873973    30App    1.943863    59Ap     1.943864  
      60Ap     2.046722    31App    2.170887    61Ap     2.170888  
      32App    2.476719    62Ap     2.476722    63Ap     2.640051  
      33App    2.640058    64Ap     2.642211    34App    2.642211  
      65Ap     2.716229    35App    2.716230    66Ap     2.752720  
      67Ap     2.765993    68Ap     2.859159    36App    2.861876  
      69Ap     2.861876    37App    2.879666    70Ap     2.879667  
      38App    2.883893    71Ap     2.883897    39App    2.916901  
      72Ap     2.916913    73Ap     2.976295    40App    2.976295  
      74Ap     2.996787    41App    2.996789    75Ap     3.071966  
      42App    3.071980    76Ap     3.082728    77Ap     3.128182  
      43App    3.128194    44App    3.193133    78Ap     3.193135  
      79Ap     3.253781    80Ap     3.429045    45App    3.429046  
      81Ap     3.492384    82Ap     3.574608    46App    3.574622  
      83Ap     3.655870    47App    3.655870    84Ap     3.764472  
      48App    3.789953    85Ap     3.789956    86Ap     3.910817  
      49App    3.910817    87Ap     3.916049    50App    3.916049  
      88Ap     4.006314    51App    4.091306    89Ap     4.091307  
      90Ap     4.182159    52App    4.182161    91Ap     4.349639  
      92Ap     4.481709    53App    4.481713    93Ap     4.518445  
      54App    4.518446    94Ap     4.543781    55App    4.543781  
      95Ap     4.875174    96Ap     5.134698    56App    5.134711  
      97Ap     5.218013    57App    5.218021    98Ap     5.259353  
      99Ap     5.338296   100Ap     5.538104    58App    5.538126  
     101Ap     5.822134    59App    5.822155   102Ap     5.856886  
     103Ap     6.056144    60App    6.142661   104Ap     6.142672  
     105Ap     6.905628   106Ap     7.448907    61App    7.448907  
     107Ap     7.518164    62App    7.518179    63App    7.662457  
     108Ap     7.662460    64App    7.677364   109Ap     7.677413  
      65App    7.996626   110Ap     7.996672   111Ap     8.027348  
      66App    8.149103   112Ap     8.149106   113Ap     8.330328  
      67App    8.330342   114Ap     8.366062    68App    8.366064  
      69App    8.453584   115Ap     8.453584   116Ap     8.541894  
      70App    8.666643   117Ap     8.666643   118Ap     8.763415  
      71App    8.763416   119Ap     8.826912   120Ap     8.890170  
      72App    8.890192   121Ap     8.976812    73App    8.976812  
      74App    9.254647   122Ap     9.254668   123Ap     9.261658  
      75App    9.343376   124Ap     9.343380   125Ap     9.942870  
     126Ap    10.085455    76App   10.085479    77App   10.217453  
     127Ap    10.217470   128Ap    10.236156    78App   10.236206  
      79App   10.306828   129Ap    10.306832   130Ap    10.516809  
      80App   10.516809    81App   10.810459   131Ap    10.810459  
     132Ap    10.933713    82App   10.933715   133Ap    11.074923  
      83App   11.211472   134Ap    11.211482   135Ap    11.282587  
      84App   11.474801   136Ap    11.474801   137Ap    11.635554  
      85App   11.635556   138Ap    12.037891    86App   12.087589  
     139Ap    12.087593    87App   12.133968   140Ap    12.133993  
      88App   12.611297   141Ap    12.611318   142Ap    12.666305  
      89App   13.330924   143Ap    13.330937   144Ap    13.578465  
     145Ap    14.711454    90App   14.711458   146Ap    15.434050  
     147Ap    16.051550   148Ap    33.541248   149Ap    34.244766  
     150Ap    42.956385  

    Final Occupation by Irrep:
             Ap   App 
    DOCC [     9,    2 ]

  @DF-RKS Final Energy:  -184.70254470323624

   => Energetics <=

    Nuclear Repulsion Energy =             61.2289906506890631
    One-Electron Energy =                -371.7753610973185801
    Two-Electron Energy =                 141.9433742698618630
    DFT Exchange-Correlation Energy =     -16.1907551114375821
    Empirical Dispersion Energy =           0.0000000000000000
    VV10 Nonlocal Energy =                  0.0912065849689732
    Total Energy =                       -184.7025447032362422

Computation Completed


Properties will be evaluated at   0.000000,   0.000000,   0.000000 [a0]

Properties computed using the SCF density matrix

  Nuclear Dipole Moment: [e a0]
     X:     0.0000      Y:    -0.0000      Z:     0.0090

  Electronic Dipole Moment: [e a0]
     X:     0.0000      Y:     0.0004      Z:    -0.0872

  Dipole Moment: [e a0]
     X:     0.0000      Y:     0.0004      Z:    -0.0782     Total:     0.0782

  Dipole Moment: [D]
     X:     0.0000      Y:     0.0010      Z:    -0.1987     Total:     0.1987


*** tstop() called on bp1-compute00148.data.bp.acrc.priv at Mon Apr 19 16:06:33 2021
Module time:
	user time   =     137.90 seconds =       2.30 minutes
	system time =       2.81 seconds =       0.05 minutes
	total time  =          6 seconds =       0.10 minutes
Total time:
	user time   =    4452.86 seconds =      74.21 minutes
	system time =     116.21 seconds =       1.94 minutes
	total time  =        201 seconds =       3.35 minutes

         ----------------------------------------------------------
                                   FINDIF
                     R. A. King and Jonathon Misiewicz
         ---------------------------------------------------------

  Computing second-derivative from energies using projected, 
  symmetry-adapted, cartesian coordinates.

  9 energies passed in, including the reference geometry.
    Using 3-point formula.
    Energy without displacement: -184.7025448949
    Check energies below for precision!
    0: -1        :      -184.7025430656
    0: 1         :      -184.7025431932
    1: -1        :      -184.7025431679
    1: 1         :      -184.7025430391
    0: 1, 1: 1   :      -184.7025431940
    0: -1, 1: -1 :      -184.7025431886
    2: -1        :      -184.7025447042
    3: -1        :      -184.7025447032

-------------------------------------------------------------


  ==> Harmonic Vibrational Analysis <==

  non-mass-weighted Hessian:       Symmetric? True   Hermitian? True   Lin Dep Dim?  5 (0)
  projection of translations (True) and rotations (True) removed 5 degrees of freedom (5)
  total projector:                 Symmetric? True   Hermitian? True   Lin Dep Dim?  5 (5)
  mass-weighted Hessian:           Symmetric? True   Hermitian? True   Lin Dep Dim?  5 (0)
  pre-proj  low-frequency mode:    0.0000i [cm^-1]
  pre-proj  low-frequency mode:    0.0000i [cm^-1]
  pre-proj  low-frequency mode:    0.0000  [cm^-1]
  pre-proj  low-frequency mode:    0.0000  [cm^-1]
  pre-proj  low-frequency mode:    0.0000  [cm^-1]
  pre-proj  all modes:['0.0000i' '0.0000i' '0.0000' '0.0000' '0.0000' '634.8743' '636.4719'
 '1341.8156' '2391.3091']
  projected mass-weighted Hessian: Symmetric? True   Hermitian? True   Lin Dep Dim?  5 (5)
  post-proj low-frequency mode:    0.0000i [cm^-1] (TR)
  post-proj low-frequency mode:    0.0000i [cm^-1] (TR)
  post-proj low-frequency mode:    0.0000  [cm^-1] (TR)
  post-proj low-frequency mode:    0.0000  [cm^-1] (TR)
  post-proj low-frequency mode:    0.0000  [cm^-1] (TR)
  post-proj  all modes:['0.0000i' '0.0000i' '0.0000' '0.0000' '0.0000' '634.8743' '636.4719'
 '1341.8156' '2391.3091']

  Vibration                       6                   7                   8           
  Freq [cm^-1]                 634.8743            636.4719           1341.8156       
  Irrep                           B1                  B2                  A1          
  Reduced mass [u]             14.2517             14.2517             15.1289        
  Force const [mDyne/A]         3.3845              3.4015             16.0488        
  Turning point v=0 [a0]        0.1154              0.1152              0.0770        
  RMS dev v=0 [a0 u^1/2]        0.3079              0.3075              0.2118        
  Char temp [K]                913.4428            915.7413           1930.5739       
  ----------------------------------------------------------------------------------
      1   N               -0.43  0.00  0.00    0.00 -0.43 -0.00    0.00 -0.00 -0.61   
      2   N                0.83 -0.00  0.00    0.00  0.83 -0.00    0.00  0.00 -0.25   
      3   O               -0.35  0.00  0.00    0.00 -0.35 -0.00    0.00 -0.00  0.75   

  Vibration                       9           
  Freq [cm^-1]                2391.3091       
  Irrep                           A1          
  Reduced mass [u]             14.0712        
  Force const [mDyne/A]        47.4083        
  Turning point v=0 [a0]        0.0598        
  RMS dev v=0 [a0 u^1/2]        0.1587        
  Char temp [K]               3440.5614       
  ----------------------------------------------------------------------------------
      1   N                0.00 -0.00 -0.58   
      2   N                0.00 -0.00  0.79   
      3   O                0.00 -0.00 -0.19   

  ==> Thermochemistry Components <==

  Entropy, S
    Electronic S            0.000 [cal/(mol K)]        0.000 [J/(mol K)]       0.00000000 [mEh/K] (multiplicity = 1)
    Translational S        37.271 [cal/(mol K)]      155.941 [J/(mol K)]       0.05939493 [mEh/K] (mol. weight = 44.0011 [u], P = 101325.00 [Pa])
    Rotational S           14.279 [cal/(mol K)]       59.744 [J/(mol K)]       0.02275515 [mEh/K] (symmetry no. = 1)
    Vibrational S           0.808 [cal/(mol K)]        3.379 [J/(mol K)]       0.00128698 [mEh/K]
  Total S                  52.358 [cal/(mol K)]      219.064 [J/(mol K)]       0.08343705 [mEh/K]
  Correction S              0.000 [cal/(mol K)]        0.000 [J/(mol K)]       0.00000000 [mEh/K]

  Constant volume heat capacity, Cv
    Electronic Cv           0.000 [cal/(mol K)]        0.000 [J/(mol K)]       0.00000000 [mEh/K]
    Translational Cv        2.981 [cal/(mol K)]       12.472 [J/(mol K)]       0.00475022 [mEh/K]
    Rotational Cv           1.987 [cal/(mol K)]        8.314 [J/(mol K)]       0.00316681 [mEh/K]
    Vibrational Cv          2.046 [cal/(mol K)]        8.559 [J/(mol K)]       0.00326012 [mEh/K]
  Total Cv                  7.014 [cal/(mol K)]       29.346 [J/(mol K)]       0.01117714 [mEh/K]
  Correction Cv             0.000 [cal/(mol K)]        0.000 [J/(mol K)]       0.00000000 [mEh/K]

  Constant pressure heat capacity, Cp
    Electronic Cp           0.000 [cal/(mol K)]        0.000 [J/(mol K)]       0.00000000 [mEh/K]
    Translational Cp        4.968 [cal/(mol K)]       20.786 [J/(mol K)]       0.00791703 [mEh/K]
    Rotational Cp           1.987 [cal/(mol K)]        8.314 [J/(mol K)]       0.00316681 [mEh/K]
    Vibrational Cp          2.046 [cal/(mol K)]        8.559 [J/(mol K)]       0.00326012 [mEh/K]
  Total Cp                  9.001 [cal/(mol K)]       37.660 [J/(mol K)]       0.01434395 [mEh/K]
  Correction Cp             0.000 [cal/(mol K)]        0.000 [J/(mol K)]       0.00000000 [mEh/K]

  ==> Thermochemistry Energy Analysis <==

  Raw electronic energy, E0
  Total E0, Electronic energy at well bottom at 0 [K]                 -184.70254489 [Eh]

  Zero-point energy, ZPE_vib = Sum_i nu_i / 2
    Electronic ZPE          0.000 [kcal/mol]        0.000 [kJ/mol]       0.00000000 [Eh]
    Translational ZPE       0.000 [kcal/mol]        0.000 [kJ/mol]       0.00000000 [Eh]
    Rotational ZPE          0.000 [kcal/mol]        0.000 [kJ/mol]       0.00000000 [Eh]
    Vibrational ZPE         7.154 [kcal/mol]       29.933 [kJ/mol]       0.01140102 [Eh]        2502.235 [cm^-1]
  Correction ZPE            7.154 [kcal/mol]       29.933 [kJ/mol]       0.01140102 [Eh]        2502.235 [cm^-1]
  Total ZPE, Electronic energy at 0 [K]                               -184.69114387 [Eh]

  Thermal Energy, E (includes ZPE)
    Electronic E            0.000 [kcal/mol]        0.000 [kJ/mol]       0.00000000 [Eh]
    Translational E         0.889 [kcal/mol]        3.718 [kJ/mol]       0.00141628 [Eh]
    Rotational E            0.592 [kcal/mol]        2.479 [kJ/mol]       0.00094418 [Eh]
    Vibrational E           7.338 [kcal/mol]       30.701 [kJ/mol]       0.01169328 [Eh]
  Correction E              8.819 [kcal/mol]       36.898 [kJ/mol]       0.01405375 [Eh]
  Total E, Electronic energy at  298.15 [K]                           -184.68849115 [Eh]

  Enthalpy, H_trans = E_trans + k_B * T
    Electronic H            0.000 [kcal/mol]        0.000 [kJ/mol]       0.00000000 [Eh]
    Translational H         1.481 [kcal/mol]        6.197 [kJ/mol]       0.00236046 [Eh]
    Rotational H            0.592 [kcal/mol]        2.479 [kJ/mol]       0.00094418 [Eh]
    Vibrational H           7.338 [kcal/mol]       30.701 [kJ/mol]       0.01169328 [Eh]
  Correction H              9.411 [kcal/mol]       39.377 [kJ/mol]       0.01499793 [Eh]
  Total H, Enthalpy at  298.15 [K]                                    -184.68754696 [Eh]

  Gibbs free energy, G = H - T * S
    Electronic G            0.000 [kcal/mol]        0.000 [kJ/mol]       0.00000000 [Eh]
    Translational G        -9.631 [kcal/mol]      -40.297 [kJ/mol]      -0.01534814 [Eh]
    Rotational G           -3.665 [kcal/mol]      -15.334 [kJ/mol]      -0.00584026 [Eh]
    Vibrational G           7.097 [kcal/mol]       29.693 [kJ/mol]       0.01130957 [Eh]
  Correction G             -6.199 [kcal/mol]      -25.937 [kJ/mol]      -0.00987883 [Eh]
  Total G, Free enthalpy at  298.15 [K]                               -184.71242372 [Eh]

    Psi4 stopped on: Monday, 19 April 2021 04:06PM
    Psi4 wall time for execution: 0:03:21.81

*** Psi4 exiting successfully. Buy a developer a beer!
