
    -----------------------------------------------------------------------
          Psi4: An Open-Source Ab Initio Electronic Structure Package
                               Psi4 1.3.2 release

                         Git: Rev {HEAD} ecbda83 


    R. M. Parrish, L. A. Burns, D. G. A. Smith, A. C. Simmonett,
    A. E. DePrince III, E. G. Hohenstein, U. Bozkaya, A. Yu. Sokolov,
    R. Di Remigio, R. M. Richard, J. F. Gonthier, A. M. James,
    H. R. McAlexander, A. Kumar, M. Saitow, X. Wang, B. P. Pritchard,
    P. Verma, H. F. Schaefer III, K. Patkowski, R. A. King, E. F. Valeev,
    F. A. Evangelista, J. M. Turney, T. D. Crawford, and C. D. Sherrill,
    J. Chem. Theory Comput. 13(7) pp 3185--3197 (2017).
    (doi: 10.1021/acs.jctc.7b00174)


                         Additional Contributions by
    P. Kraus, H. Kruse, M. H. Lechner, M. C. Schieber, R. A. Shaw,
    A. Alenaizan, R. Galvelis, Z. L. Glick, S. Lehtola, and J. P. Misiewicz

    -----------------------------------------------------------------------


    Psi4 started on: Tuesday, 27 April 2021 04:53PM

    Process ID: 251838
    Host:       bp1-compute00048.data.bp.acrc.priv
    PSIDATADIR: /work/zw18965/.conda/envs/p4env/share/psi4
    Memory:     500.0 MiB
    Threads:    24
    
  ==> Input File <==

--------------------------------------------------------------------------
memory 144 GB

molecule {
0 1
P 0.0000000000 0.0000000000 -0.0679917919
H 1.1903431933 0.0000000000 0.6964572780
H -0.5951715967 -1.0308674445 0.6964572780
H -0.5951715967 1.0308674445 0.6964572780
}

set dynamic_level 1
set basis aug-cc-pV(Q+d)Z
 
optimize("wB97M-V")
frequencies("wB97M-V")
--------------------------------------------------------------------------

  Memory set to 134.110 GiB by Python driver.
gradient() will perform gradient computation by finite difference of analytic energies.

         ----------------------------------------------------------
                                   FINDIF
                     R. A. King and Jonathon Misiewicz
         ---------------------------------------------------------

  Using finite-differences of energies to determine gradients.
    Generating geometries for use with 3-point formula.
    Displacement size will be 5.00e-03.
    Number of atoms is 4.
    Number of symmetric SALCs is 4.
    Translations projected? 1. Rotations projected? 1.
    Number of geometries (including reference) is 9.

  //>>>>>>>>>>>>>>>>>>>>>>>>>>>>>>>>>>>//
  //    Loading displacement 1 of 9    //
  //<<<<<<<<<<<<<<<<<<<<<<<<<<<<<<<<<<<//

*** tstart() called on bp1-compute00048.data.bp.acrc.priv
*** at Tue Apr 27 16:53:45 2021

   => Loading Basis Set <=

    Name: AUG-CC-PV(Q+D)Z
    Role: ORBITAL
    Keyword: BASIS
    atoms 1   entry P          line  1050 file /work/zw18965/.conda/envs/p4env/share/psi4/basis/aug-cc-pv_qpd_z.gbs 
    atoms 2-4 entry H          line    56 file /work/zw18965/.conda/envs/p4env/share/psi4/basis/aug-cc-pv_qpd_z.gbs 


         ---------------------------------------------------------
                                   SCF
               by Justin Turney, Rob Parrish, Andy Simmonett
                          and Daniel G. A. Smith
                              RKS Reference
                       24 Threads, 137329 MiB Core
         ---------------------------------------------------------

  ==> Geometry <==

    Molecular point group: cs
    Full point group: C3v

    Geometry (in Angstrom), charge = 0, multiplicity = 1:

       Center              X                  Y                   Z               Mass       
    ------------   -----------------  -----------------  -----------------  -----------------
         P            0.000000000001     0.067984722378     0.000000000000    30.973761998420
         H            0.595171596587    -0.696464347522     1.030867444611     1.007825032230
         H            0.595171596587    -0.696464347522    -1.030867444611     1.007825032230
         H           -1.190343193220    -0.696464347522     0.000000000000     1.007825032230

  Running in cs symmetry.

  Rotational constants: A =      4.49328  B =      4.49328  C =      3.93501 [cm^-1]
  Rotational constants: A = 134705.25087  B = 134705.25086  C = 117968.59793 [MHz]
  Nuclear repulsion =   17.602846847432616

  Charge       = 0
  Multiplicity = 1
  Electrons    = 18
  Nalpha       = 9
  Nbeta        = 9

  ==> Algorithm <==

  SCF Algorithm Type is DF.
  DIIS enabled.
  MOM disabled.
  Fractional occupation disabled.
  Guess Type is SAD.
  Energy threshold   = 1.00e-08
  Density threshold  = 1.00e-08
  Integral threshold = 0.00e+00

  ==> Primary Basis <==

  Basis Set: AUG-CC-PV(Q+D)Z
    Blend: AUG-CC-PV(Q+D)Z
    Number of shells: 65
    Number of basis function: 227
    Number of Cartesian functions: 280
    Spherical Harmonics?: true
    Max angular momentum: 4

  ==> DFT Potential <==

   => Composite Functional: WB97M-V <= 

    wB97M-V Hyb-GGA Exchange-Correlation Functional

    N. Mardirossian and M. Head-Gordon, J. Chem. Phys. 144, 214110 (2016)

    Deriv               =              1
    GGA                 =           TRUE
    Meta                =           TRUE

    Exchange Hybrid     =           TRUE
    MP2 Hybrid          =          FALSE

   => Exchange-Correlation Functionals <=

    1.0000   wB97M-V exchange-correlation functional

   => Exact (HF) Exchange <=

    0.8500            HF,LR [omega = 0.3000]
    0.1500               HF 

   => VV10 Non-Local Parameters <=

    VV10 B              =     6.0000E+00
    VV10 C              =     1.0000E-02

   => Molecular Quadrature <=

    Radial Scheme          =       TREUTLER
    Pruning Scheme         =           FLAT
    Nuclear Scheme         =       TREUTLER

    BS radius alpha        =              1
    Pruning alpha          =              1
    Radial Points          =             75
    Spherical Points       =            302
    Total Points           =          90600
    Total Blocks           =            747
    Max Points             =            254
    Max Functions          =            227

   => Loading Basis Set <=

    Name: (AUG-CC-PV(Q+D)Z AUX)
    Role: JKFIT
    Keyword: DF_BASIS_SCF
    atoms 1   entry P          line   716 file /work/zw18965/.conda/envs/p4env/share/psi4/basis/aug-cc-pvqz-jkfit.gbs 
    atoms 2-4 entry H          line    70 file /work/zw18965/.conda/envs/p4env/share/psi4/basis/aug-cc-pvqz-jkfit.gbs 

  ==> Pre-Iterations <==

   -------------------------------------------------------
    Irrep   Nso     Nmo     Nalpha   Nbeta   Ndocc  Nsocc
   -------------------------------------------------------
     A'       132     132       0       0       0       0
     A"        95      95       0       0       0       0
   -------------------------------------------------------
    Total     227     227       9       9       9       0
   -------------------------------------------------------

  ==> Integral Setup <==

  ==> DiskDFJK: Density-Fitted J/K Matrices <==

    J tasked:                  Yes
    K tasked:                  Yes
    wK tasked:                 Yes
    Omega:               3.000E-01
    OpenMP threads:             24
    Integrals threads:          24
    Memory [MiB]:           101593
    Algorithm:                Core
    Integral Cache:           NONE
    Schwarz Cutoff:          1E-12
    Fitting Condition:       1E-10

   => Auxiliary Basis Set <=

  Basis Set: (AUG-CC-PV(Q+D)Z AUX)
    Blend: AUG-CC-PVQZ-JKFIT
    Number of shells: 100
    Number of basis function: 412
    Number of Cartesian functions: 550
    Spherical Harmonics?: true
    Max angular momentum: 5

  Cached 100.0% of DFT collocation blocks in 1.370 [GiB].

  Minimum eigenvalue in the overlap matrix is 3.8930842689E-05.
  Using Symmetric Orthogonalization.

  SCF Guess: Superposition of Atomic Densities via on-the-fly atomic UHF.

  ==> Iterations <==

                           Total Energy        Delta E     RMS |[F,P]|

   @DF-RKS iter SAD:  -342.77581947415598   -3.42776e+02   0.00000e+00 
   @DF-RKS iter   1:  -343.09054176178688   -3.14722e-01   1.59854e-03 DIIS
   @DF-RKS iter   2:  -343.11799931040008   -2.74575e-02   8.22178e-04 DIIS
   @DF-RKS iter   3:  -343.12519085045767   -7.19154e-03   6.81774e-05 DIIS
   @DF-RKS iter   4:  -343.12543128191493   -2.40431e-04   1.50001e-05 DIIS
   @DF-RKS iter   5:  -343.12544108370054   -9.80179e-06   3.56311e-06 DIIS
   @DF-RKS iter   6:  -343.12544141790579   -3.34205e-07   5.65009e-07 DIIS
   @DF-RKS iter   7:  -343.12544142942789   -1.15221e-08   1.00169e-07 DIIS
   @DF-RKS iter   8:  -343.12544142981596   -3.88070e-10   1.36744e-08 DIIS
   @DF-RKS iter   9:  -343.12544142982529   -9.32232e-12   2.41853e-09 DIIS
  Energy and wave function converged.


  ==> Post-Iterations <==

    Orbital Energies [Eh]
    ---------------------

    Doubly Occupied:                                                      

       1Ap   -77.387020     2Ap    -6.722914     3Ap    -4.835591  
       1App   -4.835590     4Ap    -4.831980     5Ap    -0.762232  
       6Ap    -0.480708     2App   -0.480708     7Ap    -0.369994  

    Virtual:                                                              

       8Ap     0.010091     9Ap     0.036150     3App    0.036150  
      10Ap     0.048738    11Ap     0.056867     4App    0.056868  
      12Ap     0.097331    13Ap     0.114960     5App    0.114961  
      14Ap     0.115910     6App    0.115910    15Ap     0.118243  
       7App    0.179876    16Ap     0.179876    17Ap     0.205370  
      18Ap     0.209282     8App    0.209283    19Ap     0.225825  
      20Ap     0.227898     9App    0.227900    10App    0.233745  
      21Ap     0.271673    11App    0.271677    22Ap     0.272420  
      23Ap     0.325917    12App    0.341663    24Ap     0.341663  
      25Ap     0.366228    26Ap     0.409650    13App    0.409657  
      27Ap     0.423087    28Ap     0.451079    14App    0.470762  
      15App    0.470972    29Ap     0.470972    30Ap     0.489562  
      16App    0.489563    31Ap     0.506177    17App    0.506179  
      32Ap     0.588567    18App    0.615808    33Ap     0.621580  
      34Ap     0.623826    19App    0.623829    20App    0.658832  
      35Ap     0.658832    36Ap     0.685639    21App    0.718048  
      37Ap     0.718052    38Ap     0.734971    39Ap     0.755504  
      22App    0.755506    40Ap     0.833110    41Ap     0.833375  
      23App    0.833377    42Ap     0.856515    24App    0.856516  
      25App    0.865356    26App    0.960181    43Ap     0.960182  
      44Ap     1.014831    45Ap     1.042459    27App    1.042460  
      46Ap     1.056852    28App    1.056853    47Ap     1.072055  
      29App    1.072223    48Ap     1.113955    30App    1.113956  
      49Ap     1.181268    50Ap     1.257773    51Ap     1.297603  
      31App    1.297616    32App    1.302659    52Ap     1.310929  
      33App    1.310929    53Ap     1.318207    34App    1.349637  
      54Ap     1.349637    55Ap     1.392047    56Ap     1.461124  
      57Ap     1.493646    35App    1.493651    36App    1.543940  
      58Ap     1.543945    59Ap     1.581780    37App    1.602011  
      60Ap     1.602013    61Ap     1.655829    38App    1.662336  
      62Ap     1.707673    39App    1.707677    63Ap     1.730522  
      40App    1.730529    64Ap     1.831474    41App    1.831477  
      42App    1.861203    65Ap     1.884580    43App    1.903109  
      44App    1.917395    66Ap     1.917397    67Ap     1.926456  
      68Ap     1.944544    45App    1.944546    69Ap     2.048330  
      70Ap     2.077342    46App    2.077343    47App    2.098583  
      71Ap     2.098589    48App    2.160009    72Ap     2.164923  
      49App    2.164939    73Ap     2.233516    74Ap     2.282523  
      50App    2.282534    51App    2.385203    75Ap     2.385206  
      76Ap     2.403583    52App    2.522670    53App    2.529799  
      77Ap     2.529802    54App    2.603899    78Ap     2.603912  
      79Ap     2.648183    55App    2.803784    80Ap     2.803788  
      81Ap     2.809677    56App    2.908726    82Ap     2.908730  
      83Ap     2.926244    84Ap     2.972654    57App    3.021190  
      85Ap     3.021197    58App    3.035316    86Ap     3.092189  
      59App    3.092206    87Ap     3.128657    60App    3.186496  
      61App    3.198723    88Ap     3.198733    89Ap     3.211097  
      90Ap     3.337477    62App    3.337478    63App    3.427040  
      91Ap     3.427066    64App    3.492196    92Ap     3.501255  
      93Ap     3.562478    65App    3.562498    94Ap     3.673143  
      95Ap     3.779926    66App    3.779959    96Ap     4.008277  
      97Ap     4.009208    67App    4.009224    68App    4.146628  
      98Ap     4.146644    69App    4.259829    99Ap     4.265255  
      70App    4.315293   100Ap     4.315294    71App    6.308009  
     101Ap     6.308023    72App    6.320610   102Ap     6.344753  
      73App    6.344785   103Ap     6.363834    74App    6.375210  
     104Ap     6.390585   105Ap     6.395921    75App    6.395960  
      76App    6.532703   106Ap     6.532779   107Ap     6.621848  
      77App    6.621850   108Ap     6.725357    78App    6.852734  
     109Ap     6.852854   110Ap     6.934799   111Ap     7.023039  
      79App    7.023156   112Ap     7.050425    80App    7.136323  
     113Ap     7.267963    81App    7.267981   114Ap     7.614741  
     115Ap     7.665527    82App    7.665558   116Ap     7.849958  
      83App    7.892863   117Ap     7.892864    84App    8.080344  
     118Ap     8.115903    85App    8.115936    86App    8.144168  
     119Ap     8.144246    87App    8.242439   120Ap     8.242522  
     121Ap     8.279036    88App    8.413042   122Ap     8.413178  
     123Ap     8.554125    89App    8.554131    90App    8.587805  
     124Ap     8.631223   125Ap     8.950045   126Ap     8.982393  
      91App    8.982395    92App    8.988868   127Ap     9.268591  
      93App    9.268639   128Ap     9.300952    94App    9.355519  
     129Ap     9.355630   130Ap     9.754810   131Ap    11.022837  
      95App   11.022923   132Ap    18.167740  

    Final Occupation by Irrep:
             Ap   App 
    DOCC [     7,    2 ]

  @DF-RKS Final Energy:  -343.12544142982529

   => Energetics <=

    Nuclear Repulsion Energy =             17.6028468474326161
    One-Electron Energy =                -508.5679262939742671
    Two-Electron Energy =                 166.1631543336133063
    DFT Exchange-Correlation Energy =     -18.3988747485813313
    Empirical Dispersion Energy =           0.0000000000000000
    VV10 Nonlocal Energy =                  0.0753584316844326
    Total Energy =                       -343.1254414298252300

Computation Completed


Properties will be evaluated at   0.000000,   0.000000,   0.000000 [a0]

Properties computed using the SCF density matrix

  Nuclear Dipole Moment: [e a0]
     X:    -0.0000      Y:    -2.0213      Z:     0.0000

  Electronic Dipole Moment: [e a0]
     X:     0.0000      Y:     1.7981      Z:     0.0000

  Dipole Moment: [e a0]
     X:     0.0000      Y:    -0.2232      Z:     0.0000     Total:     0.2232

  Dipole Moment: [D]
     X:     0.0000      Y:    -0.5674      Z:     0.0000     Total:     0.5674


*** tstop() called on bp1-compute00048.data.bp.acrc.priv at Tue Apr 27 16:53:52 2021
Module time:
	user time   =     142.26 seconds =       2.37 minutes
	system time =       9.29 seconds =       0.15 minutes
	total time  =          7 seconds =       0.12 minutes
Total time:
	user time   =     142.26 seconds =       2.37 minutes
	system time =       9.29 seconds =       0.15 minutes
	total time  =          7 seconds =       0.12 minutes

  //>>>>>>>>>>>>>>>>>>>>>>>>>>>>>>>>>>>//
  //    Loading displacement 2 of 9    //
  //<<<<<<<<<<<<<<<<<<<<<<<<<<<<<<<<<<<//

*** tstart() called on bp1-compute00048.data.bp.acrc.priv
*** at Tue Apr 27 16:53:52 2021

   => Loading Basis Set <=

    Name: AUG-CC-PV(Q+D)Z
    Role: ORBITAL
    Keyword: BASIS
    atoms 1   entry P          line  1050 file /work/zw18965/.conda/envs/p4env/share/psi4/basis/aug-cc-pv_qpd_z.gbs 
    atoms 2-4 entry H          line    56 file /work/zw18965/.conda/envs/p4env/share/psi4/basis/aug-cc-pv_qpd_z.gbs 


         ---------------------------------------------------------
                                   SCF
               by Justin Turney, Rob Parrish, Andy Simmonett
                          and Daniel G. A. Smith
                              RKS Reference
                       24 Threads, 137329 MiB Core
         ---------------------------------------------------------

  ==> Geometry <==

    Molecular point group: cs
    Full point group: Cs

    Geometry (in Angstrom), charge = 0, multiplicity = 1:

       Center              X                  Y                   Z               Mass       
    ------------   -----------------  -----------------  -----------------  -----------------
         P           -0.000107127161     0.067984722378     0.000000000000    30.973761998420
         H            0.596269052699    -0.697169143675     1.030867444611     1.007825032230
         H            0.596269052699    -0.697169143675    -1.030867444611     1.007825032230
         H           -1.189245737108    -0.695054755215     0.000000000000     1.007825032230

  Running in cs symmetry.

  Rotational constants: A =      4.49334  B =      4.49328  C =      3.93496 [cm^-1]
  Rotational constants: A = 134706.87892  B = 134704.99952  C = 117967.15655 [MHz]
  Nuclear repulsion =   17.602856191068895

  Charge       = 0
  Multiplicity = 1
  Electrons    = 18
  Nalpha       = 9
  Nbeta        = 9

  ==> Algorithm <==

  SCF Algorithm Type is DF.
  DIIS enabled.
  MOM disabled.
  Fractional occupation disabled.
  Guess Type is SAD.
  Energy threshold   = 1.00e-08
  Density threshold  = 1.00e-08
  Integral threshold = 0.00e+00

  ==> Primary Basis <==

  Basis Set: AUG-CC-PV(Q+D)Z
    Blend: AUG-CC-PV(Q+D)Z
    Number of shells: 65
    Number of basis function: 227
    Number of Cartesian functions: 280
    Spherical Harmonics?: true
    Max angular momentum: 4

  ==> DFT Potential <==

   => Composite Functional: WB97M-V <= 

    wB97M-V Hyb-GGA Exchange-Correlation Functional

    N. Mardirossian and M. Head-Gordon, J. Chem. Phys. 144, 214110 (2016)

    Deriv               =              1
    GGA                 =           TRUE
    Meta                =           TRUE

    Exchange Hybrid     =           TRUE
    MP2 Hybrid          =          FALSE

   => Exchange-Correlation Functionals <=

    1.0000   wB97M-V exchange-correlation functional

   => Exact (HF) Exchange <=

    0.8500            HF,LR [omega = 0.3000]
    0.1500               HF 

   => VV10 Non-Local Parameters <=

    VV10 B              =     6.0000E+00
    VV10 C              =     1.0000E-02

   => Molecular Quadrature <=

    Radial Scheme          =       TREUTLER
    Pruning Scheme         =           FLAT
    Nuclear Scheme         =       TREUTLER

    BS radius alpha        =              1
    Pruning alpha          =              1
    Radial Points          =             75
    Spherical Points       =            302
    Total Points           =          90600
    Total Blocks           =            734
    Max Points             =            256
    Max Functions          =            227

   => Loading Basis Set <=

    Name: (AUG-CC-PV(Q+D)Z AUX)
    Role: JKFIT
    Keyword: DF_BASIS_SCF
    atoms 1   entry P          line   716 file /work/zw18965/.conda/envs/p4env/share/psi4/basis/aug-cc-pvqz-jkfit.gbs 
    atoms 2-4 entry H          line    70 file /work/zw18965/.conda/envs/p4env/share/psi4/basis/aug-cc-pvqz-jkfit.gbs 

  ==> Pre-Iterations <==

   -------------------------------------------------------
    Irrep   Nso     Nmo     Nalpha   Nbeta   Ndocc  Nsocc
   -------------------------------------------------------
     A'       132     132       0       0       0       0
     A"        95      95       0       0       0       0
   -------------------------------------------------------
    Total     227     227       9       9       9       0
   -------------------------------------------------------

  ==> Integral Setup <==

  ==> DiskDFJK: Density-Fitted J/K Matrices <==

    J tasked:                  Yes
    K tasked:                  Yes
    wK tasked:                 Yes
    Omega:               3.000E-01
    OpenMP threads:             24
    Integrals threads:          24
    Memory [MiB]:           101594
    Algorithm:                Core
    Integral Cache:           NONE
    Schwarz Cutoff:          1E-12
    Fitting Condition:       1E-10

   => Auxiliary Basis Set <=

  Basis Set: (AUG-CC-PV(Q+D)Z AUX)
    Blend: AUG-CC-PVQZ-JKFIT
    Number of shells: 100
    Number of basis function: 412
    Number of Cartesian functions: 550
    Spherical Harmonics?: true
    Max angular momentum: 5

  Cached 100.0% of DFT collocation blocks in 1.370 [GiB].

  Minimum eigenvalue in the overlap matrix is 3.8929720835E-05.
  Using Symmetric Orthogonalization.

  SCF Guess: Superposition of Atomic Densities via on-the-fly atomic UHF.

  ==> Iterations <==

                           Total Energy        Delta E     RMS |[F,P]|

   @DF-RKS iter SAD:  -342.77581869106154   -3.42776e+02   0.00000e+00 
   @DF-RKS iter   1:  -343.09053911649386   -3.14720e-01   1.59855e-03 DIIS
   @DF-RKS iter   2:  -343.11799702274715   -2.74579e-02   8.22185e-04 DIIS
   @DF-RKS iter   3:  -343.12518870355001   -7.19168e-03   6.81777e-05 DIIS
   @DF-RKS iter   4:  -343.12542913593853   -2.40432e-04   1.50003e-05 DIIS
   @DF-RKS iter   5:  -343.12543893776177   -9.80182e-06   3.56341e-06 DIIS
   @DF-RKS iter   6:  -343.12543927201676   -3.34255e-07   5.65117e-07 DIIS
   @DF-RKS iter   7:  -343.12543928354364   -1.15269e-08   1.00263e-07 DIIS
   @DF-RKS iter   8:  -343.12543928393143   -3.87786e-10   1.37877e-08 DIIS
   @DF-RKS iter   9:  -343.12543928394098   -9.54969e-12   2.63195e-09 DIIS
  Energy and wave function converged.


  ==> Post-Iterations <==

    Orbital Energies [Eh]
    ---------------------

    Doubly Occupied:                                                      

       1Ap   -77.387020     2Ap    -6.722914     1App   -4.835593  
       3Ap    -4.835589     4Ap    -4.831981     5Ap    -0.762233  
       6Ap    -0.481001     2App   -0.480415     7Ap    -0.369994  

    Virtual:                                                              

       8Ap     0.010091     9Ap     0.036136     3App    0.036163  
      10Ap     0.048738     4App    0.056811    11Ap     0.056924  
      12Ap     0.097331    13Ap     0.114954     5App    0.114967  
       6App    0.115782    14Ap     0.116038    15Ap     0.118244  
      16Ap     0.179838     7App    0.179914    17Ap     0.205369  
       8App    0.209243    18Ap     0.209322    19Ap     0.225825  
      20Ap     0.227867     9App    0.227931    10App    0.233745  
      11App    0.271650    21Ap     0.271687    22Ap     0.272432  
      23Ap     0.325917    12App    0.341636    24Ap     0.341690  
      25Ap     0.366228    26Ap     0.409635    13App    0.409672  
      27Ap     0.423088    28Ap     0.451079    14App    0.470744  
      29Ap     0.470964    15App    0.470997    16App    0.489511  
      30Ap     0.489615    17App    0.506149    31Ap     0.506207  
      32Ap     0.588566    18App    0.615807    33Ap     0.621580  
      19App    0.623775    34Ap     0.623882    20App    0.658820  
      35Ap     0.658844    36Ap     0.685638    37Ap     0.718026  
      21App    0.718074    38Ap     0.734971    39Ap     0.755345  
      22App    0.755666    40Ap     0.833086    23App    0.833265  
      41Ap     0.833509    24App    0.856211    42Ap     0.856820  
      25App    0.865358    43Ap     0.960120    26App    0.960243  
      44Ap     1.014830    45Ap     1.042385    27App    1.042528  
      46Ap     1.056849    28App    1.056853    47Ap     1.072056  
      29App    1.072221    48Ap     1.113840    30App    1.114078  
      49Ap     1.181269    50Ap     1.257773    31App    1.297563  
      51Ap     1.297650    32App    1.302662    33App    1.310705  
      52Ap     1.311153    53Ap     1.318207    54Ap     1.349630  
      34App    1.349645    55Ap     1.392046    56Ap     1.461125  
      35App    1.493589    57Ap     1.493709    58Ap     1.543886  
      36App    1.543995    59Ap     1.581781    37App    1.601633  
      60Ap     1.602396    61Ap     1.655831    38App    1.662333  
      62Ap     1.707622    39App    1.707728    40App    1.730223  
      63Ap     1.730830    64Ap     1.831378    41App    1.831571  
      42App    1.861204    65Ap     1.884578    43App    1.903108  
      44App    1.917100    66Ap     1.917691    67Ap     1.926454  
      68Ap     1.944284    45App    1.944809    69Ap     2.048329  
      70Ap     2.077297    46App    2.077386    47App    2.098259  
      71Ap     2.098912    48App    2.160005    72Ap     2.164783  
      49App    2.165078    73Ap     2.233500    74Ap     2.282357  
      50App    2.282718    75Ap     2.385160    51App    2.385243  
      76Ap     2.403604    52App    2.522667    53App    2.529454  
      77Ap     2.530143    78Ap     2.603784    54App    2.604041  
      79Ap     2.648179    55App    2.803175    80Ap     2.804396  
      81Ap     2.809681    56App    2.908470    82Ap     2.908961  
      83Ap     2.926268    84Ap     2.972650    85Ap     3.020997  
      57App    3.021379    58App    3.035318    59App    3.091927  
      86Ap     3.092466    87Ap     3.128655    60App    3.186490  
      61App    3.198327    88Ap     3.199082    89Ap     3.211148  
      62App    3.336720    90Ap     3.338235    63App    3.426724  
      91Ap     3.427377    64App    3.492195    92Ap     3.501250  
      93Ap     3.562095    65App    3.562895    94Ap     3.673147  
      66App    3.779679    95Ap     3.780199    96Ap     4.007324  
      67App    4.008503    97Ap     4.010894    68App    4.146187  
      98Ap     4.147063    69App    4.259813    99Ap     4.265238  
     100Ap     4.314960    70App    4.315678   101Ap     6.307874  
      71App    6.308158    72App    6.320631    73App    6.344680  
     102Ap     6.344845   103Ap     6.363833    74App    6.375213  
     104Ap     6.390575   105Ap     6.395816    75App    6.396068  
      76App    6.531298   106Ap     6.534209    77App    6.620972  
     107Ap     6.622732   108Ap     6.725361    78App    6.852764  
     109Ap     6.852813   110Ap     6.934816    79App    7.022986  
     111Ap     7.023247   112Ap     7.050423    80App    7.136281  
      81App    7.266886   113Ap     7.269046   114Ap     7.614720  
      82App    7.665413   115Ap     7.665698   116Ap     7.849790  
      83App    7.891171   117Ap     7.894756    84App    8.080308  
      85App    8.114729   118Ap     8.117124    86App    8.143807  
     119Ap     8.144633   120Ap     8.241595    87App    8.243438  
     121Ap     8.279082    88App    8.412933   122Ap     8.413267  
     123Ap     8.553972    89App    8.554292    90App    8.587819  
     124Ap     8.631235   125Ap     8.950012    91App    8.982297  
     126Ap     8.982450    92App    8.988851   127Ap     9.267989  
      93App    9.269180   128Ap     9.300999    94App    9.355466  
     129Ap     9.355674   130Ap     9.754814    95App   11.015625  
     131Ap    11.030110   132Ap    18.167785  

    Final Occupation by Irrep:
             Ap   App 
    DOCC [     7,    2 ]

  @DF-RKS Final Energy:  -343.12543928394098

   => Energetics <=

    Nuclear Repulsion Energy =             17.6028561910688950
    One-Electron Energy =                -508.5679389178474139
    Two-Electron Energy =                 166.1631600190664528
    DFT Exchange-Correlation Energy =     -18.3988750095931408
    Empirical Dispersion Energy =           0.0000000000000000
    VV10 Nonlocal Energy =                  0.0753584333642004
    Total Energy =                       -343.1254392839409775

Computation Completed


Properties will be evaluated at   0.000000,   0.000000,   0.000000 [a0]

Properties computed using the SCF density matrix

  Nuclear Dipole Moment: [e a0]
     X:     0.0032      Y:    -2.0213      Z:     0.0000

  Electronic Dipole Moment: [e a0]
     X:    -0.0045      Y:     1.7981      Z:     0.0000

  Dipole Moment: [e a0]
     X:    -0.0014      Y:    -0.2232      Z:     0.0000     Total:     0.2232

  Dipole Moment: [D]
     X:    -0.0034      Y:    -0.5674      Z:     0.0000     Total:     0.5674


*** tstop() called on bp1-compute00048.data.bp.acrc.priv at Tue Apr 27 16:53:59 2021
Module time:
	user time   =     139.27 seconds =       2.32 minutes
	system time =       5.11 seconds =       0.09 minutes
	total time  =          7 seconds =       0.12 minutes
Total time:
	user time   =     281.68 seconds =       4.69 minutes
	system time =      14.40 seconds =       0.24 minutes
	total time  =         14 seconds =       0.23 minutes

  //>>>>>>>>>>>>>>>>>>>>>>>>>>>>>>>>>>>//
  //    Loading displacement 3 of 9    //
  //<<<<<<<<<<<<<<<<<<<<<<<<<<<<<<<<<<<//

*** tstart() called on bp1-compute00048.data.bp.acrc.priv
*** at Tue Apr 27 16:53:59 2021

   => Loading Basis Set <=

    Name: AUG-CC-PV(Q+D)Z
    Role: ORBITAL
    Keyword: BASIS
    atoms 1   entry P          line  1050 file /work/zw18965/.conda/envs/p4env/share/psi4/basis/aug-cc-pv_qpd_z.gbs 
    atoms 2-4 entry H          line    56 file /work/zw18965/.conda/envs/p4env/share/psi4/basis/aug-cc-pv_qpd_z.gbs 


         ---------------------------------------------------------
                                   SCF
               by Justin Turney, Rob Parrish, Andy Simmonett
                          and Daniel G. A. Smith
                              RKS Reference
                       24 Threads, 137329 MiB Core
         ---------------------------------------------------------

  ==> Geometry <==

    Molecular point group: cs
    Full point group: Cs

    Geometry (in Angstrom), charge = 0, multiplicity = 1:

       Center              X                  Y                   Z               Mass       
    ------------   -----------------  -----------------  -----------------  -----------------
         P            0.000107127164     0.067984722378     0.000000000000    30.973761998420
         H            0.594074140475    -0.695759551369     1.030867444611     1.007825032230
         H            0.594074140475    -0.695759551369    -1.030867444611     1.007825032230
         H           -1.191440649332    -0.697873939829     0.000000000000     1.007825032230

  Running in cs symmetry.

  Rotational constants: A =      4.49334  B =      4.49328  C =      3.93496 [cm^-1]
  Rotational constants: A = 134706.87892  B = 134704.99952  C = 117967.15655 [MHz]
  Nuclear repulsion =   17.602856165215442

  Charge       = 0
  Multiplicity = 1
  Electrons    = 18
  Nalpha       = 9
  Nbeta        = 9

  ==> Algorithm <==

  SCF Algorithm Type is DF.
  DIIS enabled.
  MOM disabled.
  Fractional occupation disabled.
  Guess Type is SAD.
  Energy threshold   = 1.00e-08
  Density threshold  = 1.00e-08
  Integral threshold = 0.00e+00

  ==> Primary Basis <==

  Basis Set: AUG-CC-PV(Q+D)Z
    Blend: AUG-CC-PV(Q+D)Z
    Number of shells: 65
    Number of basis function: 227
    Number of Cartesian functions: 280
    Spherical Harmonics?: true
    Max angular momentum: 4

  ==> DFT Potential <==

   => Composite Functional: WB97M-V <= 

    wB97M-V Hyb-GGA Exchange-Correlation Functional

    N. Mardirossian and M. Head-Gordon, J. Chem. Phys. 144, 214110 (2016)

    Deriv               =              1
    GGA                 =           TRUE
    Meta                =           TRUE

    Exchange Hybrid     =           TRUE
    MP2 Hybrid          =          FALSE

   => Exchange-Correlation Functionals <=

    1.0000   wB97M-V exchange-correlation functional

   => Exact (HF) Exchange <=

    0.8500            HF,LR [omega = 0.3000]
    0.1500               HF 

   => VV10 Non-Local Parameters <=

    VV10 B              =     6.0000E+00
    VV10 C              =     1.0000E-02

   => Molecular Quadrature <=

    Radial Scheme          =       TREUTLER
    Pruning Scheme         =           FLAT
    Nuclear Scheme         =       TREUTLER

    BS radius alpha        =              1
    Pruning alpha          =              1
    Radial Points          =             75
    Spherical Points       =            302
    Total Points           =          90600
    Total Blocks           =            741
    Max Points             =            255
    Max Functions          =            227

   => Loading Basis Set <=

    Name: (AUG-CC-PV(Q+D)Z AUX)
    Role: JKFIT
    Keyword: DF_BASIS_SCF
    atoms 1   entry P          line   716 file /work/zw18965/.conda/envs/p4env/share/psi4/basis/aug-cc-pvqz-jkfit.gbs 
    atoms 2-4 entry H          line    70 file /work/zw18965/.conda/envs/p4env/share/psi4/basis/aug-cc-pvqz-jkfit.gbs 

  ==> Pre-Iterations <==

   -------------------------------------------------------
    Irrep   Nso     Nmo     Nalpha   Nbeta   Ndocc  Nsocc
   -------------------------------------------------------
     A'       132     132       0       0       0       0
     A"        95      95       0       0       0       0
   -------------------------------------------------------
    Total     227     227       9       9       9       0
   -------------------------------------------------------

  ==> Integral Setup <==

  ==> DiskDFJK: Density-Fitted J/K Matrices <==

    J tasked:                  Yes
    K tasked:                  Yes
    wK tasked:                 Yes
    Omega:               3.000E-01
    OpenMP threads:             24
    Integrals threads:          24
    Memory [MiB]:           101594
    Algorithm:                Core
    Integral Cache:           NONE
    Schwarz Cutoff:          1E-12
    Fitting Condition:       1E-10

   => Auxiliary Basis Set <=

  Basis Set: (AUG-CC-PV(Q+D)Z AUX)
    Blend: AUG-CC-PVQZ-JKFIT
    Number of shells: 100
    Number of basis function: 412
    Number of Cartesian functions: 550
    Spherical Harmonics?: true
    Max angular momentum: 5

  Cached 100.0% of DFT collocation blocks in 1.370 [GiB].

  Minimum eigenvalue in the overlap matrix is 3.8929728946E-05.
  Using Symmetric Orthogonalization.

  SCF Guess: Superposition of Atomic Densities via on-the-fly atomic UHF.

  ==> Iterations <==

                           Total Energy        Delta E     RMS |[F,P]|

   @DF-RKS iter SAD:  -342.77581900560438   -3.42776e+02   0.00000e+00 
   @DF-RKS iter   1:  -343.09053939898831   -3.14720e-01   1.59855e-03 DIIS
   @DF-RKS iter   2:  -343.11799728040495   -2.74579e-02   8.22184e-04 DIIS
   @DF-RKS iter   3:  -343.12518897707702   -7.19170e-03   6.81777e-05 DIIS
   @DF-RKS iter   4:  -343.12542940823164   -2.40431e-04   1.50008e-05 DIIS
   @DF-RKS iter   5:  -343.12543921040168   -9.80217e-06   3.56349e-06 DIIS
   @DF-RKS iter   6:  -343.12543954467532   -3.34274e-07   5.65124e-07 DIIS
   @DF-RKS iter   7:  -343.12543955620237   -1.15270e-08   1.00261e-07 DIIS
   @DF-RKS iter   8:  -343.12543955658981   -3.87445e-10   1.37876e-08 DIIS
   @DF-RKS iter   9:  -343.12543955660095   -1.11413e-11   2.63170e-09 DIIS
  Energy and wave function converged.


  ==> Post-Iterations <==

    Orbital Energies [Eh]
    ---------------------

    Doubly Occupied:                                                      

       1Ap   -77.387020     2Ap    -6.722914     3Ap    -4.835593  
       1App   -4.835588     4Ap    -4.831980     5Ap    -0.762233  
       2App   -0.481001     6Ap    -0.480415     7Ap    -0.369994  

    Virtual:                                                              

       8Ap     0.010091     3App    0.036137     9Ap     0.036163  
      10Ap     0.048738    11Ap     0.056810     4App    0.056925  
      12Ap     0.097331     5App    0.114955    13Ap     0.114966  
      14Ap     0.115782     6App    0.116038    15Ap     0.118244  
       7App    0.179838    16Ap     0.179914    17Ap     0.205369  
      18Ap     0.209242     8App    0.209323    19Ap     0.225825  
       9App    0.227869    20Ap     0.227930    10App    0.233745  
      21Ap     0.271635    11App    0.271703    22Ap     0.272431  
      23Ap     0.325917    24Ap     0.341636    12App    0.341689  
      25Ap     0.366228    13App    0.409642    26Ap     0.409665  
      27Ap     0.423087    28Ap     0.451079    14App    0.470743  
      29Ap     0.470980    15App    0.470982    30Ap     0.489511  
      16App    0.489615    31Ap     0.506147    17App    0.506209  
      32Ap     0.588566    18App    0.615807    33Ap     0.621579  
      34Ap     0.623773    19App    0.623884    35Ap     0.658820  
      20App    0.658843    36Ap     0.685638    21App    0.718022  
      37Ap     0.718078    38Ap     0.734971    22App    0.755346  
      39Ap     0.755665    40Ap     0.833063    41Ap     0.833309  
      23App    0.833488    42Ap     0.856214    24App    0.856818  
      25App    0.865358    26App    0.960120    43Ap     0.960243  
      44Ap     1.014830    27App    1.042388    45Ap     1.042526  
      46Ap     1.056851    28App    1.056852    47Ap     1.072056  
      29App    1.072222    30App    1.113841    48Ap     1.114076  
      49Ap     1.181269    50Ap     1.257773    51Ap     1.297555  
      31App    1.297660    32App    1.302663    52Ap     1.310705  
      33App    1.311153    53Ap     1.318207    34App    1.349631  
      54Ap     1.349644    55Ap     1.392046    56Ap     1.461123  
      57Ap     1.493584    35App    1.493712    36App    1.543883  
      58Ap     1.543999    59Ap     1.581782    60Ap     1.601638  
      37App    1.602392    61Ap     1.655831    38App    1.662334  
      39App    1.707626    62Ap     1.707725    63Ap     1.730215  
      40App    1.730837    41App    1.831379    64Ap     1.831570  
      42App    1.861204    65Ap     1.884577    43App    1.903107  
      66Ap     1.917101    44App    1.917689    67Ap     1.926454  
      45App    1.944287    68Ap     1.944806    69Ap     2.048329  
      46App    2.077299    70Ap     2.077384    71Ap     2.098265  
      47App    2.098904    48App    2.160005    49App    2.164799  
      72Ap     2.165059    73Ap     2.233501    50App    2.282350  
      74Ap     2.282726    51App    2.385178    75Ap     2.385225  
      76Ap     2.403602    52App    2.522667    77Ap     2.529454  
      53App    2.530143    54App    2.603775    78Ap     2.604044  
      79Ap     2.648178    80Ap     2.803177    55App    2.804392  
      81Ap     2.809680    82Ap     2.908446    56App    2.908980  
      83Ap     2.926268    84Ap     2.972654    57App    3.020987  
      85Ap     3.021395    58App    3.035319    86Ap     3.091913  
      59App    3.092483    87Ap     3.128658    60App    3.186486  
      88Ap     3.198280    61App    3.199132    89Ap     3.211146  
      90Ap     3.336719    62App    3.338237    91Ap     3.426751  
      63App    3.427359    64App    3.492203    92Ap     3.501256  
      65App    3.562102    93Ap     3.562875    94Ap     3.673143  
      95Ap     3.779646    66App    3.780237    96Ap     4.006798  
      67App    4.009949    97Ap     4.009975    98Ap     4.146193  
      68App    4.147051    69App    4.259810    99Ap     4.265241  
      70App    4.314955   100Ap     4.315680    71App    6.307864  
     101Ap     6.308174    72App    6.320587   102Ap     6.344663  
      73App    6.344897   103Ap     6.363842    74App    6.375206  
     104Ap     6.390593    75App    6.395855   105Ap     6.396029  
     106Ap     6.531325    76App    6.534104   107Ap     6.620962  
      77App    6.622736   108Ap     6.725356    78App    6.852710  
     109Ap     6.852899   110Ap     6.934786   111Ap     7.022856  
      79App    7.023301   112Ap     7.050421    80App    7.136329  
     113Ap     7.266898    81App    7.269099   114Ap     7.614719  
     115Ap     7.665403    82App    7.665723   116Ap     7.849783  
     117Ap     7.891356    83App    7.894567    84App    8.080312  
     118Ap     8.114646    85App    8.117183   119Ap     8.143856  
      86App    8.144548    87App    8.241495   120Ap     8.243457  
     121Ap     8.279056   122Ap     8.413064    88App    8.413144  
      89App    8.553968   123Ap     8.554276    90App    8.587808  
     124Ap     8.631219   125Ap     8.950038   126Ap     8.982350  
      91App    8.982478    92App    8.988889    93App    9.268097  
     127Ap     9.269157   128Ap     9.300943   129Ap     9.355533  
      94App    9.355568   130Ap     9.754827   131Ap    11.015561  
      95App   11.030211   132Ap    18.167780  

    Final Occupation by Irrep:
             Ap   App 
    DOCC [     7,    2 ]

  @DF-RKS Final Energy:  -343.12543955660095

   => Energetics <=

    Nuclear Repulsion Energy =             17.6028561652154423
    One-Electron Energy =                -508.5679404601238502
    Two-Electron Energy =                 166.1631618934386836
    DFT Exchange-Correlation Energy =     -18.3988755869866338
    Empirical Dispersion Energy =           0.0000000000000000
    VV10 Nonlocal Energy =                  0.0753584318553695
    Total Energy =                       -343.1254395566009521

Computation Completed


Properties will be evaluated at   0.000000,   0.000000,   0.000000 [a0]

Properties computed using the SCF density matrix

  Nuclear Dipole Moment: [e a0]
     X:    -0.0032      Y:    -2.0213      Z:     0.0000

  Electronic Dipole Moment: [e a0]
     X:     0.0045      Y:     1.7981      Z:     0.0000

  Dipole Moment: [e a0]
     X:     0.0014      Y:    -0.2232      Z:     0.0000     Total:     0.2232

  Dipole Moment: [D]
     X:     0.0034      Y:    -0.5674      Z:     0.0000     Total:     0.5674


*** tstop() called on bp1-compute00048.data.bp.acrc.priv at Tue Apr 27 16:54:05 2021
Module time:
	user time   =     133.02 seconds =       2.22 minutes
	system time =       5.63 seconds =       0.09 minutes
	total time  =          6 seconds =       0.10 minutes
Total time:
	user time   =     414.85 seconds =       6.91 minutes
	system time =      20.04 seconds =       0.33 minutes
	total time  =         20 seconds =       0.33 minutes

  //>>>>>>>>>>>>>>>>>>>>>>>>>>>>>>>>>>>//
  //    Loading displacement 4 of 9    //
  //<<<<<<<<<<<<<<<<<<<<<<<<<<<<<<<<<<<//

*** tstart() called on bp1-compute00048.data.bp.acrc.priv
*** at Tue Apr 27 16:54:05 2021

   => Loading Basis Set <=

    Name: AUG-CC-PV(Q+D)Z
    Role: ORBITAL
    Keyword: BASIS
    atoms 1   entry P          line  1050 file /work/zw18965/.conda/envs/p4env/share/psi4/basis/aug-cc-pv_qpd_z.gbs 
    atoms 2-4 entry H          line    56 file /work/zw18965/.conda/envs/p4env/share/psi4/basis/aug-cc-pv_qpd_z.gbs 


         ---------------------------------------------------------
                                   SCF
               by Justin Turney, Rob Parrish, Andy Simmonett
                          and Daniel G. A. Smith
                              RKS Reference
                       24 Threads, 137329 MiB Core
         ---------------------------------------------------------

  ==> Geometry <==

    Molecular point group: cs
    Full point group: C3v

    Geometry (in Angstrom), charge = 0, multiplicity = 1:

       Center              X                  Y                   Z               Mass       
    ------------   -----------------  -----------------  -----------------  -----------------
         P            0.000000000001     0.067842945456     0.000000000000    30.973761998420
         H            0.595171596587    -0.695011924562     1.030867444611     1.007825032230
         H            0.595171596587    -0.695011924562    -1.030867444611     1.007825032230
         H           -1.190343193220    -0.695011924562     0.000000000000     1.007825032230

  Running in cs symmetry.

  Rotational constants: A =      4.50133  B =      4.50133  C =      3.93501 [cm^-1]
  Rotational constants: A = 134946.49342  B = 134946.49341  C = 117968.59793 [MHz]
  Nuclear repulsion =   17.613095820028434

  Charge       = 0
  Multiplicity = 1
  Electrons    = 18
  Nalpha       = 9
  Nbeta        = 9

  ==> Algorithm <==

  SCF Algorithm Type is DF.
  DIIS enabled.
  MOM disabled.
  Fractional occupation disabled.
  Guess Type is SAD.
  Energy threshold   = 1.00e-08
  Density threshold  = 1.00e-08
  Integral threshold = 0.00e+00

  ==> Primary Basis <==

  Basis Set: AUG-CC-PV(Q+D)Z
    Blend: AUG-CC-PV(Q+D)Z
    Number of shells: 65
    Number of basis function: 227
    Number of Cartesian functions: 280
    Spherical Harmonics?: true
    Max angular momentum: 4

  ==> DFT Potential <==

   => Composite Functional: WB97M-V <= 

    wB97M-V Hyb-GGA Exchange-Correlation Functional

    N. Mardirossian and M. Head-Gordon, J. Chem. Phys. 144, 214110 (2016)

    Deriv               =              1
    GGA                 =           TRUE
    Meta                =           TRUE

    Exchange Hybrid     =           TRUE
    MP2 Hybrid          =          FALSE

   => Exchange-Correlation Functionals <=

    1.0000   wB97M-V exchange-correlation functional

   => Exact (HF) Exchange <=

    0.8500            HF,LR [omega = 0.3000]
    0.1500               HF 

   => VV10 Non-Local Parameters <=

    VV10 B              =     6.0000E+00
    VV10 C              =     1.0000E-02

   => Molecular Quadrature <=

    Radial Scheme          =       TREUTLER
    Pruning Scheme         =           FLAT
    Nuclear Scheme         =       TREUTLER

    BS radius alpha        =              1
    Pruning alpha          =              1
    Radial Points          =             75
    Spherical Points       =            302
    Total Points           =          90600
    Total Blocks           =            744
    Max Points             =            254
    Max Functions          =            227

   => Loading Basis Set <=

    Name: (AUG-CC-PV(Q+D)Z AUX)
    Role: JKFIT
    Keyword: DF_BASIS_SCF
    atoms 1   entry P          line   716 file /work/zw18965/.conda/envs/p4env/share/psi4/basis/aug-cc-pvqz-jkfit.gbs 
    atoms 2-4 entry H          line    70 file /work/zw18965/.conda/envs/p4env/share/psi4/basis/aug-cc-pvqz-jkfit.gbs 

  ==> Pre-Iterations <==

   -------------------------------------------------------
    Irrep   Nso     Nmo     Nalpha   Nbeta   Ndocc  Nsocc
   -------------------------------------------------------
     A'       132     132       0       0       0       0
     A"        95      95       0       0       0       0
   -------------------------------------------------------
    Total     227     227       9       9       9       0
   -------------------------------------------------------

  ==> Integral Setup <==

  ==> DiskDFJK: Density-Fitted J/K Matrices <==

    J tasked:                  Yes
    K tasked:                  Yes
    wK tasked:                 Yes
    Omega:               3.000E-01
    OpenMP threads:             24
    Integrals threads:          24
    Memory [MiB]:           101593
    Algorithm:                Core
    Integral Cache:           NONE
    Schwarz Cutoff:          1E-12
    Fitting Condition:       1E-10

   => Auxiliary Basis Set <=

  Basis Set: (AUG-CC-PV(Q+D)Z AUX)
    Blend: AUG-CC-PVQZ-JKFIT
    Number of shells: 100
    Number of basis function: 412
    Number of Cartesian functions: 550
    Spherical Harmonics?: true
    Max angular momentum: 5

  Cached 100.0% of DFT collocation blocks in 1.370 [GiB].

  Minimum eigenvalue in the overlap matrix is 3.8793767124E-05.
  Using Symmetric Orthogonalization.

  SCF Guess: Superposition of Atomic Densities via on-the-fly atomic UHF.

  ==> Iterations <==

                           Total Energy        Delta E     RMS |[F,P]|

   @DF-RKS iter SAD:  -342.77663999688536   -3.42777e+02   0.00000e+00 
   @DF-RKS iter   1:  -343.09051617796706   -3.13876e-01   1.59942e-03 DIIS
   @DF-RKS iter   2:  -343.11800784072113   -2.74917e-02   8.22150e-04 DIIS
   @DF-RKS iter   3:  -343.12519175790737   -7.18392e-03   6.82220e-05 DIIS
   @DF-RKS iter   4:  -343.12543237624647   -2.40618e-04   1.49794e-05 DIIS
   @DF-RKS iter   5:  -343.12544216447014   -9.78822e-06   3.55988e-06 DIIS
   @DF-RKS iter   6:  -343.12544249759634   -3.33126e-07   5.65252e-07 DIIS
   @DF-RKS iter   7:  -343.12544250912094   -1.15246e-08   1.00426e-07 DIIS
   @DF-RKS iter   8:  -343.12544250950947   -3.88525e-10   1.36733e-08 DIIS
   @DF-RKS iter   9:  -343.12544250951981   -1.03455e-11   2.41194e-09 DIIS
  Energy and wave function converged.


  ==> Post-Iterations <==

    Orbital Energies [Eh]
    ---------------------

    Doubly Occupied:                                                      

       1Ap   -77.386818     2Ap    -6.722777     3Ap    -4.835452  
       1App   -4.835452     4Ap    -4.831837     5Ap    -0.762395  
       6Ap    -0.480979     2App   -0.480979     7Ap    -0.369788  

    Virtual:                                                              

       8Ap     0.010099     9Ap     0.036138     3App    0.036138  
      10Ap     0.048758    11Ap     0.056916     4App    0.056917  
      12Ap     0.097356    13Ap     0.114928     5App    0.114928  
      14Ap     0.116028     6App    0.116028    15Ap     0.118268  
       7App    0.179839    16Ap     0.179839    17Ap     0.205358  
      18Ap     0.209320     8App    0.209321    19Ap     0.225885  
      20Ap     0.227955     9App    0.227957    10App    0.233700  
      21Ap     0.271685    11App    0.271688    22Ap     0.272563  
      23Ap     0.325886    12App    0.341670    24Ap     0.341670  
      25Ap     0.366145    26Ap     0.409709    13App    0.409717  
      27Ap     0.423229    28Ap     0.450917    14App    0.470859  
      15App    0.471010    29Ap     0.471010    30Ap     0.489637  
      16App    0.489638    31Ap     0.506204    17App    0.506206  
      32Ap     0.588728    18App    0.615777    33Ap     0.621645  
      34Ap     0.623921    19App    0.623924    20App    0.658864  
      35Ap     0.658864    36Ap     0.685850    21App    0.718000  
      37Ap     0.718004    38Ap     0.735241    39Ap     0.755346  
      22App    0.755348    40Ap     0.833151    41Ap     0.833497  
      23App    0.833500    42Ap     0.856869    24App    0.856870  
      25App    0.865585    26App    0.960118    43Ap     0.960118  
      44Ap     1.014368    45Ap     1.042472    27App    1.042473  
      46Ap     1.056798    28App    1.056800    29App    1.072012  
      47Ap     1.072263    48Ap     1.114411    30App    1.114412  
      49Ap     1.181661    50Ap     1.257967    51Ap     1.297727  
      31App    1.297740    32App    1.302873    52Ap     1.311220  
      33App    1.311220    53Ap     1.318397    34App    1.349768  
      54Ap     1.349768    55Ap     1.391721    56Ap     1.461273  
      57Ap     1.493779    35App    1.493784    36App    1.544085  
      58Ap     1.544090    59Ap     1.582887    37App    1.602482  
      60Ap     1.602483    61Ap     1.655621    38App    1.662647  
      62Ap     1.708186    39App    1.708189    63Ap     1.730556  
      40App    1.730563    64Ap     1.831235    41App    1.831238  
      42App    1.861535    65Ap     1.884165    43App    1.903220  
      44App    1.917457    66Ap     1.917459    67Ap     1.926330  
      68Ap     1.944513    45App    1.944515    69Ap     2.048895  
      70Ap     2.077316    46App    2.077318    47App    2.098124  
      71Ap     2.098130    48App    2.160067    72Ap     2.164699  
      49App    2.164716    73Ap     2.234604    74Ap     2.282612  
      50App    2.282623    51App    2.386230    75Ap     2.386233  
      76Ap     2.404199    52App    2.522813    53App    2.530929  
      77Ap     2.530932    54App    2.604855    78Ap     2.604868  
      79Ap     2.648198    55App    2.804639    80Ap     2.804643  
      81Ap     2.810274    56App    2.909195    82Ap     2.909199  
      83Ap     2.926479    84Ap     2.972149    57App    3.021838  
      85Ap     3.021844    58App    3.035901    86Ap     3.092537  
      59App    3.092553    87Ap     3.129437    60App    3.186939  
      61App    3.198686    88Ap     3.198696    89Ap     3.212134  
      90Ap     3.338468    62App    3.338469    63App    3.428022  
      91Ap     3.428047    64App    3.492728    92Ap     3.500918  
      93Ap     3.563387    65App    3.563407    94Ap     3.673150  
      95Ap     3.780528    66App    3.780562    96Ap     4.009744  
      97Ap     4.010436    67App    4.010452    68App    4.147153  
      98Ap     4.147170    69App    4.261668    99Ap     4.266358  
      70App    4.315955   100Ap     4.315956    71App    6.307940  
     101Ap     6.307955    72App    6.321032   102Ap     6.344559  
      73App    6.344592   103Ap     6.364028    74App    6.375344  
     104Ap     6.390696   105Ap     6.395642    75App    6.395680  
      76App    6.534490   106Ap     6.534567   107Ap     6.623174  
      77App    6.623175   108Ap     6.725800    78App    6.853362  
     109Ap     6.853482   110Ap     6.936436   111Ap     7.023662  
      79App    7.023777   112Ap     7.049828    80App    7.138479  
     113Ap     7.270110    81App    7.270127   114Ap     7.615273  
     115Ap     7.666781    82App    7.666812   116Ap     7.852329  
     117Ap     7.895018    83App    7.895018    84App    8.081539  
     118Ap     8.117729    85App    8.117766    86App    8.145023  
     119Ap     8.145099    87App    8.244321   120Ap     8.244404  
     121Ap     8.280504    88App    8.414959   122Ap     8.415096  
     123Ap     8.554294    89App    8.554305    90App    8.588792  
     124Ap     8.632485   125Ap     8.951251   126Ap     8.982840  
      91App    8.982841    92App    8.989103   127Ap     9.269364  
      93App    9.269412   128Ap     9.301245    94App    9.356371  
     129Ap     9.356482   130Ap     9.757781   131Ap    11.030277  
      95App   11.030362   132Ap    18.181434  

    Final Occupation by Irrep:
             Ap   App 
    DOCC [     7,    2 ]

  @DF-RKS Final Energy:  -343.12544250951981

   => Energetics <=

    Nuclear Repulsion Energy =             17.6130958200284340
    One-Electron Energy =                -508.5886362769235802
    Two-Electron Energy =                 166.1741528480093848
    DFT Exchange-Correlation Energy =     -18.3994140602963867
    Empirical Dispersion Energy =           0.0000000000000000
    VV10 Nonlocal Energy =                  0.0753591596623453
    Total Energy =                       -343.1254425095198144

Computation Completed


Properties will be evaluated at   0.000000,   0.000000,   0.000000 [a0]

Properties computed using the SCF density matrix

  Nuclear Dipole Moment: [e a0]
     X:    -0.0000      Y:    -2.0171      Z:     0.0000

  Electronic Dipole Moment: [e a0]
     X:     0.0000      Y:     1.7927      Z:     0.0000

  Dipole Moment: [e a0]
     X:     0.0000      Y:    -0.2244      Z:     0.0000     Total:     0.2244

  Dipole Moment: [D]
     X:     0.0000      Y:    -0.5703      Z:     0.0000     Total:     0.5703


*** tstop() called on bp1-compute00048.data.bp.acrc.priv at Tue Apr 27 16:54:11 2021
Module time:
	user time   =     138.46 seconds =       2.31 minutes
	system time =       4.49 seconds =       0.07 minutes
	total time  =          6 seconds =       0.10 minutes
Total time:
	user time   =     553.45 seconds =       9.22 minutes
	system time =      24.54 seconds =       0.41 minutes
	total time  =         26 seconds =       0.43 minutes

  //>>>>>>>>>>>>>>>>>>>>>>>>>>>>>>>>>>>//
  //    Loading displacement 5 of 9    //
  //<<<<<<<<<<<<<<<<<<<<<<<<<<<<<<<<<<<//

*** tstart() called on bp1-compute00048.data.bp.acrc.priv
*** at Tue Apr 27 16:54:11 2021

   => Loading Basis Set <=

    Name: AUG-CC-PV(Q+D)Z
    Role: ORBITAL
    Keyword: BASIS
    atoms 1   entry P          line  1050 file /work/zw18965/.conda/envs/p4env/share/psi4/basis/aug-cc-pv_qpd_z.gbs 
    atoms 2-4 entry H          line    56 file /work/zw18965/.conda/envs/p4env/share/psi4/basis/aug-cc-pv_qpd_z.gbs 


         ---------------------------------------------------------
                                   SCF
               by Justin Turney, Rob Parrish, Andy Simmonett
                          and Daniel G. A. Smith
                              RKS Reference
                       24 Threads, 137329 MiB Core
         ---------------------------------------------------------

  ==> Geometry <==

    Molecular point group: cs
    Full point group: C3v

    Geometry (in Angstrom), charge = 0, multiplicity = 1:

       Center              X                  Y                   Z               Mass       
    ------------   -----------------  -----------------  -----------------  -----------------
         P            0.000000000001     0.068126499300     0.000000000000    30.973761998420
         H            0.595171596587    -0.697916770482     1.030867444611     1.007825032230
         H            0.595171596587    -0.697916770482    -1.030867444611     1.007825032230
         H           -1.190343193220    -0.697916770482     0.000000000000     1.007825032230

  Running in cs symmetry.

  Rotational constants: A =      4.48525  B =      4.48525  C =      3.93501 [cm^-1]
  Rotational constants: A = 134464.36840  B = 134464.36839  C = 117968.59793 [MHz]
  Nuclear repulsion =   17.592595224261025

  Charge       = 0
  Multiplicity = 1
  Electrons    = 18
  Nalpha       = 9
  Nbeta        = 9

  ==> Algorithm <==

  SCF Algorithm Type is DF.
  DIIS enabled.
  MOM disabled.
  Fractional occupation disabled.
  Guess Type is SAD.
  Energy threshold   = 1.00e-08
  Density threshold  = 1.00e-08
  Integral threshold = 0.00e+00

  ==> Primary Basis <==

  Basis Set: AUG-CC-PV(Q+D)Z
    Blend: AUG-CC-PV(Q+D)Z
    Number of shells: 65
    Number of basis function: 227
    Number of Cartesian functions: 280
    Spherical Harmonics?: true
    Max angular momentum: 4

  ==> DFT Potential <==

   => Composite Functional: WB97M-V <= 

    wB97M-V Hyb-GGA Exchange-Correlation Functional

    N. Mardirossian and M. Head-Gordon, J. Chem. Phys. 144, 214110 (2016)

    Deriv               =              1
    GGA                 =           TRUE
    Meta                =           TRUE

    Exchange Hybrid     =           TRUE
    MP2 Hybrid          =          FALSE

   => Exchange-Correlation Functionals <=

    1.0000   wB97M-V exchange-correlation functional

   => Exact (HF) Exchange <=

    0.8500            HF,LR [omega = 0.3000]
    0.1500               HF 

   => VV10 Non-Local Parameters <=

    VV10 B              =     6.0000E+00
    VV10 C              =     1.0000E-02

   => Molecular Quadrature <=

    Radial Scheme          =       TREUTLER
    Pruning Scheme         =           FLAT
    Nuclear Scheme         =       TREUTLER

    BS radius alpha        =              1
    Pruning alpha          =              1
    Radial Points          =             75
    Spherical Points       =            302
    Total Points           =          90600
    Total Blocks           =            744
    Max Points             =            254
    Max Functions          =            227

   => Loading Basis Set <=

    Name: (AUG-CC-PV(Q+D)Z AUX)
    Role: JKFIT
    Keyword: DF_BASIS_SCF
    atoms 1   entry P          line   716 file /work/zw18965/.conda/envs/p4env/share/psi4/basis/aug-cc-pvqz-jkfit.gbs 
    atoms 2-4 entry H          line    70 file /work/zw18965/.conda/envs/p4env/share/psi4/basis/aug-cc-pvqz-jkfit.gbs 

  ==> Pre-Iterations <==

   -------------------------------------------------------
    Irrep   Nso     Nmo     Nalpha   Nbeta   Ndocc  Nsocc
   -------------------------------------------------------
     A'       132     132       0       0       0       0
     A"        95      95       0       0       0       0
   -------------------------------------------------------
    Total     227     227       9       9       9       0
   -------------------------------------------------------

  ==> Integral Setup <==

  ==> DiskDFJK: Density-Fitted J/K Matrices <==

    J tasked:                  Yes
    K tasked:                  Yes
    wK tasked:                 Yes
    Omega:               3.000E-01
    OpenMP threads:             24
    Integrals threads:          24
    Memory [MiB]:           101594
    Algorithm:                Core
    Integral Cache:           NONE
    Schwarz Cutoff:          1E-12
    Fitting Condition:       1E-10

   => Auxiliary Basis Set <=

  Basis Set: (AUG-CC-PV(Q+D)Z AUX)
    Blend: AUG-CC-PVQZ-JKFIT
    Number of shells: 100
    Number of basis function: 412
    Number of Cartesian functions: 550
    Spherical Harmonics?: true
    Max angular momentum: 5

  Cached 100.0% of DFT collocation blocks in 1.370 [GiB].

  Minimum eigenvalue in the overlap matrix is 3.9068498174E-05.
  Using Symmetric Orthogonalization.

  SCF Guess: Superposition of Atomic Densities via on-the-fly atomic UHF.

  ==> Iterations <==

                           Total Energy        Delta E     RMS |[F,P]|

   @DF-RKS iter SAD:  -342.77499741752104   -3.42775e+02   0.00000e+00 
   @DF-RKS iter   1:  -343.09056484375975   -3.15567e-01   1.59766e-03 DIIS
   @DF-RKS iter   2:  -343.11798846883880   -2.74236e-02   8.22210e-04 DIIS
   @DF-RKS iter   3:  -343.12518773662595   -7.19927e-03   6.81326e-05 DIIS
   @DF-RKS iter   4:  -343.12542797900574   -2.40242e-04   1.50208e-05 DIIS
   @DF-RKS iter   5:  -343.12543779436049   -9.81535e-06   3.56636e-06 DIIS
   @DF-RKS iter   6:  -343.12543812965134   -3.35291e-07   5.64773e-07 DIIS
   @DF-RKS iter   7:  -343.12543814117237   -1.15210e-08   9.99253e-08 DIIS
   @DF-RKS iter   8:  -343.12543814155885   -3.86478e-10   1.36808e-08 DIIS
   @DF-RKS iter   9:  -343.12543814156902   -1.01750e-11   2.42708e-09 DIIS
  Energy and wave function converged.


  ==> Post-Iterations <==

    Orbital Energies [Eh]
    ---------------------

    Doubly Occupied:                                                      

       1Ap   -77.387223     2Ap    -6.723052     3Ap    -4.835730  
       1App   -4.835729     4Ap    -4.832124     5Ap    -0.762069  
       6Ap    -0.480437     2App   -0.480437     7Ap    -0.370199  

    Virtual:                                                              

       8Ap     0.010084     9Ap     0.036161     3App    0.036162  
      10Ap     0.048718    11Ap     0.056818     4App    0.056819  
      12Ap     0.097306    13Ap     0.114992     5App    0.114992  
      14Ap     0.115793     6App    0.115793    15Ap     0.118219  
       7App    0.179913    16Ap     0.179913    17Ap     0.205381  
      18Ap     0.209245     8App    0.209246    19Ap     0.225765  
      20Ap     0.227841     9App    0.227843    10App    0.233790  
      21Ap     0.271661    11App    0.271665    22Ap     0.272276  
      23Ap     0.325948    12App    0.341656    24Ap     0.341656  
      25Ap     0.366312    26Ap     0.409590    13App    0.409597  
      27Ap     0.422946    28Ap     0.451241    14App    0.470665  
      15App    0.470932    29Ap     0.470933    30Ap     0.489488  
      16App    0.489489    31Ap     0.506149    17App    0.506151  
      32Ap     0.588405    18App    0.615839    33Ap     0.621515  
      34Ap     0.623732    19App    0.623735    20App    0.658799  
      35Ap     0.658799    36Ap     0.685426    21App    0.718094  
      37Ap     0.718098    38Ap     0.734703    39Ap     0.755664  
      22App    0.755666    40Ap     0.833069    41Ap     0.833252  
      23App    0.833254    42Ap     0.856160    24App    0.856161  
      25App    0.865127    26App    0.960246    43Ap     0.960246  
      44Ap     1.015294    45Ap     1.042445    27App    1.042446  
      46Ap     1.056905    28App    1.056907    47Ap     1.071845  
      29App    1.072434    48Ap     1.113499    30App    1.113500  
      49Ap     1.180876    50Ap     1.257579    51Ap     1.297477  
      31App    1.297490    32App    1.302445    52Ap     1.310639  
      33App    1.310639    53Ap     1.318017    34App    1.349507  
      54Ap     1.349507    55Ap     1.392372    56Ap     1.460977  
      57Ap     1.493512    35App    1.493517    36App    1.543797  
      58Ap     1.543802    59Ap     1.580680    37App    1.601541  
      60Ap     1.601542    61Ap     1.656038    38App    1.662025  
      62Ap     1.707156    39App    1.707159    63Ap     1.730486  
      40App    1.730493    64Ap     1.831713    41App    1.831716  
      42App    1.860873    65Ap     1.884993    43App    1.902998  
      44App    1.917337    66Ap     1.917339    67Ap     1.926587  
      68Ap     1.944573    45App    1.944574    69Ap     2.047755  
      70Ap     2.077367    46App    2.077368    47App    2.099036  
      71Ap     2.099042    48App    2.159951    72Ap     2.165146  
      49App    2.165163    73Ap     2.232428    74Ap     2.282430  
      50App    2.282441    51App    2.384182    75Ap     2.384185  
      76Ap     2.402975    52App    2.522530    53App    2.528680  
      77Ap     2.528682    54App    2.602946    78Ap     2.602959  
      79Ap     2.648158    55App    2.802928    80Ap     2.802932  
      81Ap     2.809075    56App    2.908255    82Ap     2.908259  
      83Ap     2.926006    84Ap     2.973160    57App    3.020543  
      85Ap     3.020549    58App    3.034727    86Ap     3.091839  
      59App    3.091856    87Ap     3.127865    60App    3.186053  
      61App    3.198752    88Ap     3.198762    89Ap     3.210078  
      90Ap     3.336490    62App    3.336492    63App    3.426057  
      91Ap     3.426083    64App    3.491667    92Ap     3.501580  
      93Ap     3.561572    65App    3.561593    94Ap     3.673153  
      95Ap     3.779315    66App    3.779349    96Ap     4.006804  
      97Ap     4.007985    67App    4.008001    68App    4.146093  
      98Ap     4.146109    69App    4.257988    99Ap     4.264150  
      70App    4.314629   100Ap     4.314629    71App    6.308080  
     101Ap     6.308093    72App    6.320187   102Ap     6.344953  
      73App    6.344985   103Ap     6.363640    74App    6.375082  
     104Ap     6.390478   105Ap     6.396200    75App    6.396240  
      76App    6.530909   106Ap     6.530986   107Ap     6.620524  
      77App    6.620527   108Ap     6.724915    78App    6.852115  
     109Ap     6.852234   110Ap     6.933161   111Ap     7.022411  
      79App    7.022529   112Ap     7.051032    80App    7.134162  
     113Ap     7.265808    81App    7.265828   114Ap     7.614204  
     115Ap     7.664268    82App    7.664298   116Ap     7.847587  
      83App    7.890711   117Ap     7.890712    84App    8.079153  
     118Ap     8.114082    85App    8.114114    86App    8.143326  
     119Ap     8.143406    87App    8.240569   120Ap     8.240653  
     121Ap     8.277569    88App    8.411117   122Ap     8.411253  
     123Ap     8.553951    89App    8.553951    90App    8.586827  
     124Ap     8.629941   125Ap     8.948867   126Ap     8.981941  
      91App    8.981943    92App    8.988630   127Ap     9.267758  
      93App    9.267804   128Ap     9.300641    94App    9.354712  
     129Ap     9.354823   130Ap     9.751863   131Ap    11.015383  
      95App   11.015469   132Ap    18.154029  

    Final Occupation by Irrep:
             Ap   App 
    DOCC [     7,    2 ]

  @DF-RKS Final Energy:  -343.12543814156902

   => Energetics <=

    Nuclear Repulsion Energy =             17.5925952242610251
    One-Electron Energy =                -508.5472047901775454
    Two-Electron Energy =                 166.1521488398620079
    DFT Exchange-Correlation Energy =     -18.3983351166785383
    Empirical Dispersion Energy =           0.0000000000000000
    VV10 Nonlocal Energy =                  0.0753577011640678
    Total Energy =                       -343.1254381415689636

Computation Completed


Properties will be evaluated at   0.000000,   0.000000,   0.000000 [a0]

Properties computed using the SCF density matrix

  Nuclear Dipole Moment: [e a0]
     X:    -0.0000      Y:    -2.0255      Z:     0.0000

  Electronic Dipole Moment: [e a0]
     X:     0.0000      Y:     1.8034      Z:     0.0000

  Dipole Moment: [e a0]
     X:     0.0000      Y:    -0.2221      Z:     0.0000     Total:     0.2221

  Dipole Moment: [D]
     X:     0.0000      Y:    -0.5645      Z:     0.0000     Total:     0.5645


*** tstop() called on bp1-compute00048.data.bp.acrc.priv at Tue Apr 27 16:54:17 2021
Module time:
	user time   =     131.10 seconds =       2.19 minutes
	system time =       3.12 seconds =       0.05 minutes
	total time  =          6 seconds =       0.10 minutes
Total time:
	user time   =     684.71 seconds =      11.41 minutes
	system time =      27.66 seconds =       0.46 minutes
	total time  =         32 seconds =       0.53 minutes

  //>>>>>>>>>>>>>>>>>>>>>>>>>>>>>>>>>>>//
  //    Loading displacement 6 of 9    //
  //<<<<<<<<<<<<<<<<<<<<<<<<<<<<<<<<<<<//

*** tstart() called on bp1-compute00048.data.bp.acrc.priv
*** at Tue Apr 27 16:54:17 2021

   => Loading Basis Set <=

    Name: AUG-CC-PV(Q+D)Z
    Role: ORBITAL
    Keyword: BASIS
    atoms 1   entry P          line  1050 file /work/zw18965/.conda/envs/p4env/share/psi4/basis/aug-cc-pv_qpd_z.gbs 
    atoms 2-4 entry H          line    56 file /work/zw18965/.conda/envs/p4env/share/psi4/basis/aug-cc-pv_qpd_z.gbs 


         ---------------------------------------------------------
                                   SCF
               by Justin Turney, Rob Parrish, Andy Simmonett
                          and Daniel G. A. Smith
                              RKS Reference
                       24 Threads, 137329 MiB Core
         ---------------------------------------------------------

  ==> Geometry <==

    Molecular point group: cs
    Full point group: Cs

    Geometry (in Angstrom), charge = 0, multiplicity = 1:

       Center              X                  Y                   Z               Mass       
    ------------   -----------------  -----------------  -----------------  -----------------
         P            0.000000000001     0.067984722378     0.000000000000    30.973761998420
         H            0.594095619703    -0.696464347522     1.030867444611     1.007825032230
         H            0.594095619703    -0.696464347522    -1.030867444611     1.007825032230
         H           -1.188191239451    -0.696464347522     0.000000000000     1.007825032230

  Running in cs symmetry.

  Rotational constants: A =      4.50257  B =      4.49328  C =      3.94213 [cm^-1]
  Rotational constants: A = 134983.64962  B = 134705.25086  C = 118182.05942 [MHz]
  Nuclear repulsion =   17.614322033411948

  Charge       = 0
  Multiplicity = 1
  Electrons    = 18
  Nalpha       = 9
  Nbeta        = 9

  ==> Algorithm <==

  SCF Algorithm Type is DF.
  DIIS enabled.
  MOM disabled.
  Fractional occupation disabled.
  Guess Type is SAD.
  Energy threshold   = 1.00e-08
  Density threshold  = 1.00e-08
  Integral threshold = 0.00e+00

  ==> Primary Basis <==

  Basis Set: AUG-CC-PV(Q+D)Z
    Blend: AUG-CC-PV(Q+D)Z
    Number of shells: 65
    Number of basis function: 227
    Number of Cartesian functions: 280
    Spherical Harmonics?: true
    Max angular momentum: 4

  ==> DFT Potential <==

   => Composite Functional: WB97M-V <= 

    wB97M-V Hyb-GGA Exchange-Correlation Functional

    N. Mardirossian and M. Head-Gordon, J. Chem. Phys. 144, 214110 (2016)

    Deriv               =              1
    GGA                 =           TRUE
    Meta                =           TRUE

    Exchange Hybrid     =           TRUE
    MP2 Hybrid          =          FALSE

   => Exchange-Correlation Functionals <=

    1.0000   wB97M-V exchange-correlation functional

   => Exact (HF) Exchange <=

    0.8500            HF,LR [omega = 0.3000]
    0.1500               HF 

   => VV10 Non-Local Parameters <=

    VV10 B              =     6.0000E+00
    VV10 C              =     1.0000E-02

   => Molecular Quadrature <=

    Radial Scheme          =       TREUTLER
    Pruning Scheme         =           FLAT
    Nuclear Scheme         =       TREUTLER

    BS radius alpha        =              1
    Pruning alpha          =              1
    Radial Points          =             75
    Spherical Points       =            302
    Total Points           =          90600
    Total Blocks           =            745
    Max Points             =            256
    Max Functions          =            227

   => Loading Basis Set <=

    Name: (AUG-CC-PV(Q+D)Z AUX)
    Role: JKFIT
    Keyword: DF_BASIS_SCF
    atoms 1   entry P          line   716 file /work/zw18965/.conda/envs/p4env/share/psi4/basis/aug-cc-pvqz-jkfit.gbs 
    atoms 2-4 entry H          line    70 file /work/zw18965/.conda/envs/p4env/share/psi4/basis/aug-cc-pvqz-jkfit.gbs 

  ==> Pre-Iterations <==

   -------------------------------------------------------
    Irrep   Nso     Nmo     Nalpha   Nbeta   Ndocc  Nsocc
   -------------------------------------------------------
     A'       132     132       0       0       0       0
     A"        95      95       0       0       0       0
   -------------------------------------------------------
    Total     227     227       9       9       9       0
   -------------------------------------------------------

  ==> Integral Setup <==

  ==> DiskDFJK: Density-Fitted J/K Matrices <==

    J tasked:                  Yes
    K tasked:                  Yes
    wK tasked:                 Yes
    Omega:               3.000E-01
    OpenMP threads:             24
    Integrals threads:          24
    Memory [MiB]:           101593
    Algorithm:                Core
    Integral Cache:           NONE
    Schwarz Cutoff:          1E-12
    Fitting Condition:       1E-10

   => Auxiliary Basis Set <=

  Basis Set: (AUG-CC-PV(Q+D)Z AUX)
    Blend: AUG-CC-PVQZ-JKFIT
    Number of shells: 100
    Number of basis function: 412
    Number of Cartesian functions: 550
    Spherical Harmonics?: true
    Max angular momentum: 5

  Cached 100.0% of DFT collocation blocks in 1.370 [GiB].

  Minimum eigenvalue in the overlap matrix is 3.8804594266E-05.
  Using Symmetric Orthogonalization.

  SCF Guess: Superposition of Atomic Densities via on-the-fly atomic UHF.

  ==> Iterations <==

                           Total Energy        Delta E     RMS |[F,P]|

   @DF-RKS iter SAD:  -342.77689861838240   -3.42777e+02   0.00000e+00 
   @DF-RKS iter   1:  -343.09054353965178   -3.13645e-01   1.59929e-03 DIIS
   @DF-RKS iter   2:  -343.11801420668780   -2.74707e-02   8.22008e-04 DIIS
   @DF-RKS iter   3:  -343.12519606858211   -7.18186e-03   6.81669e-05 DIIS
   @DF-RKS iter   4:  -343.12543626009267   -2.40192e-04   1.50513e-05 DIIS
   @DF-RKS iter   5:  -343.12544609361788   -9.83353e-06   3.57107e-06 DIIS
   @DF-RKS iter   6:  -343.12544643003918   -3.36421e-07   5.66644e-07 DIIS
   @DF-RKS iter   7:  -343.12544644162966   -1.15905e-08   1.00153e-07 DIIS
   @DF-RKS iter   8:  -343.12544644201847   -3.88809e-10   1.36759e-08 DIIS
   @DF-RKS iter   9:  -343.12544644202842   -9.94760e-12   2.43096e-09 DIIS
  Energy and wave function converged.


  ==> Post-Iterations <==

    Orbital Energies [Eh]
    ---------------------

    Doubly Occupied:                                                      

       1Ap   -77.386797     2Ap    -6.722758     1App   -4.835432  
       3Ap    -4.835431     4Ap    -4.831822     5Ap    -0.762431  
       2App   -0.480825     6Ap    -0.480767     7Ap    -0.370051  

    Virtual:                                                              

       8Ap     0.010106     3App    0.036148     9Ap     0.036160  
      10Ap     0.048733    11Ap     0.056886     4App    0.056904  
      12Ap     0.097374     5App    0.114939    13Ap     0.114975  
       6App    0.115985    14Ap     0.116006    15Ap     0.118215  
      16Ap     0.179829     7App    0.179872    17Ap     0.205483  
      18Ap     0.209304     8App    0.209322    19Ap     0.225814  
       9App    0.227875    20Ap     0.227961    10App    0.233803  
      11App    0.271697    21Ap     0.271754    22Ap     0.272490  
      23Ap     0.325940    12App    0.341609    24Ap     0.341699  
      25Ap     0.366188    13App    0.409759    26Ap     0.409762  
      27Ap     0.423185    28Ap     0.451305    14App    0.470755  
      29Ap     0.470898    15App    0.470987    30Ap     0.489538  
      16App    0.489577    31Ap     0.506188    17App    0.506221  
      32Ap     0.588707    18App    0.615864    33Ap     0.621628  
      34Ap     0.623864    19App    0.623869    20App    0.658781  
      35Ap     0.658950    36Ap     0.685652    21App    0.718119  
      37Ap     0.718233    38Ap     0.734840    22App    0.755451  
      39Ap     0.755828    40Ap     0.833240    23App    0.833484  
      41Ap     0.833563    24App    0.856666    42Ap     0.856697  
      25App    0.865259    43Ap     0.960157    26App    0.960196  
      44Ap     1.014911    45Ap     1.042479    27App    1.042559  
      28App    1.056906    46Ap     1.057319    47Ap     1.072282  
      29App    1.072727    30App    1.114284    48Ap     1.114305  
      49Ap     1.181306    50Ap     1.257892    31App    1.297732  
      51Ap     1.297749    32App    1.302700    52Ap     1.310865  
      33App    1.311101    53Ap     1.318419    34App    1.349595  
      54Ap     1.349672    55Ap     1.392421    56Ap     1.461198  
      57Ap     1.493917    35App    1.493924    36App    1.544118  
      58Ap     1.544297    59Ap     1.581372    37App    1.602137  
      60Ap     1.602606    61Ap     1.656200    38App    1.662484  
      39App    1.707586    62Ap     1.707618    63Ap     1.730669  
      40App    1.730861    41App    1.831677    64Ap     1.832253  
      42App    1.861374    65Ap     1.884756    43App    1.903244  
      66Ap     1.916986    44App    1.917184    67Ap     1.926696  
      68Ap     1.944547    45App    1.944674    69Ap     2.048595  
      46App    2.077613    70Ap     2.078076    71Ap     2.098891  
      47App    2.099635    48App    2.160112    49App    2.165412  
      72Ap     2.165431    73Ap     2.233877    50App    2.282699  
      74Ap     2.284459    75Ap     2.385676    51App    2.385775  
      76Ap     2.404258    52App    2.523694    53App    2.530259  
      77Ap     2.530378    54App    2.603995    78Ap     2.604353  
      79Ap     2.648795    55App    2.804311    80Ap     2.804644  
      81Ap     2.810177    82Ap     2.908848    56App    2.909432  
      83Ap     2.926672    84Ap     2.972876    57App    3.021655  
      85Ap     3.021865    58App    3.036386    86Ap     3.092031  
      59App    3.092386    87Ap     3.128647    60App    3.186661  
      88Ap     3.199075    61App    3.199233    89Ap     3.212685  
      90Ap     3.338007    62App    3.338015    63App    3.428027  
      91Ap     3.428550    64App    3.493588    92Ap     3.503328  
      65App    3.563728    93Ap     3.564125    94Ap     3.673185  
      95Ap     3.779926    66App    3.779987    96Ap     4.009194  
      67App    4.009892    97Ap     4.011144    98Ap     4.147985  
      68App    4.149055    69App    4.260802    99Ap     4.266000  
      70App    4.316479   100Ap     4.317152   101Ap     6.308153  
      71App    6.308254    72App    6.320743   102Ap     6.344925  
      73App    6.345707   103Ap     6.364653    74App    6.375184  
     104Ap     6.391601   105Ap     6.396014    75App    6.396039  
      76App    6.533632   106Ap     6.534303   107Ap     6.622035  
      77App    6.622666   108Ap     6.728451    78App    6.853486  
     109Ap     6.853866   110Ap     6.937703   111Ap     7.025171  
      79App    7.027207   112Ap     7.049941    80App    7.137406  
     113Ap     7.268887    81App    7.269234   114Ap     7.616303  
     115Ap     7.666579    82App    7.667634   116Ap     7.852303  
[...]
    Pruning alpha          =              1
    Radial Points          =             75
    Spherical Points       =            302
    Total Points           =          90600
    Total Blocks           =            744
    Max Points             =            256
    Max Functions          =            227

   => Loading Basis Set <=

    Name: (AUG-CC-PV(Q+D)Z AUX)
    Role: JKFIT
    Keyword: DF_BASIS_SCF
    atoms 1   entry P          line   716 file /work/zw18965/.conda/envs/p4env/share/psi4/basis/aug-cc-pvqz-jkfit.gbs 
    atoms 2-4 entry H          line    70 file /work/zw18965/.conda/envs/p4env/share/psi4/basis/aug-cc-pvqz-jkfit.gbs 

  ==> Pre-Iterations <==

   -------------------------------------------------------
    Irrep   Nso     Nmo     Nalpha   Nbeta   Ndocc  Nsocc
   -------------------------------------------------------
     A        227     227       0       0       0       0
   -------------------------------------------------------
    Total     227     227       9       9       9       0
   -------------------------------------------------------

  ==> Integral Setup <==

  ==> DiskDFJK: Density-Fitted J/K Matrices <==

    J tasked:                  Yes
    K tasked:                  Yes
    wK tasked:                 Yes
    Omega:               3.000E-01
    OpenMP threads:             24
    Integrals threads:          24
    Memory [MiB]:           101597
    Algorithm:                Core
    Integral Cache:           NONE
    Schwarz Cutoff:          1E-12
    Fitting Condition:       1E-10

   => Auxiliary Basis Set <=

  Basis Set: (AUG-CC-PV(Q+D)Z AUX)
    Blend: AUG-CC-PVQZ-JKFIT
    Number of shells: 100
    Number of basis function: 412
    Number of Cartesian functions: 550
    Spherical Harmonics?: true
    Max angular momentum: 5

  Cached 100.0% of DFT collocation blocks in 1.367 [GiB].

  Minimum eigenvalue in the overlap matrix is 3.8591964261E-05.
  Using Symmetric Orthogonalization.

  SCF Guess: Superposition of Atomic Densities via on-the-fly atomic UHF.

  ==> Iterations <==

                           Total Energy        Delta E     RMS |[F,P]|

   @DF-RKS iter SAD:  -342.77935057681231   -3.42779e+02   0.00000e+00 
   @DF-RKS iter   1:  -343.09058231647924   -3.11232e-01   1.14666e-03 DIIS
   @DF-RKS iter   2:  -343.11804130100973   -2.74590e-02   5.88521e-04 DIIS
   @DF-RKS iter   3:  -343.12520178392089   -7.16048e-03   4.87547e-05 DIIS
   @DF-RKS iter   4:  -343.12544078083869   -2.38997e-04   1.09431e-05 DIIS
   @DF-RKS iter   5:  -343.12545075524054   -9.97440e-06   2.58257e-06 DIIS
   @DF-RKS iter   6:  -343.12545110177950   -3.46539e-07   4.09973e-07 DIIS
   @DF-RKS iter   7:  -343.12545111357394   -1.17944e-08   7.15444e-08 DIIS
   @DF-RKS iter   8:  -343.12545111396560   -3.91651e-10   9.93059e-09 DIIS
   @DF-RKS iter   9:  -343.12545111397606   -1.04592e-11   1.99067e-09 DIIS
   @DF-RKS iter  10:  -343.12545111397571    3.41061e-13   4.90400e-10 DIIS
   @DF-RKS iter  11:  -343.12545111397606   -3.41061e-13   1.07321e-10 DIIS
   @DF-RKS iter  12:  -343.12545111397640   -3.41061e-13   1.87854e-11 DIIS
  Energy and wave function converged.


  ==> Post-Iterations <==

    Orbital Energies [Eh]
    ---------------------

    Doubly Occupied:                                                      

       1A    -77.386345     2A     -6.722436     3A     -4.835101  
       4A     -4.835099     5A     -4.831499     6A     -0.762861  
       7A     -0.480974     8A     -0.480298     9A     -0.370619  

    Virtual:                                                              

      10A      0.010145    11A      0.036168    12A      0.036212  
      13A      0.048679    14A      0.056840    15A      0.056976  
      16A      0.097481    17A      0.114971    18A      0.115034  
      19A      0.115985    20A      0.116212    21A      0.118069  
      22A      0.179815    23A      0.179831    24A      0.205912  
      25A      0.209303    26A      0.209409    27A      0.225667  
      28A      0.227793    29A      0.227980    30A      0.234094  
      31A      0.271870    32A      0.271905    33A      0.272483  
      34A      0.326081    35A      0.341574    36A      0.341646  
      37A      0.366188    38A      0.410022    39A      0.410063  
      40A      0.423294    41A      0.452412    42A      0.470526  
      43A      0.470736    44A      0.470836    45A      0.489331  
      46A      0.489488    47A      0.506197    48A      0.506297  
      49A      0.588928    50A      0.616128    51A      0.621681  
      52A      0.623790    53A      0.623910    54A      0.658823  
      55A      0.659039    56A      0.685317    57A      0.718611  
      58A      0.718808    59A      0.733928    60A      0.755972  
      61A      0.756843    62A      0.833705    63A      0.833719  
      64A      0.833858    65A      0.856374    66A      0.856942  
      67A      0.864509    68A      0.960236    69A      0.960303  
      70A      1.016005    71A      1.042569    72A      1.042617  
      73A      1.057937    74A      1.058604    75A      1.072725  
      76A      1.074883    77A      1.114587    78A      1.114857  
      79A      1.180750    80A      1.257986    81A      1.297959  
      82A      1.298023    83A      1.302479    84A      1.310273  
      85A      1.311047    86A      1.318837    87A      1.349338  
      88A      1.349465    89A      1.394311    90A      1.461229  
      91A      1.494598    92A      1.494743    93A      1.544740  
      94A      1.545089    95A      1.578055    96A      1.602777  
      97A      1.602892    98A      1.657898    99A      1.662440  
     100A      1.706331   101A      1.706417   102A      1.731178  
     103A      1.732037   104A      1.833660   105A      1.834676  
     106A      1.861334   107A      1.886120   108A      1.903645  
     109A      1.915480   110A      1.916303   111A      1.927825  
     112A      1.944737   113A      1.945062   114A      2.048562  
     115A      2.079328   116A      2.080041   117A      2.101638  
     118A      2.103365   119A      2.160441   120A      2.167365  
     121A      2.167664   122A      2.233172   123A      2.285719  
     124A      2.288618   125A      2.385769   126A      2.385842  
     127A      2.405583   128A      2.527107   129A      2.530097  
     130A      2.530534   131A      2.603104   132A      2.603892  
     133A      2.650997   134A      2.805141   135A      2.805853  
     136A      2.810847   137A      2.909155   138A      2.910480  
     139A      2.927693   140A      2.974590   141A      3.022305  
     142A      3.023003   143A      3.039151   144A      3.091126  
     145A      3.092126   146A      3.127213   147A      3.186500  
     148A      3.200219   149A      3.201239   150A      3.216700  
     151A      3.337432   152A      3.338934   153A      3.430952  
     154A      3.431024   155A      3.497672   156A      3.511375  
     157A      3.566813   158A      3.568167   159A      3.673418  
     160A      3.778607   161A      3.779172   162A      4.010503  
     163A      4.012636   164A      4.012921   165A      4.153244  
     166A      4.155641   167A      4.261073   168A      4.266773  
     169A      4.320210   170A      4.321869   171A      6.308924  
     172A      6.309110   173A      6.320729   174A      6.347016  
     175A      6.348285   176A      6.366776   177A      6.374872  
     178A      6.395393   179A      6.396742   180A      6.396966  
     181A      6.534387   182A      6.536299   183A      6.620549  
     184A      6.623210   185A      6.738954   186A      6.855502  
     187A      6.855987   188A      6.945312   189A      7.034548  
     190A      7.037655   191A      7.049325   192A      7.137368  
     193A      7.267787   194A      7.270487   195A      7.620993  
     196A      7.669617   197A      7.671424   198A      7.856798  
     199A      7.900431   200A      7.901433   201A      8.084009  
     202A      8.118864   203A      8.120404   204A      8.146830  
     205A      8.147006   206A      8.249833   207A      8.250922  
     208A      8.289766   209A      8.412125   210A      8.412644  
     211A      8.564286   212A      8.564374   213A      8.595817  
     214A      8.635684   215A      8.949929   216A      8.988631  
     217A      8.990344   218A      8.996567   219A      9.270790  
     220A      9.271833   221A      9.304621   222A      9.359735  
     223A      9.361445   224A      9.766157   225A     11.038034  
     226A     11.044843   227A     18.214577  

    Final Occupation by Irrep:
              A 
    DOCC [     9 ]

  @DF-RKS Final Energy:  -343.12545111397640

   => Energetics <=

    Nuclear Repulsion Energy =             17.6377079121213427
    One-Electron Energy =                -508.6395885365886897
    Two-Electron Energy =                 166.2017727336665587
    DFT Exchange-Correlation Energy =     -18.4007017772285479
    Empirical Dispersion Energy =           0.0000000000000000
    VV10 Nonlocal Energy =                  0.0753585540528966
    Total Energy =                       -343.1254511139763963

Computation Completed


Properties will be evaluated at   0.000000,   0.000000,   0.000000 [a0]

Properties computed using the SCF density matrix

  Nuclear Dipole Moment: [e a0]
     X:    -0.0002      Y:    -2.0287      Z:     0.0032

  Electronic Dipole Moment: [e a0]
     X:     0.0003      Y:     1.8061      Z:    -0.0042

  Dipole Moment: [e a0]
     X:     0.0001      Y:    -0.2226      Z:    -0.0011     Total:     0.2226

  Dipole Moment: [D]
     X:     0.0001      Y:    -0.5659      Z:    -0.0027     Total:     0.5659


*** tstop() called on bp1-compute00048.data.bp.acrc.priv at Tue Apr 27 16:58:59 2021
Module time:
	user time   =     154.05 seconds =       2.57 minutes
	system time =       3.19 seconds =       0.05 minutes
	total time  =          7 seconds =       0.12 minutes
Total time:
	user time   =    6955.94 seconds =     115.93 minutes
	system time =     183.37 seconds =       3.06 minutes
	total time  =        314 seconds =       5.23 minutes

         ----------------------------------------------------------
                                   FINDIF
                     R. A. King and Jonathon Misiewicz
         ---------------------------------------------------------

  Computing second-derivative from energies using projected, 
  symmetry-adapted, cartesian coordinates.

  25 energies passed in, including the reference geometry.
    Using 3-point formula.
    Energy without displacement: -343.1254542246
    Check energies below for precision!
    0: -1        :      -343.1254522337
    0: 1         :      -343.1254521377
    1: -1        :      -343.1254525014
    1: 1         :      -343.1254537030
    2: -1        :      -343.1254517982
    2: 1         :      -343.1254530877
    3: -1        :      -343.1254517978
    3: 1         :      -343.1254530850
    0: 1, 1: 1   :      -343.1254516218
    0: -1, 1: -1 :      -343.1254504990
    0: 1, 2: 1   :      -343.1254495518
    0: -1, 2: -1 :      -343.1254483071
    1: 1, 2: 1   :      -343.1254511144
    1: -1, 2: -1 :      -343.1254486025
    0: 1, 3: 1   :      -343.1254524902
    0: -1, 3: -1 :      -343.1254513017
    1: 1, 3: 1   :      -343.1254511147
    1: -1, 3: -1 :      -343.1254485979
    2: 1, 3: 1   :      -343.1254511689
    2: -1, 3: -1 :      -343.1254485817
    4: -1        :      -343.1254521717
    5: -1        :      -343.1254510706
    4: 1, 5: 1   :      -343.1254511142
    4: -1, 5: -1 :      -343.1254511140

-------------------------------------------------------------


  ==> Harmonic Vibrational Analysis <==

  non-mass-weighted Hessian:       Symmetric? True   Hermitian? True   Lin Dep Dim?  6 (0)
  projection of translations (True) and rotations (True) removed 6 degrees of freedom (6)
  total projector:                 Symmetric? True   Hermitian? True   Lin Dep Dim?  6 (6)
  mass-weighted Hessian:           Symmetric? True   Hermitian? True   Lin Dep Dim?  6 (0)
  pre-proj  low-frequency mode:    0.0000i [cm^-1]
  pre-proj  low-frequency mode:    0.0000i [cm^-1]
  pre-proj  low-frequency mode:    0.0000  [cm^-1]
  pre-proj  low-frequency mode:    0.0000  [cm^-1]
  pre-proj  low-frequency mode:    0.0000  [cm^-1]
  pre-proj  low-frequency mode:    0.0000  [cm^-1]
  pre-proj  all modes:['0.0000i' '0.0000i' '0.0000' '0.0000' '0.0000' '0.0000' '1015.8977'
 '1141.3228' '1732.2492' '2435.5132' '2439.7183' '2829.5624']
  projected mass-weighted Hessian: Symmetric? True   Hermitian? True   Lin Dep Dim?  6 (6)
  post-proj low-frequency mode:    0.0000i [cm^-1] (TR)
  post-proj low-frequency mode:    0.0000i [cm^-1] (TR)
  post-proj low-frequency mode:    0.0000  [cm^-1] (TR)
  post-proj low-frequency mode:    0.0000  [cm^-1] (TR)
  post-proj low-frequency mode:    0.0000  [cm^-1] (TR)
  post-proj low-frequency mode:    0.0000  [cm^-1] (TR)
  post-proj  all modes:['0.0000i' '0.0000i' '0.0000' '0.0000' '0.0000' '0.0000' '1015.8977'
 '1141.3228' '1732.2492' '2435.5132' '2439.7183' '2829.5624']

  Vibration                       7                   8                   9           
  Freq [cm^-1]                1015.8977           1141.3228           1732.2492       
  Irrep                           Ap                  Ap                 App          
  Reduced mass [u]              1.0750              1.0255              1.0452        
  Force const [mDyne/A]         0.6537              0.7870              1.8478        
  Turning point v=0 [a0]        0.3320              0.3207              0.2579        
  RMS dev v=0 [a0 u^1/2]        0.2434              0.2297              0.1864        
  Char temp [K]               1461.6507           1642.1094           2492.3209       
  ----------------------------------------------------------------------------------
      1   P                0.00 -0.05 -0.00   -0.02 -0.00  0.00    0.00  0.00 -0.04   
      2   H                0.15  0.49  0.28    0.49 -0.15 -0.40   -0.26 -0.41  0.21   
      3   H                0.15  0.49 -0.28    0.49 -0.15  0.40    0.26  0.41  0.21   
      4   H               -0.31  0.48  0.00   -0.23  0.33  0.00    0.00 -0.00  0.67   

  Vibration                       10                  11                  12          
  Freq [cm^-1]                2435.5132           2439.7183           2829.5624       
  Irrep                           Ap                  Ap                 App          
  Reduced mass [u]              1.0346              1.0382              1.0212        
  Force const [mDyne/A]         3.6158              3.6408              4.8170        
  Turning point v=0 [a0]        0.2186              0.2180              0.2041        
  RMS dev v=0 [a0 u^1/2]        0.1572              0.1571              0.1459        
  Char temp [K]               3504.1612           3510.2114           4071.1104       
  ----------------------------------------------------------------------------------
      1   P               -0.02 -0.02 -0.00   -0.03  0.02 -0.00    0.00  0.00 -0.02   
      2   H               -0.12  0.13 -0.20    0.27 -0.34  0.49    0.43 -0.24  0.46   
      3   H               -0.12  0.13  0.20    0.27 -0.34 -0.49   -0.43  0.24  0.46   
      4   H                0.79  0.48 -0.00    0.31  0.21  0.00   -0.00 -0.00 -0.28   

  ==> Thermochemistry Components <==

  Entropy, S
    Electronic S            0.000 [cal/(mol K)]        0.000 [J/(mol K)]       0.00000000 [mEh/K] (multiplicity = 1)
    Translational S        36.502 [cal/(mol K)]      152.724 [J/(mol K)]       0.05816968 [mEh/K] (mol. weight = 33.9972 [u], P = 101325.00 [Pa])
    Rotational S           15.659 [cal/(mol K)]       65.516 [J/(mol K)]       0.02495366 [mEh/K] (symmetry no. = 1)
    Vibrational S           0.145 [cal/(mol K)]        0.607 [J/(mol K)]       0.00023133 [mEh/K]
  Total S                  52.306 [cal/(mol K)]      218.848 [J/(mol K)]       0.08335467 [mEh/K]
  Correction S              0.000 [cal/(mol K)]        0.000 [J/(mol K)]       0.00000000 [mEh/K]

  Constant volume heat capacity, Cv
    Electronic Cv           0.000 [cal/(mol K)]        0.000 [J/(mol K)]       0.00000000 [mEh/K]
    Translational Cv        2.981 [cal/(mol K)]       12.472 [J/(mol K)]       0.00475022 [mEh/K]
    Rotational Cv           2.981 [cal/(mol K)]       12.472 [J/(mol K)]       0.00475022 [mEh/K]
    Vibrational Cv          0.644 [cal/(mol K)]        2.694 [J/(mol K)]       0.00102603 [mEh/K]
  Total Cv                  6.605 [cal/(mol K)]       27.637 [J/(mol K)]       0.01052647 [mEh/K]
  Correction Cv             0.000 [cal/(mol K)]        0.000 [J/(mol K)]       0.00000000 [mEh/K]

  Constant pressure heat capacity, Cp
    Electronic Cp           0.000 [cal/(mol K)]        0.000 [J/(mol K)]       0.00000000 [mEh/K]
    Translational Cp        4.968 [cal/(mol K)]       20.786 [J/(mol K)]       0.00791703 [mEh/K]
    Rotational Cp           2.981 [cal/(mol K)]       12.472 [J/(mol K)]       0.00475022 [mEh/K]
    Vibrational Cp          0.644 [cal/(mol K)]        2.694 [J/(mol K)]       0.00102603 [mEh/K]
  Total Cp                  8.593 [cal/(mol K)]       35.952 [J/(mol K)]       0.01369328 [mEh/K]
  Correction Cp             0.000 [cal/(mol K)]        0.000 [J/(mol K)]       0.00000000 [mEh/K]

  ==> Thermochemistry Energy Analysis <==

  Raw electronic energy, E0
  Total E0, Electronic energy at well bottom at 0 [K]                 -343.12545422 [Eh]

  Zero-point energy, ZPE_vib = Sum_i nu_i / 2
    Electronic ZPE          0.000 [kcal/mol]        0.000 [kJ/mol]       0.00000000 [Eh]
    Translational ZPE       0.000 [kcal/mol]        0.000 [kJ/mol]       0.00000000 [Eh]
    Rotational ZPE          0.000 [kcal/mol]        0.000 [kJ/mol]       0.00000000 [Eh]
    Vibrational ZPE        16.575 [kcal/mol]       69.349 [kJ/mol]       0.02641368 [Eh]        5797.132 [cm^-1]
  Correction ZPE           16.575 [kcal/mol]       69.349 [kJ/mol]       0.02641368 [Eh]        5797.132 [cm^-1]
  Total ZPE, Electronic energy at 0 [K]                               -343.09904055 [Eh]

  Thermal Energy, E (includes ZPE)
    Electronic E            0.000 [kcal/mol]        0.000 [kJ/mol]       0.00000000 [Eh]
    Translational E         0.889 [kcal/mol]        3.718 [kJ/mol]       0.00141628 [Eh]
    Rotational E            0.889 [kcal/mol]        3.718 [kJ/mol]       0.00141628 [Eh]
    Vibrational E          16.611 [kcal/mol]       69.501 [kJ/mol]       0.02647153 [Eh]
  Correction E             18.389 [kcal/mol]       76.938 [kJ/mol]       0.02930409 [Eh]
  Total E, Electronic energy at  298.15 [K]                           -343.09615014 [Eh]

  Enthalpy, H_trans = E_trans + k_B * T
    Electronic H            0.000 [kcal/mol]        0.000 [kJ/mol]       0.00000000 [Eh]
    Translational H         1.481 [kcal/mol]        6.197 [kJ/mol]       0.00236046 [Eh]
    Rotational H            0.889 [kcal/mol]        3.718 [kJ/mol]       0.00141628 [Eh]
    Vibrational H          16.611 [kcal/mol]       69.501 [kJ/mol]       0.02647153 [Eh]
  Correction H             18.981 [kcal/mol]       79.417 [kJ/mol]       0.03024827 [Eh]
  Total H, Enthalpy at  298.15 [K]                                    -343.09520595 [Eh]

  Gibbs free energy, G = H - T * S
    Electronic G            0.000 [kcal/mol]        0.000 [kJ/mol]       0.00000000 [Eh]
    Translational G        -9.402 [kcal/mol]      -39.337 [kJ/mol]      -0.01498283 [Eh]
    Rotational G           -3.780 [kcal/mol]      -15.815 [kJ/mol]      -0.00602366 [Eh]
    Vibrational G          16.568 [kcal/mol]       69.320 [kJ/mol]       0.02640256 [Eh]
  Correction G              3.386 [kcal/mol]       14.167 [kJ/mol]       0.00539608 [Eh]
  Total G, Free enthalpy at  298.15 [K]                               -343.12005815 [Eh]

    Psi4 stopped on: Tuesday, 27 April 2021 04:58PM
    Psi4 wall time for execution: 0:05:14.03

*** Psi4 exiting successfully. Buy a developer a beer!
