
    -----------------------------------------------------------------------
          Psi4: An Open-Source Ab Initio Electronic Structure Package
                               Psi4 1.3.2 release

                         Git: Rev {HEAD} ecbda83 


    R. M. Parrish, L. A. Burns, D. G. A. Smith, A. C. Simmonett,
    A. E. DePrince III, E. G. Hohenstein, U. Bozkaya, A. Yu. Sokolov,
    R. Di Remigio, R. M. Richard, J. F. Gonthier, A. M. James,
    H. R. McAlexander, A. Kumar, M. Saitow, X. Wang, B. P. Pritchard,
    P. Verma, H. F. Schaefer III, K. Patkowski, R. A. King, E. F. Valeev,
    F. A. Evangelista, J. M. Turney, T. D. Crawford, and C. D. Sherrill,
    J. Chem. Theory Comput. 13(7) pp 3185--3197 (2017).
    (doi: 10.1021/acs.jctc.7b00174)


                         Additional Contributions by
    P. Kraus, H. Kruse, M. H. Lechner, M. C. Schieber, R. A. Shaw,
    A. Alenaizan, R. Galvelis, Z. L. Glick, S. Lehtola, and J. P. Misiewicz

    -----------------------------------------------------------------------


    Psi4 started on: Monday, 19 April 2021 04:06PM

    Process ID: 256571
    Host:       bp1-compute00147.data.bp.acrc.priv
    PSIDATADIR: /work/zw18965/.conda/envs/p4env/share/psi4
    Memory:     500.0 MiB
    Threads:    24
    
  ==> Input File <==

--------------------------------------------------------------------------
memory 144 GB

molecule {
0 1
S    -0.001150325421   0.486356984763   0.000000000000
O     1.240019799411  -0.240247141680   0.000000000000
O    -1.238869473990  -0.246109843082   0.000000000000}

set basis aug-cc-pV(Q+d)Z
 
optimize("WB97M-V")
frequencies("WB97M-V")--------------------------------------------------------------------------

  Memory set to 134.110 GiB by Python driver.
gradient() will perform gradient computation by finite difference of analytic energies.

         ----------------------------------------------------------
                                   FINDIF
                     R. A. King and Jonathon Misiewicz
         ---------------------------------------------------------

  Using finite-differences of energies to determine gradients.
    Generating geometries for use with 3-point formula.
    Displacement size will be 5.00e-03.
    Number of atoms is 3.
    Number of symmetric SALCs is 3.
    Translations projected? 1. Rotations projected? 1.
    Number of geometries (including reference) is 7.

  //>>>>>>>>>>>>>>>>>>>>>>>>>>>>>>>>>>>//
  //    Loading displacement 1 of 7    //
  //<<<<<<<<<<<<<<<<<<<<<<<<<<<<<<<<<<<//

*** tstart() called on bp1-compute00147.data.bp.acrc.priv
*** at Mon Apr 19 16:06:39 2021

   => Loading Basis Set <=

    Name: AUG-CC-PV(Q+D)Z
    Role: ORBITAL
    Keyword: BASIS
    atoms 1   entry S          line  1148 file /work/zw18965/.conda/envs/p4env/share/psi4/basis/aug-cc-pv_qpd_z.gbs 
    atoms 2-3 entry O          line   439 file /work/zw18965/.conda/envs/p4env/share/psi4/basis/aug-cc-pv_qpd_z.gbs 


         ---------------------------------------------------------
                                   SCF
               by Justin Turney, Rob Parrish, Andy Simmonett
                          and Daniel G. A. Smith
                              RKS Reference
                       24 Threads, 137329 MiB Core
         ---------------------------------------------------------

  ==> Geometry <==

    Molecular point group: cs
    Full point group: Cs

    Geometry (in Angstrom), charge = 0, multiplicity = 1:

       Center              X                  Y                   Z               Mass       
    ------------   -----------------  -----------------  -----------------  -----------------
         S           -0.000862983594     0.364869010877     0.000000000000    31.972071174400
         O            1.240307141238    -0.361735115566     0.000000000000    15.994914619570
         O           -1.238582132163    -0.367597816968     0.000000000000    15.994914619570

  Running in cs symmetry.

  Rotational constants: A =      1.98080  B =      0.34303  C =      0.29239 [cm^-1]
  Rotational constants: A =  59382.79064  B =  10283.68069  C =   8765.67516 [MHz]
  Nuclear repulsion =  107.855107106715508

  Charge       = 0
  Multiplicity = 1
  Electrons    = 32
  Nalpha       = 16
  Nbeta        = 16

  ==> Algorithm <==

  SCF Algorithm Type is DF.
  DIIS enabled.
  MOM disabled.
  Fractional occupation disabled.
  Guess Type is SAD.
  Energy threshold   = 1.00e-08
  Density threshold  = 1.00e-08
  Integral threshold = 0.00e+00

  ==> Primary Basis <==

  Basis Set: AUG-CC-PV(Q+D)Z
    Blend: AUG-CC-PV(Q+D)Z
    Number of shells: 63
    Number of basis function: 249
    Number of Cartesian functions: 325
    Spherical Harmonics?: true
    Max angular momentum: 4

  ==> DFT Potential <==

   => Composite Functional: WB97M-V <= 

    wB97M-V Hyb-GGA Exchange-Correlation Functional

    N. Mardirossian and M. Head-Gordon, J. Chem. Phys. 144, 214110 (2016)

    Deriv               =              1
    GGA                 =           TRUE
    Meta                =           TRUE

    Exchange Hybrid     =           TRUE
    MP2 Hybrid          =          FALSE

   => Exchange-Correlation Functionals <=

    1.0000   wB97M-V exchange-correlation functional

   => Exact (HF) Exchange <=

    0.8500            HF,LR [omega = 0.3000]
    0.1500               HF 

   => VV10 Non-Local Parameters <=

    VV10 B              =     6.0000E+00
    VV10 C              =     1.0000E-02

   => Molecular Quadrature <=

    Radial Scheme          =       TREUTLER
    Pruning Scheme         =           FLAT
    Nuclear Scheme         =       TREUTLER

    BS radius alpha        =              1
    Pruning alpha          =              1
    Radial Points          =             75
    Spherical Points       =            302
    Total Points           =          67950
    Total Blocks           =            579
    Max Points             =            256
    Max Functions          =            249

   => Loading Basis Set <=

    Name: (AUG-CC-PV(Q+D)Z AUX)
    Role: JKFIT
    Keyword: DF_BASIS_SCF
    atoms 1   entry S          line   810 file /work/zw18965/.conda/envs/p4env/share/psi4/basis/aug-cc-pvqz-jkfit.gbs 
    atoms 2-3 entry O          line   318 file /work/zw18965/.conda/envs/p4env/share/psi4/basis/aug-cc-pvqz-jkfit.gbs 

  ==> Pre-Iterations <==

   -------------------------------------------------------
    Irrep   Nso     Nmo     Nalpha   Nbeta   Ndocc  Nsocc
   -------------------------------------------------------
     A'       156     156       0       0       0       0
     A"        93      93       0       0       0       0
   -------------------------------------------------------
    Total     249     249      16      16      16       0
   -------------------------------------------------------

  ==> Integral Setup <==

  ==> DiskDFJK: Density-Fitted J/K Matrices <==

    J tasked:                  Yes
    K tasked:                  Yes
    wK tasked:                 Yes
    Omega:               3.000E-01
    OpenMP threads:             24
    Integrals threads:          24
    Memory [MiB]:           101950
    Algorithm:                Core
    Integral Cache:           NONE
    Schwarz Cutoff:          1E-12
    Fitting Condition:       1E-10

   => Auxiliary Basis Set <=

  Basis Set: (AUG-CC-PV(Q+D)Z AUX)
    Blend: AUG-CC-PVQZ-JKFIT
    Number of shells: 114
    Number of basis function: 468
    Number of Cartesian functions: 643
    Spherical Harmonics?: true
    Max angular momentum: 5

  Cached 100.0% of DFT collocation blocks in 1.022 [GiB].

  Minimum eigenvalue in the overlap matrix is 8.9284767456E-05.
  Using Symmetric Orthogonalization.

  SCF Guess: Superposition of Atomic Densities via on-the-fly atomic UHF.

  ==> Iterations <==

                           Total Energy        Delta E     RMS |[F,P]|

   @DF-RKS iter SAD:  -548.43867442783744   -5.48439e+02   0.00000e+00 
   @DF-RKS iter   1:  -548.48004397995726   -4.13696e-02   4.04209e-03 DIIS
   @DF-RKS iter   2:  -548.35127734623677    1.28767e-01   5.39844e-03 DIIS
   @DF-RKS iter   3:  -548.67345232960463   -3.22175e-01   2.51532e-04 DIIS
   @DF-RKS iter   4:  -548.67404318270735   -5.90853e-04   5.08992e-05 DIIS
   @DF-RKS iter   5:  -548.67411025302772   -6.70703e-05   9.50528e-06 DIIS
   @DF-RKS iter   6:  -548.67411404718189   -3.79415e-06   2.75971e-06 DIIS
   @DF-RKS iter   7:  -548.67411440827436   -3.61092e-07   6.68298e-07 DIIS
   @DF-RKS iter   8:  -548.67411443634387   -2.80695e-08   2.57419e-07 DIIS
   @DF-RKS iter   9:  -548.67411443788944   -1.54557e-09   6.97194e-08 DIIS
   @DF-RKS iter  10:  -548.67411443797153   -8.20819e-11   5.77923e-08 DIIS
   @DF-RKS iter  11:  -548.67411443801109   -3.95630e-11   1.06302e-08 DIIS
   @DF-RKS iter  12:  -548.67411443801495   -3.86535e-12   1.39539e-09 DIIS
  Energy and wave function converged.


  ==> Post-Iterations <==

    Orbital Energies [Eh]
    ---------------------

    Doubly Occupied:                                                      

       1Ap   -89.393717     2Ap   -19.393799     3Ap   -19.393783  
       4Ap    -8.287179     1App   -6.198525     5Ap    -6.195194  
       6Ap    -6.192175     7Ap    -1.279195     8Ap    -1.185806  
       9Ap    -0.760894    10Ap    -0.610497     2App   -0.609685  
      11Ap    -0.608674     3App   -0.481746    12Ap    -0.472465  
      13Ap    -0.442559  

    Virtual:                                                              

       4App   -0.044882    14Ap     0.030570    15Ap     0.041429  
      16Ap     0.043844     5App    0.047172    17Ap     0.109005  
      18Ap     0.110681    19Ap     0.118376     6App    0.125200  
       7App    0.144954    20Ap     0.145322    21Ap     0.152507  
      22Ap     0.178394     8App    0.195333    23Ap     0.214947  
      24Ap     0.244646     9App    0.247717    25Ap     0.267065  
      26Ap     0.276588    27Ap     0.287628    10App    0.307251  
      28Ap     0.344085    11App    0.413312    29Ap     0.424764  
      30Ap     0.427182    12App    0.435989    31Ap     0.443435  
      13App    0.462679    32Ap     0.472130    33Ap     0.523383  
      34Ap     0.541739    35Ap     0.548912    14App    0.558670  
      15App    0.565932    16App    0.577670    17App    0.594397  
      36Ap     0.600023    37Ap     0.610534    38Ap     0.618874  
      18App    0.624518    39Ap     0.654210    40Ap     0.682167  
      19App    0.705260    41Ap     0.735883    42Ap     0.742551  
      43Ap     0.752823    20App    0.830577    21App    0.836881  
      44Ap     0.855111    45Ap     0.949470    46Ap     0.983322  
      47Ap     1.025503    48Ap     1.080078    49Ap     1.095832  
      22App    1.110799    50Ap     1.110987    23App    1.193884  
      51Ap     1.204414    24App    1.231639    52Ap     1.253017  
      25App    1.261369    26App    1.284860    53Ap     1.298112  
      54Ap     1.313986    27App    1.316654    55Ap     1.363083  
      56Ap     1.363943    28App    1.369926    29App    1.392407  
      57Ap     1.404735    58Ap     1.411224    30App    1.445490  
      31App    1.485214    59Ap     1.488325    60Ap     1.505141  
      61Ap     1.519097    32App    1.542108    33App    1.566720  
      62Ap     1.573759    63Ap     1.591052    34App    1.648285  
      64Ap     1.658152    65Ap     1.662170    35App    1.666399  
      66Ap     1.681283    67Ap     1.804879    36App    1.888937  
      68Ap     1.896354    69Ap     1.937973    37App    1.943354  
      70Ap     2.022443    71Ap     2.088093    38App    2.088402  
      72Ap     2.098854    39App    2.111514    40App    2.124513  
      73Ap     2.124645    74Ap     2.129371    75Ap     2.196140  
      41App    2.208377    76Ap     2.412995    77Ap     2.582887  
      78Ap     2.607710    42App    2.705895    43App    2.725384  
      79Ap     2.807033    80Ap     3.010311    81Ap     3.028163  
      82Ap     3.170360    44App    3.195106    45App    3.199241  
      83Ap     3.207626    46App    3.218188    84Ap     3.271659  
      47App    3.277387    48App    3.279100    85Ap     3.329914  
      86Ap     3.334811    87Ap     3.362187    49App    3.416435  
      50App    3.424010    88Ap     3.430537    89Ap     3.495269  
      90Ap     3.519736    51App    3.529119    52App    3.550348  
      91Ap     3.613791    92Ap     3.617722    53App    3.654595  
      93Ap     3.711913    54App    3.747189    94Ap     3.819340  
      95Ap     3.851217    55App    3.860065    96Ap     3.872150  
      97Ap     3.894634    56App    3.915761    57App    3.932845  
      98Ap     3.970046    99Ap     3.972742    58App    3.982235  
     100Ap     4.006171   101Ap     4.068684   102Ap     4.081275  
      59App    4.091039    60App    4.117952    61App    4.239064  
     103Ap     4.280176    62App    4.303275   104Ap     4.319725  
      63App    4.340972   105Ap     4.341240   106Ap     4.388254  
     107Ap     4.500895   108Ap     4.518864   109Ap     4.558866  
      64App    4.594373   110Ap     4.618340    65App    4.743822  
     111Ap     4.746837   112Ap     4.867254    66App    4.889388  
      67App    4.918833    68App    5.040047   113Ap     5.076400  
      69App    5.154033   114Ap     5.196649   115Ap     5.303680  
     116Ap     5.375117    70App    5.525435   117Ap     5.653774  
     118Ap     5.683503   119Ap     6.048003   120Ap     6.113290  
      71App    6.460951   121Ap     7.333465   122Ap     8.159273  
      72App    8.818639   123Ap     8.836172    73App    9.007456  
     124Ap     9.180931   125Ap     9.888396    74App   10.219309  
     126Ap    10.230254    75App   10.237205   127Ap    10.250335  
     128Ap    10.320426    76App   10.383437    77App   10.390131  
     129Ap    10.395759    78App   10.494417    79App   10.503181  
     130Ap    10.520313    80App   10.534748   131Ap    10.541562  
      81App   10.549573   132Ap    10.551732    82App   10.566630  
     133Ap    10.637392    83App   10.646138   134Ap    10.651973  
     135Ap    10.699929   136Ap    10.714848   137Ap    11.058919  
     138Ap    11.305123   139Ap    11.345528    84App   11.444388  
     140Ap    11.449381   141Ap    11.450151    85App   11.457732  
      86App   11.607101   142Ap    11.630793    87App   11.678365  
     143Ap    11.729661    88App   12.091616   144Ap    12.131659  
      89App   12.138946   145Ap    12.226600   146Ap    12.356798  
     147Ap    12.431545    90App   12.453513    91App   12.531927  
     148Ap    12.628188    92App   12.788651    93App   12.791944  
     149Ap    12.864232   150Ap    12.884514   151Ap    12.927622  
     152Ap    13.481114   153Ap    13.751905   154Ap    23.699225  
     155Ap    42.126152   156Ap    42.429293  

    Final Occupation by Irrep:
             Ap   App 
    DOCC [    13,    3 ]

  @DF-RKS Final Energy:  -548.67411443801495

   => Energetics <=

    Nuclear Repulsion Energy =            107.8551071067155078
    One-Electron Energy =                -969.7667758855895954
    Two-Electron Energy =                 345.4797007103016995
    DFT Exchange-Correlation Energy =     -32.3747081799950109
    Empirical Dispersion Energy =           0.0000000000000000
    VV10 Nonlocal Energy =                  0.1325618105524780
    Total Energy =                       -548.6741144380148398

Computation Completed


Properties will be evaluated at   0.000000,   0.000000,   0.000000 [a0]

Properties computed using the SCF density matrix

  Nuclear Dipole Moment: [e a0]
     X:    -0.0000      Y:     0.0061      Z:     0.0000

  Electronic Dipole Moment: [e a0]
     X:    -0.0016      Y:     0.6882      Z:     0.0000

  Dipole Moment: [e a0]
     X:    -0.0016      Y:     0.6943      Z:     0.0000     Total:     0.6943

  Dipole Moment: [D]
     X:    -0.0042      Y:     1.7648      Z:     0.0000     Total:     1.7648


*** tstop() called on bp1-compute00147.data.bp.acrc.priv at Mon Apr 19 16:06:46 2021
Module time:
	user time   =     153.86 seconds =       2.56 minutes
	system time =       8.57 seconds =       0.14 minutes
	total time  =          7 seconds =       0.12 minutes
Total time:
	user time   =     153.86 seconds =       2.56 minutes
	system time =       8.57 seconds =       0.14 minutes
	total time  =          7 seconds =       0.12 minutes

  //>>>>>>>>>>>>>>>>>>>>>>>>>>>>>>>>>>>//
  //    Loading displacement 2 of 7    //
  //<<<<<<<<<<<<<<<<<<<<<<<<<<<<<<<<<<<//

*** tstart() called on bp1-compute00147.data.bp.acrc.priv
*** at Mon Apr 19 16:06:46 2021

   => Loading Basis Set <=

    Name: AUG-CC-PV(Q+D)Z
    Role: ORBITAL
    Keyword: BASIS
    atoms 1   entry S          line  1148 file /work/zw18965/.conda/envs/p4env/share/psi4/basis/aug-cc-pv_qpd_z.gbs 
    atoms 2-3 entry O          line   439 file /work/zw18965/.conda/envs/p4env/share/psi4/basis/aug-cc-pv_qpd_z.gbs 


         ---------------------------------------------------------
                                   SCF
               by Justin Turney, Rob Parrish, Andy Simmonett
                          and Daniel G. A. Smith
                              RKS Reference
                       24 Threads, 137329 MiB Core
         ---------------------------------------------------------

  ==> Geometry <==

    Molecular point group: cs
    Full point group: Cs

    Geometry (in Angstrom), charge = 0, multiplicity = 1:

       Center              X                  Y                   Z               Mass       
    ------------   -----------------  -----------------  -----------------  -----------------
         S           -0.001168510624     0.364869136019     0.000000000000    31.972071174400
         O            1.240612923740    -0.361914972436     0.000000000000    15.994914619570
         O           -1.238277199811    -0.367418210240     0.000000000000    15.994914619570

  Running in cs symmetry.

  Rotational constants: A =      1.98079  B =      0.34303  C =      0.29239 [cm^-1]
  Rotational constants: A =  59382.54238  B =  10283.67839  C =   8765.66808 [MHz]
  Nuclear repulsion =  107.855067481702875

  Charge       = 0
  Multiplicity = 1
  Electrons    = 32
  Nalpha       = 16
  Nbeta        = 16

  ==> Algorithm <==

  SCF Algorithm Type is DF.
  DIIS enabled.
  MOM disabled.
  Fractional occupation disabled.
  Guess Type is SAD.
  Energy threshold   = 1.00e-08
  Density threshold  = 1.00e-08
  Integral threshold = 0.00e+00

  ==> Primary Basis <==

  Basis Set: AUG-CC-PV(Q+D)Z
    Blend: AUG-CC-PV(Q+D)Z
    Number of shells: 63
    Number of basis function: 249
    Number of Cartesian functions: 325
    Spherical Harmonics?: true
    Max angular momentum: 4

  ==> DFT Potential <==

   => Composite Functional: WB97M-V <= 

    wB97M-V Hyb-GGA Exchange-Correlation Functional

    N. Mardirossian and M. Head-Gordon, J. Chem. Phys. 144, 214110 (2016)

    Deriv               =              1
    GGA                 =           TRUE
    Meta                =           TRUE

    Exchange Hybrid     =           TRUE
    MP2 Hybrid          =          FALSE

   => Exchange-Correlation Functionals <=

    1.0000   wB97M-V exchange-correlation functional

   => Exact (HF) Exchange <=

    0.8500            HF,LR [omega = 0.3000]
    0.1500               HF 

   => VV10 Non-Local Parameters <=

    VV10 B              =     6.0000E+00
    VV10 C              =     1.0000E-02

   => Molecular Quadrature <=

    Radial Scheme          =       TREUTLER
    Pruning Scheme         =           FLAT
    Nuclear Scheme         =       TREUTLER

    BS radius alpha        =              1
    Pruning alpha          =              1
    Radial Points          =             75
    Spherical Points       =            302
    Total Points           =          67950
    Total Blocks           =            580
    Max Points             =            255
    Max Functions          =            249

   => Loading Basis Set <=

    Name: (AUG-CC-PV(Q+D)Z AUX)
    Role: JKFIT
    Keyword: DF_BASIS_SCF
    atoms 1   entry S          line   810 file /work/zw18965/.conda/envs/p4env/share/psi4/basis/aug-cc-pvqz-jkfit.gbs 
    atoms 2-3 entry O          line   318 file /work/zw18965/.conda/envs/p4env/share/psi4/basis/aug-cc-pvqz-jkfit.gbs 

  ==> Pre-Iterations <==

   -------------------------------------------------------
    Irrep   Nso     Nmo     Nalpha   Nbeta   Ndocc  Nsocc
   -------------------------------------------------------
     A'       156     156       0       0       0       0
     A"        93      93       0       0       0       0
   -------------------------------------------------------
    Total     249     249      16      16      16       0
   -------------------------------------------------------

  ==> Integral Setup <==

  ==> DiskDFJK: Density-Fitted J/K Matrices <==

    J tasked:                  Yes
    K tasked:                  Yes
    wK tasked:                 Yes
    Omega:               3.000E-01
    OpenMP threads:             24
    Integrals threads:          24
    Memory [MiB]:           101950
    Algorithm:                Core
    Integral Cache:           NONE
    Schwarz Cutoff:          1E-12
    Fitting Condition:       1E-10

   => Auxiliary Basis Set <=

  Basis Set: (AUG-CC-PV(Q+D)Z AUX)
    Blend: AUG-CC-PVQZ-JKFIT
    Number of shells: 114
    Number of basis function: 468
    Number of Cartesian functions: 643
    Spherical Harmonics?: true
    Max angular momentum: 5

  Cached 100.0% of DFT collocation blocks in 1.022 [GiB].

  Minimum eigenvalue in the overlap matrix is 8.9284383980E-05.
  Using Symmetric Orthogonalization.

  SCF Guess: Superposition of Atomic Densities via on-the-fly atomic UHF.

  ==> Iterations <==

                           Total Energy        Delta E     RMS |[F,P]|

   @DF-RKS iter SAD:  -548.43867208929157   -5.48439e+02   0.00000e+00 
   @DF-RKS iter   1:  -548.48004265259476   -4.13706e-02   4.04210e-03 DIIS
   @DF-RKS iter   2:  -548.35127233523042    1.28770e-01   5.39847e-03 DIIS
   @DF-RKS iter   3:  -548.67345101426997   -3.22179e-01   2.51595e-04 DIIS
   @DF-RKS iter   4:  -548.67404167045208   -5.90656e-04   5.13852e-05 DIIS
   @DF-RKS iter   5:  -548.67410727985350   -6.56094e-05   1.63424e-05 DIIS
   @DF-RKS iter   6:  -548.67410956177730   -2.28192e-06   1.72629e-05 DIIS
   @DF-RKS iter   7:  -548.67411328319690   -3.72142e-06   2.37001e-06 DIIS
   @DF-RKS iter   8:  -548.67411347200573   -1.88809e-07   4.59086e-07 DIIS
   @DF-RKS iter   9:  -548.67411348480198   -1.27962e-08   1.59956e-07 DIIS
   @DF-RKS iter  10:  -548.67411348540531   -6.03336e-10   3.45204e-08 DIIS
   @DF-RKS iter  11:  -548.67411348544420   -3.88809e-11   7.72221e-09 DIIS
  Energy and wave function converged.


  ==> Post-Iterations <==

    Orbital Energies [Eh]
    ---------------------

    Doubly Occupied:                                                      

       1Ap   -89.393717     2Ap   -19.393878     3Ap   -19.393704  
       4Ap    -8.287180     1App   -6.198526     5Ap    -6.195194  
       6Ap    -6.192175     7Ap    -1.279197     8Ap    -1.185804  
       9Ap    -0.760894    10Ap    -0.610498     2App   -0.609685  
      11Ap    -0.608674     3App   -0.481745    12Ap    -0.472464  
      13Ap    -0.442559  

    Virtual:                                                              

       4App   -0.044882    14Ap     0.030570    15Ap     0.041429  
      16Ap     0.043844     5App    0.047172    17Ap     0.109005  
      18Ap     0.110681    19Ap     0.118376     6App    0.125200  
       7App    0.144954    20Ap     0.145322    21Ap     0.152507  
      22Ap     0.178394     8App    0.195333    23Ap     0.214948  
      24Ap     0.244646     9App    0.247716    25Ap     0.267064  
      26Ap     0.276588    27Ap     0.287628    10App    0.307251  
      28Ap     0.344085    11App    0.413312    29Ap     0.424763  
      30Ap     0.427183    12App    0.435989    31Ap     0.443435  
      13App    0.462678    32Ap     0.472130    33Ap     0.523383  
      34Ap     0.541739    35Ap     0.548912    14App    0.558670  
      15App    0.565932    16App    0.577670    17App    0.594397  
      36Ap     0.600022    37Ap     0.610534    38Ap     0.618874  
      18App    0.624518    39Ap     0.654210    40Ap     0.682167  
      19App    0.705260    41Ap     0.735882    42Ap     0.742551  
      43Ap     0.752823    20App    0.830574    21App    0.836884  
      44Ap     0.855111    45Ap     0.949469    46Ap     0.983322  
      47Ap     1.025503    48Ap     1.080078    49Ap     1.095832  
      22App    1.110799    50Ap     1.110987    23App    1.193883  
      51Ap     1.204414    24App    1.231639    52Ap     1.253017  
      25App    1.261369    26App    1.284860    53Ap     1.298111  
      54Ap     1.313986    27App    1.316654    55Ap     1.363072  
      56Ap     1.363953    28App    1.369926    29App    1.392407  
      57Ap     1.404736    58Ap     1.411225    30App    1.445489  
      31App    1.485214    59Ap     1.488324    60Ap     1.505140  
      61Ap     1.519097    32App    1.542107    33App    1.566719  
      62Ap     1.573758    63Ap     1.591052    34App    1.648285  
      64Ap     1.658152    65Ap     1.662169    35App    1.666398  
      66Ap     1.681283    67Ap     1.804880    36App    1.888935  
      68Ap     1.896353    69Ap     1.937972    37App    1.943354  
      70Ap     2.022441    71Ap     2.088093    38App    2.088397  
      72Ap     2.098854    39App    2.111512    40App    2.124520  
      73Ap     2.124633    74Ap     2.129382    75Ap     2.196142  
      41App    2.208376    76Ap     2.412994    77Ap     2.582886  
      78Ap     2.607710    42App    2.705894    43App    2.725384  
      79Ap     2.807033    80Ap     3.010300    81Ap     3.028169  
      82Ap     3.170359    44App    3.195098    45App    3.199242  
      83Ap     3.207627    46App    3.218193    84Ap     3.271658  
      47App    3.277325    48App    3.279162    85Ap     3.329912  
      86Ap     3.334813    87Ap     3.362187    49App    3.416435  
      50App    3.424009    88Ap     3.430537    89Ap     3.495269  
      90Ap     3.519736    51App    3.529118    52App    3.550349  
      91Ap     3.613754    92Ap     3.617757    53App    3.654594  
      93Ap     3.711912    54App    3.747188    94Ap     3.819337  
      95Ap     3.851216    55App    3.860064    96Ap     3.872148  
      97Ap     3.894639    56App    3.915760    57App    3.932845  
      98Ap     3.970047    99Ap     3.972742    58App    3.982234  
     100Ap     4.006171   101Ap     4.068683   102Ap     4.081276  
      59App    4.091039    60App    4.117952    61App    4.239064  
     103Ap     4.280176    62App    4.303274   104Ap     4.319726  
      63App    4.340972   105Ap     4.341236   106Ap     4.388254  
     107Ap     4.500873   108Ap     4.518883   109Ap     4.558865  
      64App    4.594372   110Ap     4.618338    65App    4.743818  
     111Ap     4.746836   112Ap     4.867254    66App    4.889388  
      67App    4.918833    68App    5.040047   113Ap     5.076391  
      69App    5.154031   114Ap     5.196649   115Ap     5.303646  
     116Ap     5.375157    70App    5.525433   117Ap     5.653767  
     118Ap     5.683508   119Ap     6.047989   120Ap     6.113295  
      71App    6.460950   121Ap     7.333463   122Ap     8.159269  
      72App    8.818638   123Ap     8.836172    73App    9.007457  
     124Ap     9.180932   125Ap     9.888397    74App   10.219307  
     126Ap    10.230253    75App   10.237207   127Ap    10.250336  
     128Ap    10.320426    76App   10.383436    77App   10.390131  
     129Ap    10.395758    78App   10.494414    79App   10.503182  
     130Ap    10.520311    80App   10.534745   131Ap    10.541563  
      81App   10.549569   132Ap    10.551733    82App   10.566633  
     133Ap    10.637390    83App   10.646142   134Ap    10.651970  
     135Ap    10.699926   136Ap    10.714851   137Ap    11.058919  
     138Ap    11.305123   139Ap    11.345526    84App   11.444387  
     140Ap    11.449370   141Ap    11.450162    85App   11.457733  
      86App   11.607100   142Ap    11.630792    87App   11.678364  
     143Ap    11.729661    88App   12.091595   144Ap    12.131664  
      89App   12.138963   145Ap    12.226594   146Ap    12.356798  
     147Ap    12.431544    90App   12.453511    91App   12.531927  
     148Ap    12.628188    92App   12.788640    93App   12.791957  
     149Ap    12.864233   150Ap    12.884512   151Ap    12.927623  
     152Ap    13.481087   153Ap    13.751920   154Ap    23.699222  
     155Ap    42.126120   156Ap    42.429315  

    Final Occupation by Irrep:
             Ap   App 
    DOCC [    13,    3 ]

  @DF-RKS Final Energy:  -548.67411348544420

   => Energetics <=

    Nuclear Repulsion Energy =            107.8550674817028749
    One-Electron Energy =                -969.7666984149775544
    Two-Electron Energy =                 345.4796637091120033
    DFT Exchange-Correlation Energy =     -32.3747080751020562
    Empirical Dispersion Energy =           0.0000000000000000
    VV10 Nonlocal Energy =                  0.1325618138204906
    Total Energy =                       -548.6741134854441952

Computation Completed


Properties will be evaluated at   0.000000,   0.000000,   0.000000 [a0]

Properties computed using the SCF density matrix

  Nuclear Dipole Moment: [e a0]
     X:    -0.0000      Y:     0.0061      Z:     0.0000

  Electronic Dipole Moment: [e a0]
     X:    -0.0041      Y:     0.6882      Z:     0.0000

  Dipole Moment: [e a0]
     X:    -0.0041      Y:     0.6943      Z:     0.0000     Total:     0.6943

  Dipole Moment: [D]
     X:    -0.0105      Y:     1.7648      Z:     0.0000     Total:     1.7649


*** tstop() called on bp1-compute00147.data.bp.acrc.priv at Mon Apr 19 16:06:53 2021
Module time:
	user time   =     145.78 seconds =       2.43 minutes
	system time =       4.81 seconds =       0.08 minutes
	total time  =          7 seconds =       0.12 minutes
Total time:
	user time   =     299.82 seconds =       5.00 minutes
	system time =      13.39 seconds =       0.22 minutes
	total time  =         14 seconds =       0.23 minutes

  //>>>>>>>>>>>>>>>>>>>>>>>>>>>>>>>>>>>//
  //    Loading displacement 3 of 7    //
  //<<<<<<<<<<<<<<<<<<<<<<<<<<<<<<<<<<<//

*** tstart() called on bp1-compute00147.data.bp.acrc.priv
*** at Mon Apr 19 16:06:53 2021

   => Loading Basis Set <=

    Name: AUG-CC-PV(Q+D)Z
    Role: ORBITAL
    Keyword: BASIS
    atoms 1   entry S          line  1148 file /work/zw18965/.conda/envs/p4env/share/psi4/basis/aug-cc-pv_qpd_z.gbs 
    atoms 2-3 entry O          line   439 file /work/zw18965/.conda/envs/p4env/share/psi4/basis/aug-cc-pv_qpd_z.gbs 


         ---------------------------------------------------------
                                   SCF
               by Justin Turney, Rob Parrish, Andy Simmonett
                          and Daniel G. A. Smith
                              RKS Reference
                       24 Threads, 137329 MiB Core
         ---------------------------------------------------------

  ==> Geometry <==

    Molecular point group: cs
    Full point group: Cs

    Geometry (in Angstrom), charge = 0, multiplicity = 1:

       Center              X                  Y                   Z               Mass       
    ------------   -----------------  -----------------  -----------------  -----------------
         S           -0.000557456564     0.364868885736     0.000000000000    31.972071174400
         O            1.240001358736    -0.361555258695     0.000000000000    15.994914619570
         O           -1.238887064515    -0.367777423695     0.000000000000    15.994914619570

  Running in cs symmetry.

  Rotational constants: A =      1.98081  B =      0.34303  C =      0.29239 [cm^-1]
  Rotational constants: A =  59383.09424  B =  10283.67839  C =   8765.68011 [MHz]
  Nuclear repulsion =  107.855180092528940

  Charge       = 0
  Multiplicity = 1
  Electrons    = 32
  Nalpha       = 16
  Nbeta        = 16

  ==> Algorithm <==

  SCF Algorithm Type is DF.
  DIIS enabled.
  MOM disabled.
  Fractional occupation disabled.
  Guess Type is SAD.
  Energy threshold   = 1.00e-08
  Density threshold  = 1.00e-08
  Integral threshold = 0.00e+00

  ==> Primary Basis <==

  Basis Set: AUG-CC-PV(Q+D)Z
    Blend: AUG-CC-PV(Q+D)Z
    Number of shells: 63
    Number of basis function: 249
    Number of Cartesian functions: 325
    Spherical Harmonics?: true
    Max angular momentum: 4

  ==> DFT Potential <==

   => Composite Functional: WB97M-V <= 

    wB97M-V Hyb-GGA Exchange-Correlation Functional

    N. Mardirossian and M. Head-Gordon, J. Chem. Phys. 144, 214110 (2016)

    Deriv               =              1
    GGA                 =           TRUE
    Meta                =           TRUE

    Exchange Hybrid     =           TRUE
    MP2 Hybrid          =          FALSE

   => Exchange-Correlation Functionals <=

    1.0000   wB97M-V exchange-correlation functional

   => Exact (HF) Exchange <=

    0.8500            HF,LR [omega = 0.3000]
    0.1500               HF 

   => VV10 Non-Local Parameters <=

    VV10 B              =     6.0000E+00
    VV10 C              =     1.0000E-02

   => Molecular Quadrature <=

    Radial Scheme          =       TREUTLER
    Pruning Scheme         =           FLAT
    Nuclear Scheme         =       TREUTLER

    BS radius alpha        =              1
    Pruning alpha          =              1
    Radial Points          =             75
    Spherical Points       =            302
    Total Points           =          67950
    Total Blocks           =            585
    Max Points             =            256
    Max Functions          =            249

   => Loading Basis Set <=

    Name: (AUG-CC-PV(Q+D)Z AUX)
    Role: JKFIT
    Keyword: DF_BASIS_SCF
    atoms 1   entry S          line   810 file /work/zw18965/.conda/envs/p4env/share/psi4/basis/aug-cc-pvqz-jkfit.gbs 
    atoms 2-3 entry O          line   318 file /work/zw18965/.conda/envs/p4env/share/psi4/basis/aug-cc-pvqz-jkfit.gbs 

  ==> Pre-Iterations <==

   -------------------------------------------------------
    Irrep   Nso     Nmo     Nalpha   Nbeta   Ndocc  Nsocc
   -------------------------------------------------------
     A'       156     156       0       0       0       0
     A"        93      93       0       0       0       0
   -------------------------------------------------------
    Total     249     249      16      16      16       0
   -------------------------------------------------------

  ==> Integral Setup <==

  ==> DiskDFJK: Density-Fitted J/K Matrices <==

    J tasked:                  Yes
    K tasked:                  Yes
    wK tasked:                 Yes
    Omega:               3.000E-01
    OpenMP threads:             24
    Integrals threads:          24
    Memory [MiB]:           101950
    Algorithm:                Core
    Integral Cache:           NONE
    Schwarz Cutoff:          1E-12
    Fitting Condition:       1E-10

   => Auxiliary Basis Set <=

  Basis Set: (AUG-CC-PV(Q+D)Z AUX)
    Blend: AUG-CC-PVQZ-JKFIT
    Number of shells: 114
    Number of basis function: 468
    Number of Cartesian functions: 643
    Spherical Harmonics?: true
    Max angular momentum: 5

  Cached 100.0% of DFT collocation blocks in 1.021 [GiB].

  Minimum eigenvalue in the overlap matrix is 8.9283959643E-05.
  Using Symmetric Orthogonalization.

  SCF Guess: Superposition of Atomic Densities via on-the-fly atomic UHF.

  ==> Iterations <==

                           Total Energy        Delta E     RMS |[F,P]|

   @DF-RKS iter SAD:  -548.43867889726391   -5.48439e+02   0.00000e+00 
   @DF-RKS iter   1:  -548.48004329183493   -4.13644e-02   4.04209e-03 DIIS
   @DF-RKS iter   2:  -548.35127517468391    1.28768e-01   5.39845e-03 DIIS
   @DF-RKS iter   3:  -548.67345111697750   -3.22176e-01   2.51595e-04 DIIS
   @DF-RKS iter   4:  -548.67404177431229   -5.90657e-04   5.13852e-05 DIIS
   @DF-RKS iter   5:  -548.67410738390299   -6.56096e-05   1.63427e-05 DIIS
   @DF-RKS iter   6:  -548.67410966590046   -2.28200e-06   1.72630e-05 DIIS
   @DF-RKS iter   7:  -548.67411338738407   -3.72148e-06   2.37003e-06 DIIS
   @DF-RKS iter   8:  -548.67411357619551   -1.88811e-07   4.59085e-07 DIIS
   @DF-RKS iter   9:  -548.67411358899028   -1.27948e-08   1.59957e-07 DIIS
   @DF-RKS iter  10:  -548.67411358959555   -6.05269e-10   3.45206e-08 DIIS
   @DF-RKS iter  11:  -548.67411358963409   -3.85398e-11   7.72218e-09 DIIS
  Energy and wave function converged.


  ==> Post-Iterations <==

    Orbital Energies [Eh]
    ---------------------

    Doubly Occupied:                                                      

       1Ap   -89.393716     2Ap   -19.393878     3Ap   -19.393704  
       4Ap    -8.287179     1App   -6.198525     5Ap    -6.195194  
       6Ap    -6.192175     7Ap    -1.279197     8Ap    -1.185805  
       9Ap    -0.760893    10Ap    -0.610498     2App   -0.609686  
      11Ap    -0.608675     3App   -0.481745    12Ap    -0.472465  
      13Ap    -0.442558  

    Virtual:                                                              

       4App   -0.044881    14Ap     0.030570    15Ap     0.041429  
      16Ap     0.043844     5App    0.047172    17Ap     0.109005  
      18Ap     0.110681    19Ap     0.118376     6App    0.125200  
       7App    0.144954    20Ap     0.145322    21Ap     0.152507  
      22Ap     0.178394     8App    0.195333    23Ap     0.214947  
      24Ap     0.244646     9App    0.247717    25Ap     0.267065  
      26Ap     0.276588    27Ap     0.287628    10App    0.307251  
      28Ap     0.344085    11App    0.413312    29Ap     0.424763  
      30Ap     0.427183    12App    0.435989    31Ap     0.443434  
      13App    0.462679    32Ap     0.472130    33Ap     0.523383  
      34Ap     0.541739    35Ap     0.548912    14App    0.558670  
      15App    0.565932    16App    0.577671    17App    0.594397  
      36Ap     0.600023    37Ap     0.610534    38Ap     0.618874  
      18App    0.624518    39Ap     0.654211    40Ap     0.682167  
      19App    0.705260    41Ap     0.735883    42Ap     0.742552  
      43Ap     0.752824    20App    0.830574    21App    0.836884  
      44Ap     0.855110    45Ap     0.949470    46Ap     0.983322  
      47Ap     1.025504    48Ap     1.080078    49Ap     1.095833  
      22App    1.110799    50Ap     1.110987    23App    1.193884  
      51Ap     1.204415    24App    1.231639    52Ap     1.253017  
      25App    1.261369    26App    1.284860    53Ap     1.298112  
      54Ap     1.313987    27App    1.316654    55Ap     1.363072  
      56Ap     1.363953    28App    1.369927    29App    1.392407  
      57Ap     1.404735    58Ap     1.411224    30App    1.445490  
      31App    1.485214    59Ap     1.488325    60Ap     1.505141  
      61Ap     1.519097    32App    1.542108    33App    1.566720  
      62Ap     1.573759    63Ap     1.591052    34App    1.648284  
      64Ap     1.658152    65Ap     1.662169    35App    1.666399  
      66Ap     1.681283    67Ap     1.804879    36App    1.888936  
      68Ap     1.896353    69Ap     1.937973    37App    1.943356  
      70Ap     2.022442    71Ap     2.088095    38App    2.088396  
      72Ap     2.098853    39App    2.111512    40App    2.124519  
      73Ap     2.124636    74Ap     2.129381    75Ap     2.196141  
      41App    2.208379    76Ap     2.412995    77Ap     2.582887  
      78Ap     2.607711    42App    2.705895    43App    2.725384  
      79Ap     2.807034    80Ap     3.010301    81Ap     3.028173  
      82Ap     3.170360    44App    3.195098    45App    3.199243  
      83Ap     3.207628    46App    3.218193    84Ap     3.271659  
      47App    3.277326    48App    3.279163    85Ap     3.329913  
      86Ap     3.334814    87Ap     3.362188    49App    3.416435  
      50App    3.424011    88Ap     3.430537    89Ap     3.495270  
      90Ap     3.519736    51App    3.529119    52App    3.550349  
      91Ap     3.613756    92Ap     3.617757    53App    3.654594  
      93Ap     3.711914    54App    3.747189    94Ap     3.819337  
      95Ap     3.851213    55App    3.860065    96Ap     3.872149  
      97Ap     3.894639    56App    3.915761    57App    3.932845  
      98Ap     3.970048    99Ap     3.972742    58App    3.982236  
     100Ap     4.006173   101Ap     4.068683   102Ap     4.081276  
      59App    4.091039    60App    4.117952    61App    4.239065  
     103Ap     4.280176    62App    4.303276   104Ap     4.319727  
      63App    4.340973   105Ap     4.341240   106Ap     4.388255  
     107Ap     4.500877   108Ap     4.518885   109Ap     4.558868  
      64App    4.594375   110Ap     4.618341    65App    4.743821  
     111Ap     4.746836   112Ap     4.867255    66App    4.889389  
      67App    4.918836    68App    5.040047   113Ap     5.076392  
      69App    5.154039   114Ap     5.196651   115Ap     5.303655  
     116Ap     5.375158    70App    5.525435   117Ap     5.653776  
     118Ap     5.683508   119Ap     6.047992   120Ap     6.113302  
      71App    6.460955   121Ap     7.333465   122Ap     8.159277  
      72App    8.818639   123Ap     8.836173    73App    9.007460  
     124Ap     9.180935   125Ap     9.888402    74App   10.219307  
     126Ap    10.230253    75App   10.237207   127Ap    10.250336  
     128Ap    10.320426    76App   10.383437    77App   10.390131  
     129Ap    10.395760    78App   10.494415    79App   10.503182  
     130Ap    10.520311    80App   10.534745   131Ap    10.541563  
      81App   10.549570   132Ap    10.551733    82App   10.566634  
     133Ap    10.637393    83App   10.646145   134Ap    10.651972  
     135Ap    10.699927   136Ap    10.714853   137Ap    11.058920  
     138Ap    11.305123   139Ap    11.345526    84App   11.444387  
     140Ap    11.449370   141Ap    11.450162    85App   11.457733  
      86App   11.607101   142Ap    11.630793    87App   11.678366  
     143Ap    11.729662    88App   12.091598   144Ap    12.131664  
      89App   12.138967   145Ap    12.226598   146Ap    12.356804  
     147Ap    12.431545    90App   12.453512    91App   12.531930  
     148Ap    12.628190    92App   12.788640    93App   12.791957  
     149Ap    12.864232   150Ap    12.884512   151Ap    12.927624  
     152Ap    13.481092   153Ap    13.751932   154Ap    23.699254  
     155Ap    42.126131   156Ap    42.429325  

    Final Occupation by Irrep:
             Ap   App 
    DOCC [    13,    3 ]

  @DF-RKS Final Energy:  -548.67411358963409

   => Energetics <=

    Nuclear Repulsion Energy =            107.8551800925289399
    One-Electron Energy =                -969.7669205501845227
    Two-Electron Energy =                 345.4797752978030303
    DFT Exchange-Correlation Energy =     -32.3747102410094101
    Empirical Dispersion Energy =           0.0000000000000000
    VV10 Nonlocal Energy =                  0.1325618112279340
    Total Energy =                       -548.6741135896340893

Computation Completed


Properties will be evaluated at   0.000000,   0.000000,   0.000000 [a0]

Properties computed using the SCF density matrix

  Nuclear Dipole Moment: [e a0]
     X:    -0.0000      Y:     0.0061      Z:     0.0000

  Electronic Dipole Moment: [e a0]
     X:     0.0009      Y:     0.6882      Z:     0.0000

  Dipole Moment: [e a0]
     X:     0.0009      Y:     0.6943      Z:     0.0000     Total:     0.6943

  Dipole Moment: [D]
     X:     0.0022      Y:     1.7648      Z:     0.0000     Total:     1.7648


*** tstop() called on bp1-compute00147.data.bp.acrc.priv at Mon Apr 19 16:06:59 2021
Module time:
	user time   =     138.88 seconds =       2.31 minutes
	system time =       4.88 seconds =       0.08 minutes
	total time  =          6 seconds =       0.10 minutes
Total time:
	user time   =     438.84 seconds =       7.31 minutes
	system time =      18.27 seconds =       0.30 minutes
	total time  =         20 seconds =       0.33 minutes

  //>>>>>>>>>>>>>>>>>>>>>>>>>>>>>>>>>>>//
  //    Loading displacement 4 of 7    //
  //<<<<<<<<<<<<<<<<<<<<<<<<<<<<<<<<<<<//

*** tstart() called on bp1-compute00147.data.bp.acrc.priv
*** at Mon Apr 19 16:06:59 2021

   => Loading Basis Set <=

    Name: AUG-CC-PV(Q+D)Z
    Role: ORBITAL
    Keyword: BASIS
    atoms 1   entry S          line  1148 file /work/zw18965/.conda/envs/p4env/share/psi4/basis/aug-cc-pv_qpd_z.gbs 
    atoms 2-3 entry O          line   439 file /work/zw18965/.conda/envs/p4env/share/psi4/basis/aug-cc-pv_qpd_z.gbs 


         ---------------------------------------------------------
                                   SCF
               by Justin Turney, Rob Parrish, Andy Simmonett
                          and Daniel G. A. Smith
                              RKS Reference
                       24 Threads, 137329 MiB Core
         ---------------------------------------------------------

  ==> Geometry <==

    Molecular point group: cs
    Full point group: Cs

    Geometry (in Angstrom), charge = 0, multiplicity = 1:

       Center              X                  Y                   Z               Mass       
    ------------   -----------------  -----------------  -----------------  -----------------
         S           -0.000862983594     0.364538084929     0.000000000000    31.972071174400
         O            1.240307142327    -0.361404833758     0.000000000000    15.994914619570
         O           -1.238582133252    -0.367266614282     0.000000000000    15.994914619570

  Running in cs symmetry.

  Rotational constants: A =      1.98439  B =      0.34303  C =      0.29247 [cm^-1]
  Rotational constants: A =  59490.65381  B =  10283.68069  C =   8768.02183 [MHz]
  Nuclear repulsion =  107.877086371405625

  Charge       = 0
  Multiplicity = 1
  Electrons    = 32
  Nalpha       = 16
  Nbeta        = 16

  ==> Algorithm <==

  SCF Algorithm Type is DF.
  DIIS enabled.
  MOM disabled.
  Fractional occupation disabled.
  Guess Type is SAD.
  Energy threshold   = 1.00e-08
  Density threshold  = 1.00e-08
  Integral threshold = 0.00e+00

  ==> Primary Basis <==

  Basis Set: AUG-CC-PV(Q+D)Z
    Blend: AUG-CC-PV(Q+D)Z
    Number of shells: 63
    Number of basis function: 249
    Number of Cartesian functions: 325
    Spherical Harmonics?: true
    Max angular momentum: 4

  ==> DFT Potential <==

   => Composite Functional: WB97M-V <= 

    wB97M-V Hyb-GGA Exchange-Correlation Functional

    N. Mardirossian and M. Head-Gordon, J. Chem. Phys. 144, 214110 (2016)

    Deriv               =              1
    GGA                 =           TRUE
    Meta                =           TRUE

    Exchange Hybrid     =           TRUE
    MP2 Hybrid          =          FALSE

   => Exchange-Correlation Functionals <=

    1.0000   wB97M-V exchange-correlation functional

   => Exact (HF) Exchange <=

    0.8500            HF,LR [omega = 0.3000]
    0.1500               HF 

   => VV10 Non-Local Parameters <=

    VV10 B              =     6.0000E+00
    VV10 C              =     1.0000E-02

   => Molecular Quadrature <=

    Radial Scheme          =       TREUTLER
    Pruning Scheme         =           FLAT
    Nuclear Scheme         =       TREUTLER

    BS radius alpha        =              1
    Pruning alpha          =              1
    Radial Points          =             75
    Spherical Points       =            302
    Total Points           =          67950
    Total Blocks           =            580
    Max Points             =            256
    Max Functions          =            249

   => Loading Basis Set <=

    Name: (AUG-CC-PV(Q+D)Z AUX)
    Role: JKFIT
    Keyword: DF_BASIS_SCF
    atoms 1   entry S          line   810 file /work/zw18965/.conda/envs/p4env/share/psi4/basis/aug-cc-pvqz-jkfit.gbs 
    atoms 2-3 entry O          line   318 file /work/zw18965/.conda/envs/p4env/share/psi4/basis/aug-cc-pvqz-jkfit.gbs 

  ==> Pre-Iterations <==

   -------------------------------------------------------
    Irrep   Nso     Nmo     Nalpha   Nbeta   Ndocc  Nsocc
   -------------------------------------------------------
     A'       156     156       0       0       0       0
     A"        93      93       0       0       0       0
   -------------------------------------------------------
    Total     249     249      16      16      16       0
   -------------------------------------------------------

  ==> Integral Setup <==

  ==> DiskDFJK: Density-Fitted J/K Matrices <==

    J tasked:                  Yes
    K tasked:                  Yes
    wK tasked:                 Yes
    Omega:               3.000E-01
    OpenMP threads:             24
    Integrals threads:          24
    Memory [MiB]:           101950
    Algorithm:                Core
    Integral Cache:           NONE
    Schwarz Cutoff:          1E-12
    Fitting Condition:       1E-10

   => Auxiliary Basis Set <=

  Basis Set: (AUG-CC-PV(Q+D)Z AUX)
    Blend: AUG-CC-PVQZ-JKFIT
    Number of shells: 114
    Number of basis function: 468
    Number of Cartesian functions: 643
    Spherical Harmonics?: true
    Max angular momentum: 5

  Cached 100.0% of DFT collocation blocks in 1.022 [GiB].

  Minimum eigenvalue in the overlap matrix is 8.9201914956E-05.
  Using Symmetric Orthogonalization.

  SCF Guess: Superposition of Atomic Densities via on-the-fly atomic UHF.

  ==> Iterations <==

                           Total Energy        Delta E     RMS |[F,P]|

   @DF-RKS iter SAD:  -548.44007001057673   -5.48440e+02   0.00000e+00 
   @DF-RKS iter   1:  -548.48019767681183   -4.01277e-02   4.04123e-03 DIIS
   @DF-RKS iter   2:  -548.35188133727570    1.28316e-01   5.39425e-03 DIIS
   @DF-RKS iter   3:  -548.67347231997394   -3.21591e-01   2.51524e-04 DIIS
   @DF-RKS iter   4:  -548.67406334135683   -5.91021e-04   5.08683e-05 DIIS
   @DF-RKS iter   5:  -548.67413041952557   -6.70782e-05   9.50585e-06 DIIS
   @DF-RKS iter   6:  -548.67413421488902   -3.79536e-06   2.76581e-06 DIIS
   @DF-RKS iter   7:  -548.67413457688167   -3.61993e-07   6.79655e-07 DIIS
   @DF-RKS iter   8:  -548.67413460454600   -2.76643e-08   3.48517e-07 DIIS
   @DF-RKS iter   9:  -548.67413460614819   -1.60219e-09   2.30669e-07 DIIS
   @DF-RKS iter  10:  -548.67413460683758   -6.89397e-10   4.54670e-08 DIIS
   @DF-RKS iter  11:  -548.67413460688545   -4.78622e-11   7.77544e-09 DIIS
  Energy and wave function converged.


  ==> Post-Iterations <==

    Orbital Energies [Eh]
    ---------------------

    Doubly Occupied:                                                      

       1Ap   -89.393619     2Ap   -19.393791     3Ap   -19.393775  
       4Ap    -8.287095     1App   -6.198441     5Ap    -6.195110  
       6Ap    -6.192090     7Ap    -1.279365     8Ap    -1.185981  
       9Ap    -0.760798    10Ap    -0.610576     2App   -0.609786  
      11Ap    -0.608729     3App   -0.481854    12Ap    -0.472576  
      13Ap    -0.442506  

    Virtual:                                                              

       4App   -0.044748    14Ap     0.030582    15Ap     0.041436  
      16Ap     0.043863     5App    0.047176    17Ap     0.109012  
      18Ap     0.110699    19Ap     0.118354     6App    0.125176  
       7App    0.144964    20Ap     0.145462    21Ap     0.152550  
      22Ap     0.178397     8App    0.195310    23Ap     0.214909  
      24Ap     0.244663     9App    0.247798    25Ap     0.267186  
      26Ap     0.276636    27Ap     0.287663    10App    0.307230  
      28Ap     0.344079    11App    0.413309    29Ap     0.424785  
      30Ap     0.427219    12App    0.436027    31Ap     0.443379  
      13App    0.462719    32Ap     0.472147    33Ap     0.523355  
      34Ap     0.541763    35Ap     0.548995    14App    0.558611  
      15App    0.565968    16App    0.577754    17App    0.594404  
      36Ap     0.600098    37Ap     0.610517    38Ap     0.618916  
      18App    0.624578    39Ap     0.654334    40Ap     0.682146  
      19App    0.705395    41Ap     0.735954    42Ap     0.742707  
      43Ap     0.752869    20App    0.830506    21App    0.836825  
      44Ap     0.855071    45Ap     0.949684    46Ap     0.983279  
      47Ap     1.025752    48Ap     1.080034    49Ap     1.095954  
      22App    1.110808    50Ap     1.111052    23App    1.193954  
      51Ap     1.204489    24App    1.231536    52Ap     1.253044  
      25App    1.261382    26App    1.284846    53Ap     1.298182  
      54Ap     1.314185    27App    1.316699    55Ap     1.363121  
      56Ap     1.363855    28App    1.370045    29App    1.392449  
      57Ap     1.404658    58Ap     1.411188    30App    1.445628  
      31App    1.485246    59Ap     1.488428    60Ap     1.505336  
      61Ap     1.519108    32App    1.542295    33App    1.566909  
      62Ap     1.573910    63Ap     1.591106    34App    1.648159  
      64Ap     1.658224    65Ap     1.662207    35App    1.666553  
      66Ap     1.681408    67Ap     1.804720    36App    1.889128  
      68Ap     1.896346    69Ap     1.938161    37App    1.943626  
      70Ap     2.022735    38App    2.088115    71Ap     2.088494  
      72Ap     2.098724    39App    2.111562    40App    2.124375  
      73Ap     2.125207    74Ap     2.129165    75Ap     2.195986  
      41App    2.208930    76Ap     2.413080    77Ap     2.583056  
      78Ap     2.607951    42App    2.706050    43App    2.725501  
      79Ap     2.807328    80Ap     3.010461    81Ap     3.028833  
      82Ap     3.170535    44App    3.195192    45App    3.199411  
      83Ap     3.207663    46App    3.218349    84Ap     3.271854  
      47App    3.277610    48App    3.279256    85Ap     3.330049  
      86Ap     3.335058    87Ap     3.362465    49App    3.416480  
      50App    3.424435    88Ap     3.430555    89Ap     3.495369  
      90Ap     3.519759    51App    3.529236    52App    3.550384  
      91Ap     3.614125    92Ap     3.617690    53App    3.654464  
      93Ap     3.712228    54App    3.747264    94Ap     3.819492  
      95Ap     3.850793    55App    3.860348    96Ap     3.872220  
      97Ap     3.894644    56App    3.916108    57App    3.932802  
      98Ap     3.970135    99Ap     3.972688    58App    3.982616  
     100Ap     4.006476   101Ap     4.068811   102Ap     4.081360  
      59App    4.091077    60App    4.117834    61App    4.239270  
     103Ap     4.280220    62App    4.303611   104Ap     4.319900  
      63App    4.341139   105Ap     4.342031   106Ap     4.388480  
     107Ap     4.501667   108Ap     4.519212   109Ap     4.559546  
      64App    4.594988   110Ap     4.618855    65App    4.744311  
     111Ap     4.746855   112Ap     4.867395    66App    4.889655  
      67App    4.919355    68App    5.040114   113Ap     5.076589  
      69App    5.155666   114Ap     5.197159   115Ap     5.305418  
     116Ap     5.375302    70App    5.525803   117Ap     5.655493  
     118Ap     5.683670   119Ap     6.048642   120Ap     6.114580  
      71App    6.461943   121Ap     7.333733   122Ap     8.160899  
      72App    8.818759   123Ap     8.836202    73App    9.007958  
     124Ap     9.181508   125Ap     9.889305    74App   10.219355  
     126Ap    10.230269    75App   10.237173   127Ap    10.250270  
     128Ap    10.320488    76App   10.383641    77App   10.390015  
     129Ap    10.396144    78App   10.494533    79App   10.503170  
     130Ap    10.520229    80App   10.534742   131Ap    10.541589  
      81App   10.549784   132Ap    10.551710    82App   10.567000  
     133Ap    10.637866    83App   10.646820   134Ap    10.652461  
     135Ap    10.700091   136Ap    10.715292   137Ap    11.059002  
     138Ap    11.305121   139Ap    11.345606    84App   11.444411  
     140Ap    11.449382   141Ap    11.450105    85App   11.457682  
      86App   11.607181   142Ap    11.631130    87App   11.678780  
     143Ap    11.729754    88App   12.092147   144Ap    12.131716  
      89App   12.139769   145Ap    12.227305   146Ap    12.358071  
     147Ap    12.431753    90App   12.453643    91App   12.532527  
     148Ap    12.628474    92App   12.788684    93App   12.791867  
     149Ap    12.864054   150Ap    12.884590   151Ap    12.927895  
     152Ap    13.482100   153Ap    13.754234   154Ap    23.705455  
     155Ap    42.128315   156Ap    42.431221  

    Final Occupation by Irrep:
             Ap   App 
    DOCC [    13,    3 ]

  @DF-RKS Final Energy:  -548.67413460688545

   => Energetics <=

    Nuclear Repulsion Energy =            107.8770863714056247
    One-Electron Energy =                -969.8101332136699284
    Two-Electron Energy =                 345.5014821871745312
    DFT Exchange-Correlation Energy =     -32.3751312576556245
    Empirical Dispersion Energy =           0.0000000000000000
    VV10 Nonlocal Energy =                  0.1325613058599129
    Total Energy =                       -548.6741346068854455

Computation Completed


Properties will be evaluated at   0.000000,   0.000000,   0.000000 [a0]

Properties computed using the SCF density matrix

  Nuclear Dipole Moment: [e a0]
     X:    -0.0000      Y:     0.0061      Z:     0.0000

  Electronic Dipole Moment: [e a0]
     X:    -0.0016      Y:     0.6869      Z:     0.0000

  Dipole Moment: [e a0]
     X:    -0.0016      Y:     0.6930      Z:     0.0000     Total:     0.6930

  Dipole Moment: [D]
     X:    -0.0042      Y:     1.7615      Z:     0.0000     Total:     1.7615


*** tstop() called on bp1-compute00147.data.bp.acrc.priv at Mon Apr 19 16:07:06 2021
Module time:
	user time   =     139.04 seconds =       2.32 minutes
	system time =       4.77 seconds =       0.08 minutes
	total time  =          7 seconds =       0.12 minutes
Total time:
	user time   =     578.02 seconds =       9.63 minutes
	system time =      23.05 seconds =       0.38 minutes
	total time  =         27 seconds =       0.45 minutes

  //>>>>>>>>>>>>>>>>>>>>>>>>>>>>>>>>>>>//
  //    Loading displacement 5 of 7    //
  //<<<<<<<<<<<<<<<<<<<<<<<<<<<<<<<<<<<//

*** tstart() called on bp1-compute00147.data.bp.acrc.priv
*** at Mon Apr 19 16:07:06 2021

   => Loading Basis Set <=

    Name: AUG-CC-PV(Q+D)Z
    Role: ORBITAL
    Keyword: BASIS
    atoms 1   entry S          line  1148 file /work/zw18965/.conda/envs/p4env/share/psi4/basis/aug-cc-pv_qpd_z.gbs 
    atoms 2-3 entry O          line   439 file /work/zw18965/.conda/envs/p4env/share/psi4/basis/aug-cc-pv_qpd_z.gbs 


         ---------------------------------------------------------
                                   SCF
               by Justin Turney, Rob Parrish, Andy Simmonett
                          and Daniel G. A. Smith
                              RKS Reference
                       24 Threads, 137329 MiB Core
         ---------------------------------------------------------

  ==> Geometry <==

    Molecular point group: cs
    Full point group: Cs

    Geometry (in Angstrom), charge = 0, multiplicity = 1:

       Center              X                  Y                   Z               Mass       
    ------------   -----------------  -----------------  -----------------  -----------------
         S           -0.000862983594     0.365199936826     0.000000000000    31.972071174400
         O            1.240307140149    -0.362065397373     0.000000000000    15.994914619570
         O           -1.238582131074    -0.367929019653     0.000000000000    15.994914619570

  Running in cs symmetry.

  Rotational constants: A =      1.97721  B =      0.34303  C =      0.29231 [cm^-1]
  Rotational constants: A =  59275.22056  B =  10283.68069  C =   8763.32763 [MHz]
  Nuclear repulsion =  107.833123295040537

  Charge       = 0
  Multiplicity = 1
  Electrons    = 32
  Nalpha       = 16
  Nbeta        = 16

  ==> Algorithm <==

  SCF Algorithm Type is DF.
  DIIS enabled.
  MOM disabled.
  Fractional occupation disabled.
  Guess Type is SAD.
  Energy threshold   = 1.00e-08
  Density threshold  = 1.00e-08
  Integral threshold = 0.00e+00

  ==> Primary Basis <==

  Basis Set: AUG-CC-PV(Q+D)Z
    Blend: AUG-CC-PV(Q+D)Z
    Number of shells: 63
    Number of basis function: 249
    Number of Cartesian functions: 325
    Spherical Harmonics?: true
    Max angular momentum: 4

  ==> DFT Potential <==

   => Composite Functional: WB97M-V <= 

    wB97M-V Hyb-GGA Exchange-Correlation Functional

    N. Mardirossian and M. Head-Gordon, J. Chem. Phys. 144, 214110 (2016)

    Deriv               =              1
    GGA                 =           TRUE
    Meta                =           TRUE

    Exchange Hybrid     =           TRUE
    MP2 Hybrid          =          FALSE

   => Exchange-Correlation Functionals <=

    1.0000   wB97M-V exchange-correlation functional

   => Exact (HF) Exchange <=

    0.8500            HF,LR [omega = 0.3000]
    0.1500               HF 

   => VV10 Non-Local Parameters <=

    VV10 B              =     6.0000E+00
    VV10 C              =     1.0000E-02

   => Molecular Quadrature <=

    Radial Scheme          =       TREUTLER
    Pruning Scheme         =           FLAT
    Nuclear Scheme         =       TREUTLER

    BS radius alpha        =              1
    Pruning alpha          =              1
    Radial Points          =             75
    Spherical Points       =            302
    Total Points           =          67950
    Total Blocks           =            579
    Max Points             =            256
    Max Functions          =            249

   => Loading Basis Set <=

    Name: (AUG-CC-PV(Q+D)Z AUX)
    Role: JKFIT
    Keyword: DF_BASIS_SCF
    atoms 1   entry S          line   810 file /work/zw18965/.conda/envs/p4env/share/psi4/basis/aug-cc-pvqz-jkfit.gbs 
    atoms 2-3 entry O          line   318 file /work/zw18965/.conda/envs/p4env/share/psi4/basis/aug-cc-pvqz-jkfit.gbs 

  ==> Pre-Iterations <==

   -------------------------------------------------------
    Irrep   Nso     Nmo     Nalpha   Nbeta   Ndocc  Nsocc
   -------------------------------------------------------
     A'       156     156       0       0       0       0
     A"        93      93       0       0       0       0
   -------------------------------------------------------
    Total     249     249      16      16      16       0
   -------------------------------------------------------

  ==> Integral Setup <==

  ==> DiskDFJK: Density-Fitted J/K Matrices <==

    J tasked:                  Yes
    K tasked:                  Yes
    wK tasked:                 Yes
    Omega:               3.000E-01
    OpenMP threads:             24
    Integrals threads:          24
    Memory [MiB]:           101950
    Algorithm:                Core
    Integral Cache:           NONE
    Schwarz Cutoff:          1E-12
    Fitting Condition:       1E-10

   => Auxiliary Basis Set <=

  Basis Set: (AUG-CC-PV(Q+D)Z AUX)
    Blend: AUG-CC-PVQZ-JKFIT
    Number of shells: 114
    Number of basis function: 468
    Number of Cartesian functions: 643
    Spherical Harmonics?: true
    Max angular momentum: 5

  Cached 100.0% of DFT collocation blocks in 1.022 [GiB].

  Minimum eigenvalue in the overlap matrix is 8.9367689726E-05.
  Using Symmetric Orthogonalization.

  SCF Guess: Superposition of Atomic Densities via on-the-fly atomic UHF.

  ==> Iterations <==

                           Total Energy        Delta E     RMS |[F,P]|

   @DF-RKS iter SAD:  -548.43728045689863   -5.48437e+02   0.00000e+00 
   @DF-RKS iter   1:  -548.47989024966012   -4.26098e-02   4.04294e-03 DIIS
   @DF-RKS iter   2:  -548.35067267833369    1.29218e-01   5.40263e-03 DIIS
   @DF-RKS iter   3:  -548.67343158497692   -3.22759e-01   2.51540e-04 DIIS
   @DF-RKS iter   4:  -548.67402227047944   -5.90686e-04   5.09298e-05 DIIS
   @DF-RKS iter   5:  -548.67408933199476   -6.70615e-05   9.50481e-06 DIIS
   @DF-RKS iter   6:  -548.67409312482596   -3.79283e-06   2.75509e-06 DIIS
   @DF-RKS iter   7:  -548.67409348482443   -3.59998e-07   6.74910e-07 DIIS
   @DF-RKS iter   8:  -548.67409351240849   -2.75841e-08   3.31535e-07 DIIS
   @DF-RKS iter   9:  -548.67409351391700   -1.50851e-09   2.20850e-07 DIIS
   @DF-RKS iter  10:  -548.67409351454330   -6.26301e-10   4.70954e-08 DIIS
   @DF-RKS iter  11:  -548.67409351459116   -4.78622e-11   7.76798e-09 DIIS
  Energy and wave function converged.


  ==> Post-Iterations <==

    Orbital Energies [Eh]
    ---------------------

    Doubly Occupied:                                                      

       1Ap   -89.393815     2Ap   -19.393807     3Ap   -19.393791  
       4Ap    -8.287263     1App   -6.198610     5Ap    -6.195279  
       6Ap    -6.192260     7Ap    -1.279025     8Ap    -1.185631  
       9Ap    -0.760989    10Ap    -0.610418     2App   -0.609583  
      11Ap    -0.608620     3App   -0.481637    12Ap    -0.472354  
      13Ap    -0.442611  

    Virtual:                                                              

       4App   -0.045015    14Ap     0.030559    15Ap     0.041422  
      16Ap     0.043826     5App    0.047167    17Ap     0.108998  
      18Ap     0.110662    19Ap     0.118398     6App    0.125224  
       7App    0.144944    20Ap     0.145182    21Ap     0.152464  
      22Ap     0.178390     8App    0.195356    23Ap     0.214985  
      24Ap     0.244630     9App    0.247635    25Ap     0.266943  
      26Ap     0.276541    27Ap     0.287593    10App    0.307272  
      28Ap     0.344090    11App    0.413315    29Ap     0.424743  
      30Ap     0.427145    12App    0.435951    31Ap     0.443491  
      13App    0.462638    32Ap     0.472114    33Ap     0.523412  
      34Ap     0.541716    35Ap     0.548828    14App    0.558728  
      15App    0.565897    16App    0.577587    17App    0.594390  
      36Ap     0.599947    37Ap     0.610552    38Ap     0.618832  
      18App    0.624458    39Ap     0.654087    40Ap     0.682189  
      19App    0.705125    41Ap     0.735811    42Ap     0.742395  
      43Ap     0.752777    20App    0.830648    21App    0.836937  
      44Ap     0.855150    45Ap     0.949257    46Ap     0.983365  
      47Ap     1.025253    48Ap     1.080122    49Ap     1.095710  
      22App    1.110790    50Ap     1.110921    23App    1.193813  
      51Ap     1.204340    24App    1.231741    52Ap     1.252991  
      25App    1.261356    26App    1.284874    53Ap     1.298041  
      54Ap     1.313787    27App    1.316608    55Ap     1.363044  
      56Ap     1.364030    28App    1.369808    29App    1.392365  
      57Ap     1.404813    58Ap     1.411260    30App    1.445351  
      31App    1.485182    59Ap     1.488221    60Ap     1.504946  
      61Ap     1.519084    32App    1.541920    33App    1.566531  
      62Ap     1.573608    63Ap     1.590999    34App    1.648410  
      64Ap     1.658081    65Ap     1.662131    35App    1.666244  
      66Ap     1.681159    67Ap     1.805037    36App    1.888746  
      68Ap     1.896361    69Ap     1.937784    37App    1.943081  
      70Ap     2.022151    71Ap     2.087691    38App    2.088689  
      72Ap     2.098984    39App    2.111464    73Ap     2.124086  
      40App    2.124651    74Ap     2.129580    75Ap     2.196294  
      41App    2.207825    76Ap     2.412908    77Ap     2.582717  
      78Ap     2.607470    42App    2.705739    43App    2.725266  
      79Ap     2.806739    80Ap     3.010160    81Ap     3.027492  
      82Ap     3.170185    44App    3.195020    45App    3.199066  
      83Ap     3.207590    46App    3.218031    84Ap     3.271465  
      47App    3.277164    48App    3.278944    85Ap     3.329780  
      86Ap     3.334555    87Ap     3.361916    49App    3.416391  
      50App    3.423583    88Ap     3.430519    89Ap     3.495170  
      90Ap     3.519713    51App    3.529002    52App    3.550313  
      91Ap     3.613458    92Ap     3.617755    53App    3.654727  
      93Ap     3.711598    54App    3.747113    94Ap     3.819187  
      95Ap     3.851639    55App    3.859781    96Ap     3.872082  
      97Ap     3.894623    56App    3.915414    57App    3.932889  
      98Ap     3.969957    99Ap     3.972795    58App    3.981853  
     100Ap     4.005866   101Ap     4.068557   102Ap     4.081190  
      59App    4.091002    60App    4.118069    61App    4.238857  
     103Ap     4.280130    62App    4.302941   104Ap     4.319550  
     105Ap     4.340449    63App    4.340806   106Ap     4.388028  
     107Ap     4.500126   108Ap     4.518514   109Ap     4.558190  
      64App    4.593757   110Ap     4.617825    65App    4.743332  
     111Ap     4.746820   112Ap     4.867108    66App    4.889120  
      67App    4.918310    68App    5.039982   113Ap     5.076209  
      69App    5.152400   114Ap     5.196140   115Ap     5.301943  
     116Ap     5.374937    70App    5.525068   117Ap     5.652051  
     118Ap     5.683334   119Ap     6.047365   120Ap     6.112005  
      71App    6.459960   121Ap     7.333196   122Ap     8.157646  
      72App    8.818520   123Ap     8.836142    73App    9.006954  
     124Ap     9.180355   125Ap     9.887489    74App   10.219264  
     126Ap    10.230240    75App   10.237238   127Ap    10.250399  
     128Ap    10.320364    76App   10.383233    77App   10.390246  
     129Ap    10.395374    78App   10.494298    79App   10.503193  
     130Ap    10.520397    80App   10.534755   131Ap    10.541534  
      81App   10.549359   132Ap    10.551755    82App   10.566263  
     133Ap    10.636904    83App   10.645458   134Ap    10.651496  
     135Ap    10.699765   136Ap    10.714410   137Ap    11.058833  
     138Ap    11.305125   139Ap    11.345450    84App   11.444365  
     140Ap    11.449381   141Ap    11.450197    85App   11.457783  
      86App   11.607021   142Ap    11.630457    87App   11.677951  
     143Ap    11.729567    88App   12.091083   144Ap    12.131604  
      89App   12.138124   145Ap    12.225896   146Ap    12.355521  
     147Ap    12.431338    90App   12.453382    91App   12.531329  
     148Ap    12.627902    92App   12.788619    93App   12.792021  
     149Ap    12.864408   150Ap    12.884441   151Ap    12.927354  
     152Ap    13.480126   153Ap    13.749575   154Ap    23.692997  
     155Ap    42.123992   156Ap    42.427362  

    Final Occupation by Irrep:
             Ap   App 
    DOCC [    13,    3 ]

  @DF-RKS Final Energy:  -548.67409351459116

   => Energetics <=

    Nuclear Repulsion Energy =            107.8331232950405365
    One-Electron Energy =                -969.7234139334955216
    Two-Electron Energy =                 345.4579206878062791
    DFT Exchange-Correlation Energy =     -32.3742858820215105
    Empirical Dispersion Energy =           0.0000000000000000
    VV10 Nonlocal Energy =                  0.1325623180790899
    Total Energy =                       -548.6740935145911635

Computation Completed


Properties will be evaluated at   0.000000,   0.000000,   0.000000 [a0]

Properties computed using the SCF density matrix

  Nuclear Dipole Moment: [e a0]
     X:    -0.0000      Y:     0.0061      Z:     0.0000

  Electronic Dipole Moment: [e a0]
     X:    -0.0016      Y:     0.6895      Z:     0.0000

  Dipole Moment: [e a0]
     X:    -0.0016      Y:     0.6956      Z:     0.0000     Total:     0.6956

  Dipole Moment: [D]
     X:    -0.0042      Y:     1.7681      Z:     0.0000     Total:     1.7681


*** tstop() called on bp1-compute00147.data.bp.acrc.priv at Mon Apr 19 16:07:12 2021
Module time:
	user time   =     135.20 seconds =       2.25 minutes
	system time =       3.71 seconds =       0.06 minutes
	total time  =          6 seconds =       0.10 minutes
Total time:
	user time   =     713.37 seconds =      11.89 minutes
	system time =      26.76 seconds =       0.45 minutes
	total time  =         33 seconds =       0.55 minutes

  //>>>>>>>>>>>>>>>>>>>>>>>>>>>>>>>>>>>//
  //    Loading displacement 6 of 7    //
  //<<<<<<<<<<<<<<<<<<<<<<<<<<<<<<<<<<<//

*** tstart() called on bp1-compute00147.data.bp.acrc.priv
*** at Mon Apr 19 16:07:12 2021

   => Loading Basis Set <=

    Name: AUG-CC-PV(Q+D)Z
    Role: ORBITAL
    Keyword: BASIS
    atoms 1   entry S          line  1148 file /work/zw18965/.conda/envs/p4env/share/psi4/basis/aug-cc-pv_qpd_z.gbs 
    atoms 2-3 entry O          line   439 file /work/zw18965/.conda/envs/p4env/share/psi4/basis/aug-cc-pv_qpd_z.gbs 


         ---------------------------------------------------------
                                   SCF
               by Justin Turney, Rob Parrish, Andy Simmonett
                          and Daniel G. A. Smith
                              RKS Reference
                       24 Threads, 137329 MiB Core
         ---------------------------------------------------------

  ==> Geometry <==

    Molecular point group: cs
    Full point group: Cs

    Geometry (in Angstrom), charge = 0, multiplicity = 1:

       Center              X                  Y                   Z               Mass       
    ------------   -----------------  -----------------  -----------------  -----------------
         S           -0.000862983594     0.364869010877     0.000000000000    31.972071174400
         O            1.239839337205    -0.361736221946     0.000000000000    15.994914619570
         O           -1.238114328130    -0.367596710587     0.000000000000    15.994914619570

  Running in cs symmetry.

  Rotational constants: A =      1.98080  B =      0.34329  C =      0.29258 [cm^-1]
  Rotational constants: A =  59382.79064  B =  10291.44783  C =   8771.31786 [MHz]
  Nuclear repulsion =  107.886675441327014

  Charge       = 0
  Multiplicity = 1
  Electrons    = 32
  Nalpha       = 16
  Nbeta        = 16

  ==> Algorithm <==

  SCF Algorithm Type is DF.
  DIIS enabled.
  MOM disabled.
  Fractional occupation disabled.
  Guess Type is SAD.
  Energy threshold   = 1.00e-08
  Density threshold  = 1.00e-08
  Integral threshold = 0.00e+00

  ==> Primary Basis <==

  Basis Set: AUG-CC-PV(Q+D)Z
    Blend: AUG-CC-PV(Q+D)Z
    Number of shells: 63
    Number of basis function: 249
    Number of Cartesian functions: 325
    Spherical Harmonics?: true
    Max angular momentum: 4

  ==> DFT Potential <==

   => Composite Functional: WB97M-V <= 

    wB97M-V Hyb-GGA Exchange-Correlation Functional

    N. Mardirossian and M. Head-Gordon, J. Chem. Phys. 144, 214110 (2016)

    Deriv               =              1
    GGA                 =           TRUE
    Meta                =           TRUE

    Exchange Hybrid     =           TRUE
    MP2 Hybrid          =          FALSE

   => Exchange-Correlation Functionals <=

    1.0000   wB97M-V exchange-correlation functional

   => Exact (HF) Exchange <=

    0.8500            HF,LR [omega = 0.3000]
    0.1500               HF 

   => VV10 Non-Local Parameters <=

    VV10 B              =     6.0000E+00
    VV10 C              =     1.0000E-02

   => Molecular Quadrature <=

    Radial Scheme          =       TREUTLER
    Pruning Scheme         =           FLAT
    Nuclear Scheme         =       TREUTLER

    BS radius alpha        =              1
    Pruning alpha          =              1
    Radial Points          =             75
    Spherical Points       =            302
    Total Points           =          67950
    Total Blocks           =            580
    Max Points             =            256
    Max Functions          =            249

   => Loading Basis Set <=

    Name: (AUG-CC-PV(Q+D)Z AUX)
    Role: JKFIT
    Keyword: DF_BASIS_SCF
    atoms 1   entry S          line   810 file /work/zw18965/.conda/envs/p4env/share/psi4/basis/aug-cc-pvqz-jkfit.gbs 
    atoms 2-3 entry O          line   318 file /work/zw18965/.conda/envs/p4env/share/psi4/basis/aug-cc-pvqz-jkfit.gbs 

  ==> Pre-Iterations <==

   -------------------------------------------------------
    Irrep   Nso     Nmo     Nalpha   Nbeta   Ndocc  Nsocc
   -------------------------------------------------------
     A'       156     156       0       0       0       0
     A"        93      93       0       0       0       0
   -------------------------------------------------------
    Total     249     249      16      16      16       0
   -------------------------------------------------------

  ==> Integral Setup <==

  ==> DiskDFJK: Density-Fitted J/K Matrices <==

    J tasked:                  Yes
    K tasked:                  Yes
    wK tasked:                 Yes
    Omega:               3.000E-01
    OpenMP threads:             24
    Integrals threads:          24
    Memory [MiB]:           101950
    Algorithm:                Core
    Integral Cache:           NONE
    Schwarz Cutoff:          1E-12
    Fitting Condition:       1E-10

   => Auxiliary Basis Set <=

  Basis Set: (AUG-CC-PV(Q+D)Z AUX)
    Blend: AUG-CC-PVQZ-JKFIT
    Number of shells: 114
    Number of basis function: 468
    Number of Cartesian functions: 643
    Spherical Harmonics?: true
    Max angular momentum: 5

  Cached 100.0% of DFT collocation blocks in 1.022 [GiB].

  Minimum eigenvalue in the overlap matrix is 8.9203177188E-05.
  Using Symmetric Orthogonalization.

  SCF Guess: Superposition of Atomic Densities via on-the-fly atomic UHF.

  ==> Iterations <==

                           Total Energy        Delta E     RMS |[F,P]|

   @DF-RKS iter SAD:  -548.44039661759632   -5.48440e+02   0.00000e+00 
   @DF-RKS iter   1:  -548.48013535714017   -3.97387e-02   4.04190e-03 DIIS
   @DF-RKS iter   2:  -548.35174096271112    1.28394e-01   5.39540e-03 DIIS
   @DF-RKS iter   3:  -548.67347812382138   -3.21737e-01   2.51493e-04 DIIS
   @DF-RKS iter   4:  -548.67406892178155   -5.90798e-04   5.08734e-05 DIIS
   @DF-RKS iter   5:  -548.67413592784965   -6.70061e-05   9.49838e-06 DIIS
   @DF-RKS iter   6:  -548.67413971303938   -3.78519e-06   2.76049e-06 DIIS
   @DF-RKS iter   7:  -548.67414007350840   -3.60469e-07   6.68542e-07 DIIS
   @DF-RKS iter   8:  -548.67414010153709   -2.80287e-08   2.56594e-07 DIIS
   @DF-RKS iter   9:  -548.67414010309722   -1.56012e-09   5.99492e-08 DIIS
   @DF-RKS iter  10:  -548.67414010318964   -9.24274e-11   3.27923e-08 DIIS
   @DF-RKS iter  11:  -548.67414010320317   -1.35287e-11   1.51714e-08 DIIS
   @DF-RKS iter  12:  -548.67414010320704   -3.86535e-12   1.43325e-09 DIIS
  Energy and wave function converged.


  ==> Post-Iterations <==

    Orbital Energies [Eh]
    ---------------------

    Doubly Occupied:                                                      

       1Ap   -89.393598     2Ap   -19.393732     3Ap   -19.393716  
       4Ap    -8.287088     1App   -6.198433     5Ap    -6.195102  
       6Ap    -6.192080     7Ap    -1.279403     8Ap    -1.185930  
       9Ap    -0.760792    10Ap    -0.610591     2App   -0.609797  
      11Ap    -0.608689     3App   -0.481809    12Ap    -0.472485  
      13Ap    -0.442569  

    Virtual:                                                              

       4App   -0.044759    14Ap     0.030578    15Ap     0.041444  
      16Ap     0.043849     5App    0.047174    17Ap     0.109063  
      18Ap     0.110681    19Ap     0.118384     6App    0.125201  
       7App    0.144949    20Ap     0.145368    21Ap     0.152561  
      22Ap     0.178395     8App    0.195371    23Ap     0.215015  
      24Ap     0.244695     9App    0.247723    25Ap     0.267100  
      26Ap     0.276603    27Ap     0.287704    10App    0.307256  
      28Ap     0.344090    11App    0.413345    29Ap     0.424777  
      30Ap     0.427281    12App    0.436016    31Ap     0.443503  
      13App    0.462705    32Ap     0.472145    33Ap     0.523431  
      34Ap     0.541761    35Ap     0.548995    14App    0.558724  
      15App    0.565967    16App    0.577735    17App    0.594422  
      36Ap     0.600038    37Ap     0.610638    38Ap     0.618861  
      18App    0.624546    39Ap     0.654250    40Ap     0.682120  
      19App    0.705201    41Ap     0.735887    42Ap     0.742642  
      43Ap     0.752862    20App    0.830508    21App    0.836855  
[...]
    Number of basis function: 249
    Number of Cartesian functions: 325
    Spherical Harmonics?: true
    Max angular momentum: 4

  ==> DFT Potential <==

   => Composite Functional: WB97M-V <= 

    wB97M-V Hyb-GGA Exchange-Correlation Functional

    N. Mardirossian and M. Head-Gordon, J. Chem. Phys. 144, 214110 (2016)

    Deriv               =              1
    GGA                 =           TRUE
    Meta                =           TRUE

    Exchange Hybrid     =           TRUE
    MP2 Hybrid          =          FALSE

   => Exchange-Correlation Functionals <=

    1.0000   wB97M-V exchange-correlation functional

   => Exact (HF) Exchange <=

    0.8500            HF,LR [omega = 0.3000]
    0.1500               HF 

   => VV10 Non-Local Parameters <=

    VV10 B              =     6.0000E+00
    VV10 C              =     1.0000E-02

   => Molecular Quadrature <=

    Radial Scheme          =       TREUTLER
    Pruning Scheme         =           FLAT
    Nuclear Scheme         =       TREUTLER

    BS radius alpha        =              1
    Pruning alpha          =              1
    Radial Points          =             75
    Spherical Points       =            302
    Total Points           =          67950
    Total Blocks           =            581
    Max Points             =            256
    Max Functions          =            249

   => Loading Basis Set <=

    Name: (AUG-CC-PV(Q+D)Z AUX)
    Role: JKFIT
    Keyword: DF_BASIS_SCF
    atoms 1   entry S          line   810 file /work/zw18965/.conda/envs/p4env/share/psi4/basis/aug-cc-pvqz-jkfit.gbs 
    atoms 2-3 entry O          line   318 file /work/zw18965/.conda/envs/p4env/share/psi4/basis/aug-cc-pvqz-jkfit.gbs 

  ==> Pre-Iterations <==

   -------------------------------------------------------
    Irrep   Nso     Nmo     Nalpha   Nbeta   Ndocc  Nsocc
   -------------------------------------------------------
     A'       156     156       0       0       0       0
     A"        93      93       0       0       0       0
   -------------------------------------------------------
    Total     249     249      16      16      16       0
   -------------------------------------------------------

  ==> Integral Setup <==

  ==> DiskDFJK: Density-Fitted J/K Matrices <==

    J tasked:                  Yes
    K tasked:                  Yes
    wK tasked:                 Yes
    Omega:               3.000E-01
    OpenMP threads:             24
    Integrals threads:          24
    Memory [MiB]:           101949
    Algorithm:                Core
    Integral Cache:           NONE
    Schwarz Cutoff:          1E-12
    Fitting Condition:       1E-10

   => Auxiliary Basis Set <=

  Basis Set: (AUG-CC-PV(Q+D)Z AUX)
    Blend: AUG-CC-PVQZ-JKFIT
    Number of shells: 114
    Number of basis function: 468
    Number of Cartesian functions: 643
    Spherical Harmonics?: true
    Max angular momentum: 5

  Cached 100.0% of DFT collocation blocks in 1.022 [GiB].

  Minimum eigenvalue in the overlap matrix is 8.6427188133E-05.
  Using Symmetric Orthogonalization.

  SCF Guess: Superposition of Atomic Densities via on-the-fly atomic UHF.

  ==> Iterations <==

                           Total Energy        Delta E     RMS |[F,P]|

   @DF-RKS iter SAD:  -548.49588691395445   -5.48496e+02   0.00000e+00 
   @DF-RKS iter   1:  -548.48345562512009    1.24313e-02   4.02838e-03 DIIS
   @DF-RKS iter   2:  -548.36823913463456    1.15216e-01   5.28011e-03 DIIS
   @DF-RKS iter   3:  -548.67385800068212   -3.05619e-01   2.50651e-04 DIIS
   @DF-RKS iter   4:  -548.67445018039894   -5.92180e-04   5.00282e-05 DIIS
   @DF-RKS iter   5:  -548.67451595405021   -6.57737e-05   9.38774e-06 DIIS
   @DF-RKS iter   6:  -548.67451957212245   -3.61807e-06   2.85941e-06 DIIS
   @DF-RKS iter   7:  -548.67451993346072   -3.61338e-07   7.05403e-07 DIIS
   @DF-RKS iter   8:  -548.67451996156683   -2.81061e-08   3.31040e-07 DIIS
   @DF-RKS iter   9:  -548.67451996330112   -1.73429e-09   2.19044e-07 DIIS
   @DF-RKS iter  10:  -548.67451996390366   -6.02540e-10   5.00905e-08 DIIS
   @DF-RKS iter  11:  -548.67451996395789   -5.42286e-11   7.40465e-09 DIIS
   @DF-RKS iter  12:  -548.67451996395914   -1.25056e-12   1.28344e-09 DIIS
   @DF-RKS iter  13:  -548.67451996395994   -7.95808e-13   4.25219e-10 DIIS
   @DF-RKS iter  14:  -548.67451996395994    0.00000e+00   3.23364e-11 DIIS
  Energy and wave function converged.


  ==> Post-Iterations <==

    Orbital Energies [Eh]
    ---------------------

    Doubly Occupied:                                                      

       1Ap   -89.389707     2Ap   -19.392124     3Ap   -19.392108  
       4Ap    -8.283994     1App   -6.195316     5Ap    -6.191993  
       6Ap    -6.188909     7Ap    -1.286093     8Ap    -1.190794  
       9Ap    -0.757410    10Ap    -0.613655     2App   -0.613539  
      11Ap    -0.609631     3App   -0.484531    12Ap    -0.474280  
      13Ap    -0.442142  

    Virtual:                                                              

       4App   -0.040444    14Ap     0.030880    15Ap     0.041821  
      16Ap     0.044162     5App    0.047294    17Ap     0.110357  
      18Ap     0.110878    19Ap     0.118296     6App    0.124928  
       7App    0.144968    20Ap     0.148003    21Ap     0.154239  
      22Ap     0.178468     8App    0.195963    23Ap     0.216022  
      24Ap     0.246008     9App    0.248831    25Ap     0.269271  
      26Ap     0.277593    27Ap     0.289838    10App    0.307136  
      28Ap     0.344147    11App    0.414039    29Ap     0.425296  
      30Ap     0.429942    12App    0.437041    31Ap     0.444442  
      13App    0.463766    32Ap     0.472690    33Ap     0.524080  
      34Ap     0.542572    35Ap     0.551823    14App    0.559208  
      15App    0.567162    16App    0.580170    17App    0.595066  
      36Ap     0.601271    37Ap     0.612781    38Ap     0.619061  
      18App    0.625944    39Ap     0.656495    40Ap     0.680816  
      19App    0.705486    41Ap     0.736795    42Ap     0.746597  
      43Ap     0.754240    20App    0.828138    21App    0.835614  
      44Ap     0.852531    45Ap     0.954242    46Ap     0.983809  
      47Ap     1.036639    48Ap     1.082358    49Ap     1.097421  
      22App    1.111794    50Ap     1.113470    23App    1.194333  
      51Ap     1.204858    24App    1.232274    52Ap     1.253302  
      25App    1.262125    26App    1.286474    53Ap     1.298393  
      54Ap     1.317122    27App    1.319055    55Ap     1.366455  
      56Ap     1.367852    28App    1.371163    29App    1.395462  
      57Ap     1.410085    58Ap     1.411534    30App    1.451412  
      31App    1.486230    59Ap     1.491234    60Ap     1.509762  
      61Ap     1.523074    32App    1.545983    33App    1.567546  
      62Ap     1.577942    63Ap     1.592170    34App    1.654623  
      64Ap     1.662477    65Ap     1.663718    35App    1.672379  
      66Ap     1.686681    67Ap     1.801021    36App    1.894314  
      68Ap     1.906101    69Ap     1.937268    37App    1.952266  
      70Ap     2.030950    38App    2.078288    71Ap     2.094047  
      72Ap     2.097592    39App    2.119570    40App    2.122510  
      73Ap     2.130543    74Ap     2.134142    75Ap     2.189542  
      41App    2.213926    76Ap     2.424910    77Ap     2.583433  
      78Ap     2.620030    42App    2.710374    43App    2.730334  
      79Ap     2.814027    80Ap     3.018888    81Ap     3.040759  
      82Ap     3.176200    44App    3.201116    45App    3.204531  
      83Ap     3.205294    46App    3.220940    84Ap     3.276331  
      47App    3.283536    48App    3.286797    85Ap     3.340016  
      86Ap     3.345155    87Ap     3.377972    49App    3.415882  
      88Ap     3.431136    50App    3.435556    89Ap     3.496349  
      90Ap     3.521709    51App    3.532578    52App    3.555096  
      91Ap     3.626979    92Ap     3.629271    53App    3.664115  
      93Ap     3.725042    54App    3.753628    94Ap     3.821203  
      95Ap     3.835700    55App    3.869335    96Ap     3.879140  
      97Ap     3.894104    56App    3.915826    57App    3.933347  
      98Ap     3.971117    99Ap     3.979689    58App    3.991689  
     100Ap     4.014041   101Ap     4.077057   102Ap     4.084286  
      59App    4.098928    60App    4.126420    61App    4.249423  
     103Ap     4.294618    62App    4.319325   104Ap     4.332044  
      63App    4.349376   105Ap     4.358918   106Ap     4.405901  
     107Ap     4.523110   108Ap     4.541011   109Ap     4.577424  
      64App    4.613090   110Ap     4.613649    65App    4.760818  
     111Ap     4.775111   112Ap     4.880828    66App    4.902775  
      67App    4.943743    68App    5.044195   113Ap     5.085072  
      69App    5.186071   114Ap     5.233012   115Ap     5.360913  
     116Ap     5.389434    70App    5.537109   117Ap     5.688641  
     118Ap     5.697189   119Ap     6.062969   120Ap     6.134154  
      71App    6.497773   121Ap     7.375235   122Ap     8.200225  
      72App    8.828932   123Ap     8.845829    73App    9.023899  
     124Ap     9.195440   125Ap     9.927893    74App   10.218752  
     126Ap    10.229893    75App   10.239092   127Ap    10.251562  
     128Ap    10.327299    76App   10.385974    77App   10.399213  
     129Ap    10.400595    78App   10.497475    79App   10.504227  
     130Ap    10.514355    80App   10.537191   131Ap    10.547050  
      81App   10.554522   132Ap    10.556255    82App   10.585166  
     133Ap    10.642089    83App   10.660460   134Ap    10.662809  
     135Ap    10.712362   136Ap    10.726263   137Ap    11.093417  
     138Ap    11.308832   139Ap    11.345955    84App   11.446077  
     140Ap    11.450980   141Ap    11.451321    85App   11.458790  
      86App   11.615757   142Ap    11.634987    87App   11.689162  
     143Ap    11.747066    88App   12.114676   144Ap    12.136305  
      89App   12.166796   145Ap    12.233608   146Ap    12.392689  
     147Ap    12.444646    90App   12.464559    91App   12.545576  
     148Ap    12.643424    92App   12.790068    93App   12.791995  
     149Ap    12.863422   150Ap    12.893356   151Ap    12.930192  
     152Ap    13.524768   153Ap    13.838470   154Ap    23.965059  
     155Ap    42.195776   156Ap    42.502961  

    Final Occupation by Irrep:
             Ap   App 
    DOCC [    13,    3 ]

  @DF-RKS Final Energy:  -548.67451996395994

   => Energetics <=

    Nuclear Repulsion Energy =            108.8575508109138639
    One-Electron Energy =                -971.7614261864357559
    Two-Electron Energy =                 346.4895129813268113
    DFT Exchange-Correlation Energy =     -32.3926852855067651
    Empirical Dispersion Energy =           0.0000000000000000
    VV10 Nonlocal Energy =                  0.1325277157419650
    Total Energy =                       -548.6745199639599377

Computation Completed


Properties will be evaluated at   0.000000,   0.000000,   0.000000 [a0]

Properties computed using the SCF density matrix

  Nuclear Dipole Moment: [e a0]
     X:    -0.0000      Y:     0.0061      Z:     0.0000

  Electronic Dipole Moment: [e a0]
     X:    -0.0016      Y:     0.6698      Z:     0.0000

  Dipole Moment: [e a0]
     X:    -0.0016      Y:     0.6758      Z:     0.0000     Total:     0.6758

  Dipole Moment: [D]
     X:    -0.0041      Y:     1.7178      Z:     0.0000     Total:     1.7178


*** tstop() called on bp1-compute00147.data.bp.acrc.priv at Mon Apr 19 16:11:29 2021
Module time:
	user time   =     151.17 seconds =       2.52 minutes
	system time =       3.12 seconds =       0.05 minutes
	total time  =          7 seconds =       0.12 minutes
Total time:
	user time   =    6395.10 seconds =     106.59 minutes
	system time =     160.08 seconds =       2.67 minutes
	total time  =        290 seconds =       4.83 minutes

         ----------------------------------------------------------
                                   FINDIF
                     R. A. King and Jonathon Misiewicz
         ---------------------------------------------------------

  Computing second-derivative from energies using projected, 
  symmetry-adapted, cartesian coordinates.

  13 energies passed in, including the reference geometry.
    Using 3-point formula.
    Energy without displacement: -548.6745214114
    Check energies below for precision!
    0: -1        :      -548.6745204327
    0: 1         :      -548.6745204410
    1: -1        :      -548.6745210282
    1: 1         :      -548.6745210209
    2: -1        :      -548.6745209416
    2: 1         :      -548.6745209383
    0: 1, 1: 1   :      -548.6745200504
    0: -1, 1: -1 :      -548.6745200388
    0: 1, 2: 1   :      -548.6745199709
    0: -1, 2: -1 :      -548.6745199575
    1: 1, 2: 1   :      -548.6745199747
    1: -1, 2: -1 :      -548.6745199640

-------------------------------------------------------------


  ==> Harmonic Vibrational Analysis <==

  non-mass-weighted Hessian:       Symmetric? True   Hermitian? True   Lin Dep Dim?  6 (0)
  projection of translations (True) and rotations (True) removed 6 degrees of freedom (6)
  total projector:                 Symmetric? True   Hermitian? True   Lin Dep Dim?  6 (6)
  mass-weighted Hessian:           Symmetric? True   Hermitian? True   Lin Dep Dim?  6 (0)
  pre-proj  low-frequency mode:    0.0000i [cm^-1]
  pre-proj  low-frequency mode:    0.0000i [cm^-1]
  pre-proj  low-frequency mode:    0.0000i [cm^-1]
  pre-proj  low-frequency mode:    0.0000i [cm^-1]
  pre-proj  low-frequency mode:    0.0000  [cm^-1]
  pre-proj  low-frequency mode:    0.0000  [cm^-1]
  pre-proj  all modes:['0.0000i' '0.0000i' '0.0000i' '0.0000i' '0.0000' '0.0000' '532.7383'
 '1237.1777' '1435.3223']
  projected mass-weighted Hessian: Symmetric? True   Hermitian? True   Lin Dep Dim?  6 (6)
  post-proj low-frequency mode:    0.0000i [cm^-1] (TR)
  post-proj low-frequency mode:    0.0000i [cm^-1] (TR)
  post-proj low-frequency mode:    0.0000i [cm^-1] (TR)
  post-proj low-frequency mode:    0.0000i [cm^-1] (TR)
  post-proj low-frequency mode:    0.0000  [cm^-1] (TR)
  post-proj low-frequency mode:    0.0000  [cm^-1] (TR)
  post-proj  all modes:['0.0000i' '0.0000i' '0.0000i' '0.0000i' '0.0000' '0.0000' '532.7383'
 '1237.1777' '1435.3223']

  Vibration                       7                   8                   9           
  Freq [cm^-1]                 532.7383           1237.1777           1435.3223       
  Irrep                           Ap                  Ap                  Ap          
  Reduced mass [u]             18.6613             17.9125             20.3271        
  Force const [mDyne/A]         3.1205             16.1537             24.6731        
  Turning point v=0 [a0]        0.1100              0.0737              0.0642        
  RMS dev v=0 [a0 u^1/2]        0.3362              0.2206              0.2048        
  Char temp [K]                766.4918           1780.0232           2065.1093       
  ----------------------------------------------------------------------------------
      1   S               -0.00  0.41 -0.00   -0.00  0.35 -0.00    0.52  0.00 -0.00   
      2   O               -0.50 -0.41  0.00    0.57 -0.35 -0.00   -0.52  0.30  0.00   
      3   O                0.50 -0.41 -0.00   -0.56 -0.35  0.00   -0.52 -0.31 -0.00   

  ==> Thermochemistry Components <==

  Entropy, S
    Electronic S            0.000 [cal/(mol K)]        0.000 [J/(mol K)]       0.00000000 [mEh/K] (multiplicity = 1)
    Translational S        38.386 [cal/(mol K)]      160.607 [J/(mol K)]       0.06117186 [mEh/K] (mol. weight = 63.9619 [u], P = 101325.00 [Pa])
    Rotational S           21.569 [cal/(mol K)]       90.247 [J/(mol K)]       0.03437315 [mEh/K] (symmetry no. = 1)
    Vibrational S           0.632 [cal/(mol K)]        2.644 [J/(mol K)]       0.00100724 [mEh/K]
  Total S                  60.587 [cal/(mol K)]      253.498 [J/(mol K)]       0.09655224 [mEh/K]
  Correction S              0.000 [cal/(mol K)]        0.000 [J/(mol K)]       0.00000000 [mEh/K]

  Constant volume heat capacity, Cv
    Electronic Cv           0.000 [cal/(mol K)]        0.000 [J/(mol K)]       0.00000000 [mEh/K]
    Translational Cv        2.981 [cal/(mol K)]       12.472 [J/(mol K)]       0.00475022 [mEh/K]
    Rotational Cv           2.981 [cal/(mol K)]       12.472 [J/(mol K)]       0.00475022 [mEh/K]
    Vibrational Cv          1.453 [cal/(mol K)]        6.080 [J/(mol K)]       0.00231574 [mEh/K]
  Total Cv                  7.415 [cal/(mol K)]       31.023 [J/(mol K)]       0.01181617 [mEh/K]
  Correction Cv             0.000 [cal/(mol K)]        0.000 [J/(mol K)]       0.00000000 [mEh/K]

  Constant pressure heat capacity, Cp
    Electronic Cp           0.000 [cal/(mol K)]        0.000 [J/(mol K)]       0.00000000 [mEh/K]
    Translational Cp        4.968 [cal/(mol K)]       20.786 [J/(mol K)]       0.00791703 [mEh/K]
    Rotational Cp           2.981 [cal/(mol K)]       12.472 [J/(mol K)]       0.00475022 [mEh/K]
    Vibrational Cp          1.453 [cal/(mol K)]        6.080 [J/(mol K)]       0.00231574 [mEh/K]
  Total Cp                  9.402 [cal/(mol K)]       39.338 [J/(mol K)]       0.01498298 [mEh/K]
  Correction Cp             0.000 [cal/(mol K)]        0.000 [J/(mol K)]       0.00000000 [mEh/K]

  ==> Thermochemistry Energy Analysis <==

  Raw electronic energy, E0
  Total E0, Electronic energy at well bottom at 0 [K]                 -548.67452141 [Eh]

  Zero-point energy, ZPE_vib = Sum_i nu_i / 2
    Electronic ZPE          0.000 [kcal/mol]        0.000 [kJ/mol]       0.00000000 [Eh]
    Translational ZPE       0.000 [kcal/mol]        0.000 [kJ/mol]       0.00000000 [Eh]
    Rotational ZPE          0.000 [kcal/mol]        0.000 [kJ/mol]       0.00000000 [Eh]
    Vibrational ZPE         4.582 [kcal/mol]       19.172 [kJ/mol]       0.00730207 [Eh]        1602.619 [cm^-1]
  Correction ZPE            4.582 [kcal/mol]       19.172 [kJ/mol]       0.00730207 [Eh]        1602.619 [cm^-1]
  Total ZPE, Electronic energy at 0 [K]                               -548.66721934 [Eh]

  Thermal Energy, E (includes ZPE)
    Electronic E            0.000 [kcal/mol]        0.000 [kJ/mol]       0.00000000 [Eh]
    Translational E         0.889 [kcal/mol]        3.718 [kJ/mol]       0.00141628 [Eh]
    Rotational E            0.889 [kcal/mol]        3.718 [kJ/mol]       0.00141628 [Eh]
    Vibrational E           4.721 [kcal/mol]       19.754 [kJ/mol]       0.00752392 [Eh]
  Correction E              6.499 [kcal/mol]       27.191 [kJ/mol]       0.01035648 [Eh]
  Total E, Electronic energy at  298.15 [K]                           -548.66416494 [Eh]

  Enthalpy, H_trans = E_trans + k_B * T
    Electronic H            0.000 [kcal/mol]        0.000 [kJ/mol]       0.00000000 [Eh]
    Translational H         1.481 [kcal/mol]        6.197 [kJ/mol]       0.00236046 [Eh]
    Rotational H            0.889 [kcal/mol]        3.718 [kJ/mol]       0.00141628 [Eh]
    Vibrational H           4.721 [kcal/mol]       19.754 [kJ/mol]       0.00752392 [Eh]
  Correction H              7.091 [kcal/mol]       29.670 [kJ/mol]       0.01130066 [Eh]
  Total H, Enthalpy at  298.15 [K]                                    -548.66322075 [Eh]

  Gibbs free energy, G = H - T * S
    Electronic G            0.000 [kcal/mol]        0.000 [kJ/mol]       0.00000000 [Eh]
    Translational G        -9.964 [kcal/mol]      -41.687 [kJ/mol]      -0.01587793 [Eh]
    Rotational G           -5.542 [kcal/mol]      -23.189 [kJ/mol]      -0.00883208 [Eh]
    Vibrational G           4.533 [kcal/mol]       18.966 [kJ/mol]       0.00722361 [Eh]
  Correction G            -10.973 [kcal/mol]      -45.911 [kJ/mol]      -0.01748639 [Eh]
  Total G, Free enthalpy at  298.15 [K]                               -548.69200780 [Eh]

    Psi4 stopped on: Monday, 19 April 2021 04:11PM
    Psi4 wall time for execution: 0:04:50.70

*** Psi4 exiting successfully. Buy a developer a beer!
