
    -----------------------------------------------------------------------
          Psi4: An Open-Source Ab Initio Electronic Structure Package
                               Psi4 1.3.2 release

                         Git: Rev {HEAD} ecbda83 


    R. M. Parrish, L. A. Burns, D. G. A. Smith, A. C. Simmonett,
    A. E. DePrince III, E. G. Hohenstein, U. Bozkaya, A. Yu. Sokolov,
    R. Di Remigio, R. M. Richard, J. F. Gonthier, A. M. James,
    H. R. McAlexander, A. Kumar, M. Saitow, X. Wang, B. P. Pritchard,
    P. Verma, H. F. Schaefer III, K. Patkowski, R. A. King, E. F. Valeev,
    F. A. Evangelista, J. M. Turney, T. D. Crawford, and C. D. Sherrill,
    J. Chem. Theory Comput. 13(7) pp 3185--3197 (2017).
    (doi: 10.1021/acs.jctc.7b00174)


                         Additional Contributions by
    P. Kraus, H. Kruse, M. H. Lechner, M. C. Schieber, R. A. Shaw,
    A. Alenaizan, R. Galvelis, Z. L. Glick, S. Lehtola, and J. P. Misiewicz

    -----------------------------------------------------------------------


    Psi4 started on: Tuesday, 27 April 2021 04:53PM

    Process ID: 274697
    Host:       bp1-compute00046.data.bp.acrc.priv
    PSIDATADIR: /work/zw18965/.conda/envs/p4env/share/psi4
    Memory:     500.0 MiB
    Threads:    24
    
  ==> Input File <==

--------------------------------------------------------------------------
memory 144 GB

molecule {
0 1
S 0.0000000000 0.0000000000 0.0000000000
O 0.0000000000 0.0000000000 1.4355085900
O 1.2508167239 0.0000000000 -0.7043737894
}

set dynamic_level 1
set basis aug-cc-pV(Q+d)Z
 
optimize("wB97M-V")
frequencies("wB97M-V")
--------------------------------------------------------------------------

  Memory set to 134.110 GiB by Python driver.
gradient() will perform gradient computation by finite difference of analytic energies.

         ----------------------------------------------------------
                                   FINDIF
                     R. A. King and Jonathon Misiewicz
         ---------------------------------------------------------

  Using finite-differences of energies to determine gradients.
    Generating geometries for use with 3-point formula.
    Displacement size will be 5.00e-03.
    Number of atoms is 3.
    Number of symmetric SALCs is 2.
    Translations projected? 1. Rotations projected? 1.
    Number of geometries (including reference) is 5.

  //>>>>>>>>>>>>>>>>>>>>>>>>>>>>>>>>>>>//
  //    Loading displacement 1 of 5    //
  //<<<<<<<<<<<<<<<<<<<<<<<<<<<<<<<<<<<//

*** tstart() called on bp1-compute00046.data.bp.acrc.priv
*** at Tue Apr 27 16:53:54 2021

   => Loading Basis Set <=

    Name: AUG-CC-PV(Q+D)Z
    Role: ORBITAL
    Keyword: BASIS
    atoms 1   entry S          line  1148 file /work/zw18965/.conda/envs/p4env/share/psi4/basis/aug-cc-pv_qpd_z.gbs 
    atoms 2-3 entry O          line   439 file /work/zw18965/.conda/envs/p4env/share/psi4/basis/aug-cc-pv_qpd_z.gbs 


         ---------------------------------------------------------
                                   SCF
               by Justin Turney, Rob Parrish, Andy Simmonett
                          and Daniel G. A. Smith
                              RKS Reference
                       24 Threads, 137329 MiB Core
         ---------------------------------------------------------

  ==> Geometry <==

    Molecular point group: c2v
    Full point group: C2v

    Geometry (in Angstrom), charge = 0, multiplicity = 1:

       Center              X                  Y                   Z               Mass       
    ------------   -----------------  -----------------  -----------------  -----------------
         S           -0.000000000000     0.000000000000    -0.362307388741    31.972071174400
         O           -0.000000000000     1.239318267683     0.362106266127    15.994914619570
         O            0.000000000000    -1.239318267683     0.362106266127    15.994914619570

  Running in c2v symmetry.

  Rotational constants: A =      2.00892  B =      0.34310  C =      0.29305 [cm^-1]
  Rotational constants: A =  60225.80440  B =  10285.83551  C =   8785.39654 [MHz]
  Nuclear repulsion =  108.033990949454420

  Charge       = 0
  Multiplicity = 1
  Electrons    = 32
  Nalpha       = 16
  Nbeta        = 16

  ==> Algorithm <==

  SCF Algorithm Type is DF.
  DIIS enabled.
  MOM disabled.
  Fractional occupation disabled.
  Guess Type is SAD.
  Energy threshold   = 1.00e-08
  Density threshold  = 1.00e-08
  Integral threshold = 0.00e+00

  ==> Primary Basis <==

  Basis Set: AUG-CC-PV(Q+D)Z
    Blend: AUG-CC-PV(Q+D)Z
    Number of shells: 63
    Number of basis function: 249
    Number of Cartesian functions: 325
    Spherical Harmonics?: true
    Max angular momentum: 4

  ==> DFT Potential <==

   => Composite Functional: WB97M-V <= 

    wB97M-V Hyb-GGA Exchange-Correlation Functional

    N. Mardirossian and M. Head-Gordon, J. Chem. Phys. 144, 214110 (2016)

    Deriv               =              1
    GGA                 =           TRUE
    Meta                =           TRUE

    Exchange Hybrid     =           TRUE
    MP2 Hybrid          =          FALSE

   => Exchange-Correlation Functionals <=

    1.0000   wB97M-V exchange-correlation functional

   => Exact (HF) Exchange <=

    0.8500            HF,LR [omega = 0.3000]
    0.1500               HF 

   => VV10 Non-Local Parameters <=

    VV10 B              =     6.0000E+00
    VV10 C              =     1.0000E-02

   => Molecular Quadrature <=

    Radial Scheme          =       TREUTLER
    Pruning Scheme         =           FLAT
    Nuclear Scheme         =       TREUTLER

    BS radius alpha        =              1
    Pruning alpha          =              1
    Radial Points          =             75
    Spherical Points       =            302
    Total Points           =          67950
    Total Blocks           =            599
    Max Points             =            256
    Max Functions          =            249

   => Loading Basis Set <=

    Name: (AUG-CC-PV(Q+D)Z AUX)
    Role: JKFIT
    Keyword: DF_BASIS_SCF
    atoms 1   entry S          line   810 file /work/zw18965/.conda/envs/p4env/share/psi4/basis/aug-cc-pvqz-jkfit.gbs 
    atoms 2-3 entry O          line   318 file /work/zw18965/.conda/envs/p4env/share/psi4/basis/aug-cc-pvqz-jkfit.gbs 

  ==> Pre-Iterations <==

   -------------------------------------------------------
    Irrep   Nso     Nmo     Nalpha   Nbeta   Ndocc  Nsocc
   -------------------------------------------------------
     A1        85      85       0       0       0       0
     A2        42      42       0       0       0       0
     B1        51      51       0       0       0       0
     B2        71      71       0       0       0       0
   -------------------------------------------------------
    Total     249     249      16      16      16       0
   -------------------------------------------------------

  ==> Integral Setup <==

  ==> DiskDFJK: Density-Fitted J/K Matrices <==

    J tasked:                  Yes
    K tasked:                  Yes
    wK tasked:                 Yes
    Omega:               3.000E-01
    OpenMP threads:             24
    Integrals threads:          24
    Memory [MiB]:           101950
    Algorithm:                Core
    Integral Cache:           NONE
    Schwarz Cutoff:          1E-12
    Fitting Condition:       1E-10

   => Auxiliary Basis Set <=

  Basis Set: (AUG-CC-PV(Q+D)Z AUX)
    Blend: AUG-CC-PVQZ-JKFIT
    Number of shells: 114
    Number of basis function: 468
    Number of Cartesian functions: 643
    Spherical Harmonics?: true
    Max angular momentum: 5

  Cached 100.0% of DFT collocation blocks in 1.022 [GiB].

  Minimum eigenvalue in the overlap matrix is 8.8622376086E-05.
  Using Symmetric Orthogonalization.

  SCF Guess: Superposition of Atomic Densities via on-the-fly atomic UHF.

  ==> Iterations <==

                           Total Energy        Delta E     RMS |[F,P]|

   @DF-RKS iter SAD:  -548.44994206309559   -5.48450e+02   0.00000e+00 
   @DF-RKS iter   1:  -548.48122141407953   -3.12794e-02   5.68326e-03 DIIS
   @DF-RKS iter   2:  -548.35600190213984    1.25220e-01   7.55622e-03 DIIS
   @DF-RKS iter   3:  -548.67359377215928   -3.17592e-01   3.54157e-04 DIIS
   @DF-RKS iter   4:  -548.67418601584438   -5.92244e-04   7.13580e-05 DIIS
   @DF-RKS iter   5:  -548.67425316783294   -6.71520e-05   1.33962e-05 DIIS
   @DF-RKS iter   6:  -548.67425697330827   -3.80548e-06   3.94643e-06 DIIS
   @DF-RKS iter   7:  -548.67425734254891   -3.69241e-07   9.56541e-07 DIIS
   @DF-RKS iter   8:  -548.67425737134204   -2.87931e-08   3.67592e-07 DIIS
   @DF-RKS iter   9:  -548.67425737299004   -1.64800e-09   8.13027e-08 DIIS
   @DF-RKS iter  10:  -548.67425737309532   -1.05274e-10   1.51204e-08 DIIS
   @DF-RKS iter  11:  -548.67425737310032   -5.00222e-12   2.71735e-09 DIIS
  Energy and wave function converged.


  ==> Post-Iterations <==

    Orbital Energies [Eh]
    ---------------------

    Doubly Occupied:                                                      

       1A1   -89.392923     1B2   -19.393720     2A1   -19.393704  
       3A1    -8.286502     1B1    -6.197840     2B2    -6.194512  
       4A1    -6.191492     5A1    -1.280568     3B2    -1.187197  
       6A1    -0.760130     7A1    -0.611136     2B1    -0.610503  
       4B2    -0.609097     1A2    -0.482606     5B2    -0.473333  
       8A1    -0.442150  

    Virtual:                                                              

       3B1    -0.043815     9A1     0.030660    10A1     0.041484  
       6B2     0.043986     4B1     0.047208    11A1     0.109073  
       7B2     0.110818    12A1     0.118207     2A2     0.125015  
       5B1     0.145031     8B2     0.146413    13A1     0.152856  
       9B2     0.178426     6B1     0.195166    14A1     0.214668  
      15A1     0.244785     3A2     0.248352    10B2     0.267999  
      11B2     0.276986    16A1     0.287916     7B1     0.307090  
      17A1     0.344041     8B1     0.413296    12B2     0.424929  
      18A1     0.427489     4A2     0.436288    19A1     0.443029  
       9B1     0.462997    20A1     0.472263    13B2     0.523177  
      14B2     0.541923    21A1     0.549573     5A2     0.558223  
      10B1     0.566215     6A2     0.578349    11B1     0.594460  
      15B2     0.600616    22A1     0.610422    16B2     0.619194  
       7A2     0.624996    23A1     0.655166    24A1     0.681999  
      12B1     0.706288    17B2     0.736437    25A1     0.743781  
      18B2     0.753194    13B1     0.830008     8A2     0.836443  
      26A1     0.854771    27A1     0.951175    19B2     0.983008  
      20B2     1.027524    21B2     1.079769    28A1     1.096782  
      14B1     1.110878    29A1     1.111517    15B1     1.194423  
      30A1     1.204982     9A2     1.230843    31A1     1.253232  
      16B1     1.261481    10A2     1.284780    22B2     1.298647  
      23B2     1.315527    17B1     1.317030    24B2     1.363294  
      32A1     1.363431    11A2     1.370848    12A2     1.392763  
      25B2     1.404219    33A1     1.410950    18B1     1.446608  
      19B1     1.485473    34A1     1.489131    26B2     1.506690  
      35A1     1.519196    13A2     1.543584    20B1     1.568157  
      27B2     1.574961    36A1     1.591512    14A2     1.647403  
      28B2     1.658746    37A1     1.662445    21B1     1.667646  
      38A1     1.682322    29B2     1.803636    15A2     1.890451  
      30B2     1.896420    39A1     1.939377    22B1     1.945530  
      40A1     2.024758    23B1     2.086106    31B2     2.091218  
      41A1     2.097796    24B1     2.112000    16A2     2.123402  
      42A1     2.127843    32B2     2.129090    33B2     2.194906  
      17A2     2.212651    43A1     2.413735    34B2     2.584178  
      44A1     2.609687    25B1     2.707140    18A2     2.726342  
      45A1     2.809353    35B2     3.011546    46A1     3.033388  
      36B2     3.171760    19A2     3.195819    26B1     3.200490  
      47A1     3.207865    27B1     3.219551    48A1     3.273219  
      28B1     3.279184    20A2     3.280392    49A1     3.331112  
      37B2     3.336580    38B2     3.364663    29B1     3.416769  
      21A2     3.427349    50A1     3.430679    51A1     3.496043  
      39B2     3.519949    30B1     3.530045    22A2     3.550664  
      52A1     3.616524    40B2     3.617604    23A2     3.653751  
      41B2     3.714442    31B1     3.747828    53A1     3.820496  
      42B2     3.847758    24A2     3.862326    43B2     3.872823  
      54A1     3.894701    32B1     3.918402    25A2     3.932534  
      55A1     3.970711    44B2     3.972417    33B1     3.985212  
      56A1     4.008571    57A1     4.069758    45B2     4.081942  
      34B1     4.091427    26A2     4.117155    35B1     4.240715  
      58A1     4.280668    36B1     4.306052    46B2     4.321198  
      27A2     4.342341    47B2     4.347462    59A1     4.390184  
      48B2     4.507085    60A1     4.521711    61A1     4.564342  
      28A2     4.599266    49B2     4.622207    50B2     4.747326  
      37B1     4.747740    62A1     4.868409    29A2     4.891562  
      38B1     4.923097    39B1     5.040637    63A1     5.077927  
      30A2     5.166824    51B2     5.200979    52B2     5.317598  
      64A1     5.376765    31A2     5.528415    65A1     5.667268  
      53B2     5.684802    54B2     6.053053    66A1     6.123470  
      40B1     6.468931    67A1     7.335957    55B2     8.172105  
      41B1     8.819669    68A1     8.836515    32A2     9.011480  
      69A1     9.185512    56B2     9.895861    42B1    10.219647  
      70A1    10.230361    33A2    10.236980    57B2    10.249847  
      58B2    10.320995    43B1    10.385010    34A2    10.389330  
      71A1    10.398731    35A2    10.495280    44B1    10.503109  
      72A1    10.519610    36A2    10.534771    59B2    10.541833  
      45B1    10.551206    60B2    10.551612    37A2    10.569708  
      73A1    10.640743    46B1    10.651545    74A1    10.656042  
      61B2    10.701242    75A1    10.718489    62B2    11.059882  
      76A1    11.305118    63B2    11.346128    47B1    11.444583  
      77A1    11.449410    64B2    11.449809    38A2    11.457361  
      48B1    11.607806    65B2    11.633444    39A2    11.681666  
      78A1    11.730559    49B1    12.095914    79A1    12.132207  
      40A2    12.145555    66B2    12.232060    80A1    12.366786  
      67B2    12.433317    50B1    12.454623    41A2    12.536652  
      81A1    12.630566    51B1    12.788966    42A2    12.791348  
      68B2    12.862908    69B2    12.885151    82A1    12.929849  
      83A1    13.489107    70B2    13.770627    84A1    23.749762  
      71B2    42.143490    85A1    42.444783  

    Final Occupation by Irrep:
             A1    A2    B1    B2 
    DOCC [     8,    1,    2,    5 ]

  @DF-RKS Final Energy:  -548.67425737310032

   => Energetics <=

    Nuclear Repulsion Energy =            108.0339909494544202
    One-Electron Energy =                -970.1198106552176341
    Two-Electron Energy =                 345.6571391539556544
    DFT Exchange-Correlation Energy =     -32.3781343754620110
    Empirical Dispersion Energy =           0.0000000000000000
    VV10 Nonlocal Energy =                  0.1325575541692816
    Total Energy =                       -548.6742573731003176

Computation Completed


Properties will be evaluated at   0.000000,   0.000000,   0.000000 [a0]

Properties computed using the SCF density matrix

  Nuclear Dipole Moment: [e a0]
     X:     0.0000      Y:     0.0000      Z:    -0.0061

  Electronic Dipole Moment: [e a0]
     X:     0.0000      Y:     0.0000      Z:    -0.6782

  Dipole Moment: [e a0]
     X:     0.0000      Y:     0.0000      Z:    -0.6842     Total:     0.6842

  Dipole Moment: [D]
     X:     0.0000      Y:     0.0000      Z:    -1.7392     Total:     1.7392


*** tstop() called on bp1-compute00046.data.bp.acrc.priv at Tue Apr 27 16:54:01 2021
Module time:
	user time   =     148.00 seconds =       2.47 minutes
	system time =       8.79 seconds =       0.15 minutes
	total time  =          7 seconds =       0.12 minutes
Total time:
	user time   =     148.00 seconds =       2.47 minutes
	system time =       8.79 seconds =       0.15 minutes
	total time  =          7 seconds =       0.12 minutes

  //>>>>>>>>>>>>>>>>>>>>>>>>>>>>>>>>>>>//
  //    Loading displacement 2 of 5    //
  //<<<<<<<<<<<<<<<<<<<<<<<<<<<<<<<<<<<//

*** tstart() called on bp1-compute00046.data.bp.acrc.priv
*** at Tue Apr 27 16:54:01 2021

   => Loading Basis Set <=

    Name: AUG-CC-PV(Q+D)Z
    Role: ORBITAL
    Keyword: BASIS
    atoms 1   entry S          line  1148 file /work/zw18965/.conda/envs/p4env/share/psi4/basis/aug-cc-pv_qpd_z.gbs 
    atoms 2-3 entry O          line   439 file /work/zw18965/.conda/envs/p4env/share/psi4/basis/aug-cc-pv_qpd_z.gbs 


         ---------------------------------------------------------
                                   SCF
               by Justin Turney, Rob Parrish, Andy Simmonett
                          and Daniel G. A. Smith
                              RKS Reference
                       24 Threads, 137329 MiB Core
         ---------------------------------------------------------

  ==> Geometry <==

    Molecular point group: c2v
    Full point group: C2v

    Geometry (in Angstrom), charge = 0, multiplicity = 1:

       Center              X                  Y                   Z               Mass       
    ------------   -----------------  -----------------  -----------------  -----------------
         S           -0.000000000000     0.000000000000    -0.362638314850    31.972071174400
         O           -0.000000000000     1.239318267683     0.362437008534    15.994914619570
         O            0.000000000000    -1.239318267683     0.362437008534    15.994914619570

  Running in c2v symmetry.

  Rotational constants: A =      2.00525  B =      0.34310  C =      0.29297 [cm^-1]
  Rotational constants: A =  60115.93627  B =  10285.83551  C =   8783.05498 [MHz]
  Nuclear repulsion =  108.012037764378604

  Charge       = 0
  Multiplicity = 1
  Electrons    = 32
  Nalpha       = 16
  Nbeta        = 16

  ==> Algorithm <==

  SCF Algorithm Type is DF.
  DIIS enabled.
  MOM disabled.
  Fractional occupation disabled.
  Guess Type is SAD.
  Energy threshold   = 1.00e-08
  Density threshold  = 1.00e-08
  Integral threshold = 0.00e+00

  ==> Primary Basis <==

  Basis Set: AUG-CC-PV(Q+D)Z
    Blend: AUG-CC-PV(Q+D)Z
    Number of shells: 63
    Number of basis function: 249
    Number of Cartesian functions: 325
    Spherical Harmonics?: true
    Max angular momentum: 4

  ==> DFT Potential <==

   => Composite Functional: WB97M-V <= 

    wB97M-V Hyb-GGA Exchange-Correlation Functional

    N. Mardirossian and M. Head-Gordon, J. Chem. Phys. 144, 214110 (2016)

    Deriv               =              1
    GGA                 =           TRUE
    Meta                =           TRUE

    Exchange Hybrid     =           TRUE
    MP2 Hybrid          =          FALSE

   => Exchange-Correlation Functionals <=

    1.0000   wB97M-V exchange-correlation functional

   => Exact (HF) Exchange <=

    0.8500            HF,LR [omega = 0.3000]
    0.1500               HF 

   => VV10 Non-Local Parameters <=

    VV10 B              =     6.0000E+00
    VV10 C              =     1.0000E-02

   => Molecular Quadrature <=

    Radial Scheme          =       TREUTLER
    Pruning Scheme         =           FLAT
    Nuclear Scheme         =       TREUTLER

    BS radius alpha        =              1
    Pruning alpha          =              1
    Radial Points          =             75
    Spherical Points       =            302
    Total Points           =          67950
    Total Blocks           =            600
    Max Points             =            256
    Max Functions          =            249

   => Loading Basis Set <=

    Name: (AUG-CC-PV(Q+D)Z AUX)
    Role: JKFIT
    Keyword: DF_BASIS_SCF
    atoms 1   entry S          line   810 file /work/zw18965/.conda/envs/p4env/share/psi4/basis/aug-cc-pvqz-jkfit.gbs 
    atoms 2-3 entry O          line   318 file /work/zw18965/.conda/envs/p4env/share/psi4/basis/aug-cc-pvqz-jkfit.gbs 

  ==> Pre-Iterations <==

   -------------------------------------------------------
    Irrep   Nso     Nmo     Nalpha   Nbeta   Ndocc  Nsocc
   -------------------------------------------------------
     A1        85      85       0       0       0       0
     A2        42      42       0       0       0       0
     B1        51      51       0       0       0       0
     B2        71      71       0       0       0       0
   -------------------------------------------------------
    Total     249     249      16      16      16       0
   -------------------------------------------------------

  ==> Integral Setup <==

  ==> DiskDFJK: Density-Fitted J/K Matrices <==

    J tasked:                  Yes
    K tasked:                  Yes
    wK tasked:                 Yes
    Omega:               3.000E-01
    OpenMP threads:             24
    Integrals threads:          24
    Memory [MiB]:           101950
    Algorithm:                Core
    Integral Cache:           NONE
    Schwarz Cutoff:          1E-12
    Fitting Condition:       1E-10

   => Auxiliary Basis Set <=

  Basis Set: (AUG-CC-PV(Q+D)Z AUX)
    Blend: AUG-CC-PVQZ-JKFIT
    Number of shells: 114
    Number of basis function: 468
    Number of Cartesian functions: 643
    Spherical Harmonics?: true
    Max angular momentum: 5

  Cached 100.0% of DFT collocation blocks in 1.022 [GiB].

  Minimum eigenvalue in the overlap matrix is 8.8704761676E-05.
  Using Symmetric Orthogonalization.

  SCF Guess: Superposition of Atomic Densities via on-the-fly atomic UHF.

  ==> Iterations <==

                           Total Energy        Delta E     RMS |[F,P]|

   @DF-RKS iter SAD:  -548.44855149422517   -5.48449e+02   0.00000e+00 
   @DF-RKS iter   1:  -548.48107717534310   -3.25257e-02   5.68443e-03 DIIS
   @DF-RKS iter   2:  -548.35541830762281    1.25659e-01   7.56201e-03 DIIS
   @DF-RKS iter   3:  -548.67357896308420   -3.18161e-01   3.54163e-04 DIIS
   @DF-RKS iter   4:  -548.67417101521698   -5.92052e-04   7.13962e-05 DIIS
   @DF-RKS iter   5:  -548.67423815086477   -6.71356e-05   1.33939e-05 DIIS
   @DF-RKS iter   6:  -548.67424195415902   -3.80329e-06   3.93856e-06 DIIS
   @DF-RKS iter   7:  -548.67424232227495   -3.68116e-07   9.54502e-07 DIIS
   @DF-RKS iter   8:  -548.67424235096962   -2.86947e-08   3.66711e-07 DIIS
   @DF-RKS iter   9:  -548.67424235260603   -1.63641e-09   8.11798e-08 DIIS
   @DF-RKS iter  10:  -548.67424235271073   -1.04706e-10   1.50974e-08 DIIS
   @DF-RKS iter  11:  -548.67424235271608   -5.34328e-12   2.71590e-09 DIIS
  Energy and wave function converged.


  ==> Post-Iterations <==

    Orbital Energies [Eh]
    ---------------------

    Doubly Occupied:                                                      

       1A1   -89.393022     1B2   -19.393728     2A1   -19.393712  
       3A1    -8.286587     1B1    -6.197926     2B2    -6.194597  
       4A1    -6.191577     5A1    -1.280398     3B2    -1.187022  
       6A1    -0.760225     7A1    -0.611057     2B1    -0.610401  
       4B2    -0.609043     1A2    -0.482497     5B2    -0.473221  
       8A1    -0.442203  

    Virtual:                                                              

       3B1    -0.043949     9A1     0.030649    10A1     0.041478  
       6B2     0.043968     4B1     0.047203    11A1     0.109066  
       7B2     0.110801    12A1     0.118229     2A2     0.125039  
       5B1     0.145021     8B2     0.146274    13A1     0.152813  
       9B2     0.178421     6B1     0.195189    14A1     0.214707  
      15A1     0.244769     3A2     0.248270    10B2     0.267881  
      11B2     0.276932    16A1     0.287882     7B1     0.307111  
      17A1     0.344047     8B1     0.413300    12B2     0.424908  
      18A1     0.427454     4A2     0.436251    19A1     0.443083  
       9B1     0.462957    20A1     0.472246    13B2     0.523205  
      14B2     0.541900    21A1     0.549492     5A2     0.558284  
      10B1     0.566180     6A2     0.578262    11B1     0.594453  
      15B2     0.600539    22A1     0.610441    16B2     0.619152  
       7A2     0.624935    23A1     0.655045    24A1     0.682018  
      12B1     0.706153    17B2     0.736366    25A1     0.743626  
      18B2     0.753147    13B1     0.830079     8A2     0.836499  
      26A1     0.854813    27A1     0.950956    19B2     0.983051  
      20B2     1.027276    21B2     1.079813    28A1     1.096659  
      14B1     1.110870    29A1     1.111450    15B1     1.194353  
      30A1     1.204908     9A2     1.230951    31A1     1.253203  
      16B1     1.261467    10A2     1.284792    22B2     1.298578  
      23B2     1.315330    17B1     1.316984    24B2     1.363385  
      32A1     1.363393    11A2     1.370728    12A2     1.392721  
      25B2     1.404293    33A1     1.410987    18B1     1.446471  
      19B1     1.485440    34A1     1.489031    26B2     1.506492  
      35A1     1.519194    13A2     1.543396    20B1     1.567970  
      27B2     1.574809    36A1     1.591449    14A2     1.647530  
      28B2     1.658679    37A1     1.662410    21B1     1.667491  
      38A1     1.682191    29B2     1.803792    15A2     1.890261  
      30B2     1.896426    39A1     1.939195    22B1     1.945258  
      40A1     2.024468    23B1     2.086391    31B2     2.090827  
      41A1     2.097930    24B1     2.111955    16A2     2.123541  
      42A1     2.128040    32B2     2.128513    33B2     2.195055  
      17A2     2.212097    43A1     2.413663    34B2     2.584010  
      44A1     2.609446    25B1     2.706982    18A2     2.726223  
      45A1     2.809059    35B2     3.011399    46A1     3.032724  
      36B2     3.171584    19A2     3.195736    26B1     3.200352  
      47A1     3.207830    27B1     3.219360    48A1     3.273018  
      28B1     3.278953    20A2     3.280233    49A1     3.330964  
      37B2     3.336393    38B2     3.364339    29B1     3.416724  
      21A2     3.426933    50A1     3.430661    51A1     3.495942  
      39B2     3.519922    30B1     3.529929    22A2     3.550631  
      52A1     3.616187    40B2     3.617631    23A2     3.653871  
      41B2     3.714133    31B1     3.747756    53A1     3.820353  
      42B2     3.848197    24A2     3.862044    43B2     3.872738  
      54A1     3.894691    32B1     3.918054    25A2     3.932574  
      55A1     3.970628    44B2     3.972471    33B1     3.984841  
      56A1     4.008269    57A1     4.069628    45B2     4.081860  
      34B1     4.091385    26A2     4.117273    35B1     4.240519  
      58A1     4.280628    36B1     4.305708    46B2     4.321023  
      27A2     4.342174    47B2     4.346672    59A1     4.389959  
      48B2     4.506298    60A1     4.521378    61A1     4.563638  
      28A2     4.598653    49B2     4.621693    37B1     4.747253  
      50B2     4.747302    62A1     4.868291    29A2     4.891299  
      38B1     4.922577    39B1     5.040556    63A1     5.077744  
      30A2     5.165192    51B2     5.200464    52B2     5.315854  
      64A1     5.376557    31A2     5.528036    65A1     5.665570  
      53B2     5.684646    54B2     6.052409    66A1     6.122149  
      40B1     6.467940    67A1     7.335702    55B2     8.170485  
      41B1     8.819549    68A1     8.836484    32A2     9.010975  
      69A1     9.184928    56B2     9.894926    42B1    10.219602  
      70A1    10.230347    33A2    10.237012    57B2    10.249915  
      58B2    10.320929    43B1    10.384809    34A2    10.389453  
      71A1    10.398349    35A2    10.495182    44B1    10.503120  
      72A1    10.519693    36A2    10.534766    59B2    10.541811  
      45B1    10.551009    60B2    10.551631    37A2    10.569321  
      73A1    10.640357    46B1    10.650844    74A1    10.655491  
      61B2    10.701097    75A1    10.718008    62B2    11.059822  
      76A1    11.305130    63B2    11.346050    47B1    11.444559  
      77A1    11.449409    64B2    11.449855    38A2    11.457411  
      48B1    11.607727    65B2    11.633097    39A2    11.681247  
      78A1    11.730470    49B1    12.095388    79A1    12.132129  
      40A2    12.144728    66B2    12.231355    80A1    12.365546  
      67B2    12.433101    50B1    12.454496    41A2    12.536051  
      81A1    12.630272    51B1    12.788925    42A2    12.791420  
      68B2    12.863100    69B2    12.885056    82A1    12.929544  
      83A1    13.488130    70B2    13.768304    84A1    23.743524  
      71B2    42.141311    85A1    42.442867  

    Final Occupation by Irrep:
             A1    A2    B1    B2 
    DOCC [     8,    1,    2,    5 ]

  @DF-RKS Final Energy:  -548.67424235271608

   => Energetics <=

    Nuclear Repulsion Energy =            108.0120377643786043
    One-Electron Energy =                -970.0765150106351484
    Two-Electron Energy =                 345.6353883578464092
    DFT Exchange-Correlation Energy =     -32.3777115248271343
    Empirical Dispersion Energy =           0.0000000000000000
    VV10 Nonlocal Energy =                  0.1325580605211099
    Total Energy =                       -548.6742423527160781

Computation Completed


Properties will be evaluated at   0.000000,   0.000000,   0.000000 [a0]

Properties computed using the SCF density matrix

  Nuclear Dipole Moment: [e a0]
     X:     0.0000      Y:     0.0000      Z:    -0.0061

  Electronic Dipole Moment: [e a0]
     X:     0.0000      Y:     0.0000      Z:    -0.6795

  Dipole Moment: [e a0]
     X:     0.0000      Y:     0.0000      Z:    -0.6855     Total:     0.6855

  Dipole Moment: [D]
     X:     0.0000      Y:     0.0000      Z:    -1.7425     Total:     1.7425


*** tstop() called on bp1-compute00046.data.bp.acrc.priv at Tue Apr 27 16:54:08 2021
Module time:
	user time   =     145.87 seconds =       2.43 minutes
	system time =       4.88 seconds =       0.08 minutes
	total time  =          7 seconds =       0.12 minutes
Total time:
	user time   =     294.02 seconds =       4.90 minutes
	system time =      13.68 seconds =       0.23 minutes
	total time  =         14 seconds =       0.23 minutes

  //>>>>>>>>>>>>>>>>>>>>>>>>>>>>>>>>>>>//
  //    Loading displacement 3 of 5    //
  //<<<<<<<<<<<<<<<<<<<<<<<<<<<<<<<<<<<//

*** tstart() called on bp1-compute00046.data.bp.acrc.priv
*** at Tue Apr 27 16:54:08 2021

   => Loading Basis Set <=

    Name: AUG-CC-PV(Q+D)Z
    Role: ORBITAL
    Keyword: BASIS
    atoms 1   entry S          line  1148 file /work/zw18965/.conda/envs/p4env/share/psi4/basis/aug-cc-pv_qpd_z.gbs 
    atoms 2-3 entry O          line   439 file /work/zw18965/.conda/envs/p4env/share/psi4/basis/aug-cc-pv_qpd_z.gbs 


         ---------------------------------------------------------
                                   SCF
               by Justin Turney, Rob Parrish, Andy Simmonett
                          and Daniel G. A. Smith
                              RKS Reference
                       24 Threads, 137329 MiB Core
         ---------------------------------------------------------

  ==> Geometry <==

    Molecular point group: c2v
    Full point group: C2v

    Geometry (in Angstrom), charge = 0, multiplicity = 1:

       Center              X                  Y                   Z               Mass       
    ------------   -----------------  -----------------  -----------------  -----------------
         S           -0.000000000000     0.000000000000    -0.361976462632    31.972071174400
         O           -0.000000000000     1.239318267683     0.361775523720    15.994914619570
         O            0.000000000000    -1.239318267683     0.361775523720    15.994914619570

  Running in c2v symmetry.

  Rotational constants: A =      2.01259  B =      0.34310  C =      0.29313 [cm^-1]
  Rotational constants: A =  60335.97400  B =  10285.83551  C =   8787.73722 [MHz]
  Nuclear repulsion =  108.055939402465469

  Charge       = 0
  Multiplicity = 1
  Electrons    = 32
  Nalpha       = 16
  Nbeta        = 16

  ==> Algorithm <==

  SCF Algorithm Type is DF.
  DIIS enabled.
  MOM disabled.
  Fractional occupation disabled.
  Guess Type is SAD.
  Energy threshold   = 1.00e-08
  Density threshold  = 1.00e-08
  Integral threshold = 0.00e+00

  ==> Primary Basis <==

  Basis Set: AUG-CC-PV(Q+D)Z
    Blend: AUG-CC-PV(Q+D)Z
    Number of shells: 63
    Number of basis function: 249
    Number of Cartesian functions: 325
    Spherical Harmonics?: true
    Max angular momentum: 4

  ==> DFT Potential <==

   => Composite Functional: WB97M-V <= 

    wB97M-V Hyb-GGA Exchange-Correlation Functional

    N. Mardirossian and M. Head-Gordon, J. Chem. Phys. 144, 214110 (2016)

    Deriv               =              1
    GGA                 =           TRUE
    Meta                =           TRUE

    Exchange Hybrid     =           TRUE
    MP2 Hybrid          =          FALSE

   => Exchange-Correlation Functionals <=

    1.0000   wB97M-V exchange-correlation functional

   => Exact (HF) Exchange <=

    0.8500            HF,LR [omega = 0.3000]
    0.1500               HF 

   => VV10 Non-Local Parameters <=

    VV10 B              =     6.0000E+00
    VV10 C              =     1.0000E-02

   => Molecular Quadrature <=

    Radial Scheme          =       TREUTLER
    Pruning Scheme         =           FLAT
    Nuclear Scheme         =       TREUTLER

    BS radius alpha        =              1
    Pruning alpha          =              1
    Radial Points          =             75
    Spherical Points       =            302
    Total Points           =          67950
    Total Blocks           =            599
    Max Points             =            256
    Max Functions          =            249

   => Loading Basis Set <=

    Name: (AUG-CC-PV(Q+D)Z AUX)
    Role: JKFIT
    Keyword: DF_BASIS_SCF
    atoms 1   entry S          line   810 file /work/zw18965/.conda/envs/p4env/share/psi4/basis/aug-cc-pvqz-jkfit.gbs 
    atoms 2-3 entry O          line   318 file /work/zw18965/.conda/envs/p4env/share/psi4/basis/aug-cc-pvqz-jkfit.gbs 

  ==> Pre-Iterations <==

   -------------------------------------------------------
    Irrep   Nso     Nmo     Nalpha   Nbeta   Ndocc  Nsocc
   -------------------------------------------------------
     A1        85      85       0       0       0       0
     A2        42      42       0       0       0       0
     B1        51      51       0       0       0       0
     B2        71      71       0       0       0       0
   -------------------------------------------------------
    Total     249     249      16      16      16       0
   -------------------------------------------------------

  ==> Integral Setup <==

  ==> DiskDFJK: Density-Fitted J/K Matrices <==

    J tasked:                  Yes
    K tasked:                  Yes
    wK tasked:                 Yes
    Omega:               3.000E-01
    OpenMP threads:             24
    Integrals threads:          24
    Memory [MiB]:           101950
    Algorithm:                Core
    Integral Cache:           NONE
    Schwarz Cutoff:          1E-12
    Fitting Condition:       1E-10

   => Auxiliary Basis Set <=

  Basis Set: (AUG-CC-PV(Q+D)Z AUX)
    Blend: AUG-CC-PVQZ-JKFIT
    Number of shells: 114
    Number of basis function: 468
    Number of Cartesian functions: 643
    Spherical Harmonics?: true
    Max angular momentum: 5

  Cached 100.0% of DFT collocation blocks in 1.022 [GiB].

  Minimum eigenvalue in the overlap matrix is 8.8540056624E-05.
  Using Symmetric Orthogonalization.

  SCF Guess: Superposition of Atomic Densities via on-the-fly atomic UHF.

  ==> Iterations <==

                           Total Energy        Delta E     RMS |[F,P]|

   @DF-RKS iter SAD:  -548.45133779729406   -5.48451e+02   0.00000e+00 
   @DF-RKS iter   1:  -548.48136659483134   -3.00288e-02   5.68208e-03 DIIS
   @DF-RKS iter   2:  -548.35658689262505    1.24780e-01   7.55039e-03 DIIS
   @DF-RKS iter   3:  -548.67360782760466   -3.17021e-01   3.54152e-04 DIIS
   @DF-RKS iter   4:  -548.67420026933974   -5.92442e-04   7.13194e-05 DIIS
   @DF-RKS iter   5:  -548.67426743831038   -6.71690e-05   1.33986e-05 DIIS
   @DF-RKS iter   6:  -548.67427124607980   -3.80777e-06   3.95452e-06 DIIS
   @DF-RKS iter   7:  -548.67427161647458   -3.70395e-07   9.58647e-07 DIIS
   @DF-RKS iter   8:  -548.67427164536798   -2.88934e-08   3.68494e-07 DIIS
   @DF-RKS iter   9:  -548.67427164702815   -1.66017e-09   8.14277e-08 DIIS
   @DF-RKS iter  10:  -548.67427164713388   -1.05729e-10   1.51429e-08 DIIS
   @DF-RKS iter  11:  -548.67427164713843   -4.54747e-12   2.71867e-09 DIIS
  Energy and wave function converged.


  ==> Post-Iterations <==

    Orbital Energies [Eh]
    ---------------------

    Doubly Occupied:                                                      

       1A1   -89.392825     1B2   -19.393713     2A1   -19.393697  
       3A1    -8.286418     1B1    -6.197755     2B2    -6.194427  
       4A1    -6.191407     5A1    -1.280738     3B2    -1.187372  
       6A1    -0.760036     7A1    -0.611215     2B1    -0.610604  
       4B2    -0.609151     1A2    -0.482715     5B2    -0.473444  
       8A1    -0.442096  

    Virtual:                                                              

       3B1    -0.043682     9A1     0.030671    10A1     0.041491  
       6B2     0.044004     4B1     0.047212    11A1     0.109079  
       7B2     0.110835    12A1     0.118185     2A2     0.124991  
       5B1     0.145042     8B2     0.146551    13A1     0.152899  
       9B2     0.178431     6B1     0.195143    14A1     0.214629  
      15A1     0.244801     3A2     0.248434    10B2     0.268116  
      11B2     0.277042    16A1     0.287949     7B1     0.307069  
      17A1     0.344035     8B1     0.413293    12B2     0.424950  
      18A1     0.427524     4A2     0.436325    19A1     0.442976  
       9B1     0.463037    20A1     0.472279    13B2     0.523149  
      14B2     0.541945    21A1     0.549654     5A2     0.558162  
      10B1     0.566251     6A2     0.578436    11B1     0.594468  
      15B2     0.600692    22A1     0.610404    16B2     0.619236  
       7A2     0.625058    23A1     0.655287    24A1     0.681981  
      12B1     0.706423    17B2     0.736509    25A1     0.743936  
      18B2     0.753241    13B1     0.829937     8A2     0.836388  
      26A1     0.854729    27A1     0.951396    19B2     0.982965  
      20B2     1.027772    21B2     1.079726    28A1     1.096905  
      14B1     1.110887    29A1     1.111583    15B1     1.194494  
      30A1     1.205056     9A2     1.230733    31A1     1.253262  
      16B1     1.261495    10A2     1.284769    22B2     1.298717  
      23B2     1.315724    17B1     1.317076    24B2     1.363203  
      32A1     1.363469    11A2     1.370969    12A2     1.392805  
      25B2     1.404145    33A1     1.410913    18B1     1.446745  
      19B1     1.485506    34A1     1.489230    26B2     1.506888  
      35A1     1.519196    13A2     1.543773    20B1     1.568343  
      27B2     1.575114    36A1     1.591575    14A2     1.647277  
      28B2     1.658813    37A1     1.662479    21B1     1.667800  
      38A1     1.682454    29B2     1.803480    15A2     1.890641  
      30B2     1.896416    39A1     1.939558    22B1     1.945802  
      40A1     2.025048    23B1     2.085821    31B2     2.091608  
      41A1     2.097662    24B1     2.112044    16A2     2.123262  
      42A1     2.127649    32B2     2.129670    33B2     2.194758  
      17A2     2.213206    43A1     2.413804    34B2     2.584345  
      44A1     2.609927    25B1     2.707299    18A2     2.726461  
      45A1     2.809647    35B2     3.011693    46A1     3.034052  
      36B2     3.171936    19A2     3.195901    26B1     3.200623  
      47A1     3.207899    27B1     3.219746    48A1     3.273421  
      28B1     3.279416    20A2     3.280552    49A1     3.331262  
      37B2     3.336757    38B2     3.364992    29B1     3.416815  
      21A2     3.427763    50A1     3.430697    51A1     3.496144  
      39B2     3.519976    30B1     3.530161    22A2     3.550697  
      52A1     3.616862    40B2     3.617578    23A2     3.653632  
      41B2     3.714751    31B1     3.747901    53A1     3.820638  
      42B2     3.847318    24A2     3.862609    43B2     3.872909  
      54A1     3.894710    32B1     3.918750    25A2     3.932494  
      55A1     3.970794    44B2     3.972364    33B1     3.985583  
      56A1     4.008872    57A1     4.069888    45B2     4.082024  
      34B1     4.091468    26A2     4.117037    35B1     4.240910  
      58A1     4.280708    36B1     4.306397    46B2     4.321373  
      27A2     4.342508    47B2     4.348252    59A1     4.390409  
      48B2     4.507875    60A1     4.522041    61A1     4.565049  
      28A2     4.599879    49B2     4.622721    50B2     4.747351  
      37B1     4.748226    62A1     4.868523    29A2     4.891823  
      38B1     4.923616    39B1     5.040719    63A1     5.078108  
      30A2     5.168455    51B2     5.201494    52B2     5.319343  
      64A1     5.376977    31A2     5.528796    65A1     5.668961  
      53B2     5.684957    54B2     6.053699    66A1     6.124797  
      40B1     6.469922    67A1     7.336209    55B2     8.173724  
      41B1     8.819790    68A1     8.836546    32A2     9.011986  
      69A1     9.186098    56B2     9.896800    42B1    10.219692  
      70A1    10.230376    33A2    10.236947    57B2    10.249779  
      58B2    10.321061    43B1    10.385211    34A2    10.389207  
      71A1    10.399112    35A2    10.495374    44B1    10.503098  
      72A1    10.519527    36A2    10.534779    59B2    10.541855  
      45B1    10.551401    60B2    10.551595    37A2    10.570097  
      73A1    10.641118    46B1    10.652248    74A1    10.656600  
      61B2    10.701385    75A1    10.718976    62B2    11.059940  
      76A1    11.305105    63B2    11.346206    47B1    11.444606  
      77A1    11.449412    64B2    11.449763    38A2    11.457310  
      48B1    11.607886    65B2    11.633792    39A2    11.682087  
      78A1    11.730647    49B1    12.096439    79A1    12.132287  
      40A2    12.146383    66B2    12.232765    80A1    12.368021  
      67B2    12.433535    50B1    12.454750    41A2    12.537253  
      81A1    12.630861    51B1    12.789008    42A2    12.791276  
      68B2    12.862714    69B2    12.885247    82A1    12.930159  
      83A1    13.490084    70B2    13.772950    84A1    23.756000  
      71B2    42.145671    85A1    42.446697  

    Final Occupation by Irrep:
             A1    A2    B1    B2 
    DOCC [     8,    1,    2,    5 ]

  @DF-RKS Final Energy:  -548.67427164713843

   => Energetics <=

    Nuclear Repulsion Energy =            108.0559394024654694
    One-Electron Energy =                -970.1630958626249139
    Two-Electron Energy =                 345.6788849903872460
    DFT Exchange-Correlation Energy =     -32.3785572251362268
    Empirical Dispersion Energy =           0.0000000000000000
    VV10 Nonlocal Energy =                  0.1325570477699797
    Total Energy =                       -548.6742716471384256

Computation Completed


Properties will be evaluated at   0.000000,   0.000000,   0.000000 [a0]

Properties computed using the SCF density matrix

  Nuclear Dipole Moment: [e a0]
     X:     0.0000      Y:     0.0000      Z:    -0.0061

  Electronic Dipole Moment: [e a0]
     X:     0.0000      Y:     0.0000      Z:    -0.6769

  Dipole Moment: [e a0]
     X:     0.0000      Y:     0.0000      Z:    -0.6829     Total:     0.6829

  Dipole Moment: [D]
     X:     0.0000      Y:     0.0000      Z:    -1.7359     Total:     1.7359


*** tstop() called on bp1-compute00046.data.bp.acrc.priv at Tue Apr 27 16:54:14 2021
Module time:
	user time   =     141.72 seconds =       2.36 minutes
	system time =       4.19 seconds =       0.07 minutes
	total time  =          6 seconds =       0.10 minutes
Total time:
	user time   =     435.96 seconds =       7.27 minutes
	system time =      17.89 seconds =       0.30 minutes
	total time  =         20 seconds =       0.33 minutes

  //>>>>>>>>>>>>>>>>>>>>>>>>>>>>>>>>>>>//
  //    Loading displacement 4 of 5    //
  //<<<<<<<<<<<<<<<<<<<<<<<<<<<<<<<<<<<//

*** tstart() called on bp1-compute00046.data.bp.acrc.priv
*** at Tue Apr 27 16:54:14 2021

   => Loading Basis Set <=

    Name: AUG-CC-PV(Q+D)Z
    Role: ORBITAL
    Keyword: BASIS
    atoms 1   entry S          line  1148 file /work/zw18965/.conda/envs/p4env/share/psi4/basis/aug-cc-pv_qpd_z.gbs 
    atoms 2-3 entry O          line   439 file /work/zw18965/.conda/envs/p4env/share/psi4/basis/aug-cc-pv_qpd_z.gbs 


         ---------------------------------------------------------
                                   SCF
               by Justin Turney, Rob Parrish, Andy Simmonett
                          and Daniel G. A. Smith
                              RKS Reference
                       24 Threads, 137329 MiB Core
         ---------------------------------------------------------

  ==> Geometry <==

    Molecular point group: c2v
    Full point group: C2v

    Geometry (in Angstrom), charge = 0, multiplicity = 1:

       Center              X                  Y                   Z               Mass       
    ------------   -----------------  -----------------  -----------------  -----------------
         S            0.000000000000     0.000000000000    -0.362307388741    31.972071174400
         O           -0.000000000000     1.238850462342     0.362106266127    15.994914619570
         O            0.000000000000    -1.238850462342     0.362106266127    15.994914619570

  Running in c2v symmetry.

  Rotational constants: A =      2.00892  B =      0.34336  C =      0.29324 [cm^-1]
  Rotational constants: A =  60225.80440  B =  10293.60510  C =   8791.06407 [MHz]
  Nuclear repulsion =  108.065707167490743

  Charge       = 0
  Multiplicity = 1
  Electrons    = 32
  Nalpha       = 16
  Nbeta        = 16

  ==> Algorithm <==

  SCF Algorithm Type is DF.
  DIIS enabled.
  MOM disabled.
  Fractional occupation disabled.
  Guess Type is SAD.
  Energy threshold   = 1.00e-08
  Density threshold  = 1.00e-08
  Integral threshold = 0.00e+00

  ==> Primary Basis <==

  Basis Set: AUG-CC-PV(Q+D)Z
    Blend: AUG-CC-PV(Q+D)Z
    Number of shells: 63
    Number of basis function: 249
    Number of Cartesian functions: 325
    Spherical Harmonics?: true
    Max angular momentum: 4

  ==> DFT Potential <==

   => Composite Functional: WB97M-V <= 

    wB97M-V Hyb-GGA Exchange-Correlation Functional

    N. Mardirossian and M. Head-Gordon, J. Chem. Phys. 144, 214110 (2016)

    Deriv               =              1
    GGA                 =           TRUE
    Meta                =           TRUE

    Exchange Hybrid     =           TRUE
    MP2 Hybrid          =          FALSE

   => Exchange-Correlation Functionals <=

    1.0000   wB97M-V exchange-correlation functional

   => Exact (HF) Exchange <=

    0.8500            HF,LR [omega = 0.3000]
    0.1500               HF 

   => VV10 Non-Local Parameters <=

    VV10 B              =     6.0000E+00
    VV10 C              =     1.0000E-02

   => Molecular Quadrature <=

    Radial Scheme          =       TREUTLER
    Pruning Scheme         =           FLAT
    Nuclear Scheme         =       TREUTLER

    BS radius alpha        =              1
    Pruning alpha          =              1
    Radial Points          =             75
    Spherical Points       =            302
    Total Points           =          67950
    Total Blocks           =            599
    Max Points             =            256
    Max Functions          =            249

   => Loading Basis Set <=

    Name: (AUG-CC-PV(Q+D)Z AUX)
    Role: JKFIT
    Keyword: DF_BASIS_SCF
    atoms 1   entry S          line   810 file /work/zw18965/.conda/envs/p4env/share/psi4/basis/aug-cc-pvqz-jkfit.gbs 
    atoms 2-3 entry O          line   318 file /work/zw18965/.conda/envs/p4env/share/psi4/basis/aug-cc-pvqz-jkfit.gbs 

  ==> Pre-Iterations <==

   -------------------------------------------------------
    Irrep   Nso     Nmo     Nalpha   Nbeta   Ndocc  Nsocc
   -------------------------------------------------------
     A1        85      85       0       0       0       0
     A2        42      42       0       0       0       0
     B1        51      51       0       0       0       0
     B2        71      71       0       0       0       0
   -------------------------------------------------------
    Total     249     249      16      16      16       0
   -------------------------------------------------------

  ==> Integral Setup <==

  ==> DiskDFJK: Density-Fitted J/K Matrices <==

    J tasked:                  Yes
    K tasked:                  Yes
    wK tasked:                 Yes
    Omega:               3.000E-01
    OpenMP threads:             24
    Integrals threads:          24
    Memory [MiB]:           101950
    Algorithm:                Core
    Integral Cache:           NONE
    Schwarz Cutoff:          1E-12
    Fitting Condition:       1E-10

   => Auxiliary Basis Set <=

  Basis Set: (AUG-CC-PV(Q+D)Z AUX)
    Blend: AUG-CC-PVQZ-JKFIT
    Number of shells: 114
    Number of basis function: 468
    Number of Cartesian functions: 643
    Spherical Harmonics?: true
    Max angular momentum: 5

  Cached 100.0% of DFT collocation blocks in 1.022 [GiB].

  Minimum eigenvalue in the overlap matrix is 8.8541038435E-05.
  Using Symmetric Orthogonalization.

  SCF Guess: Superposition of Atomic Densities via on-the-fly atomic UHF.

  ==> Iterations <==

                           Total Energy        Delta E     RMS |[F,P]|

   @DF-RKS iter SAD:  -548.45167692995437   -5.48452e+02   0.00000e+00 
   @DF-RKS iter   1:  -548.48130830956029   -2.96314e-02   5.68299e-03 DIIS
   @DF-RKS iter   2:  -548.35645728799682    1.24851e-01   7.55193e-03 DIIS
   @DF-RKS iter   3:  -548.67361519165593   -3.17158e-01   3.54104e-04 DIIS
   @DF-RKS iter   4:  -548.67420738403052   -5.92192e-04   7.13228e-05 DIIS
   @DF-RKS iter   5:  -548.67427447176806   -6.70877e-05   1.33869e-05 DIIS
   @DF-RKS iter   6:  -548.67427826828555   -3.79652e-06   3.94783e-06 DIIS
   @DF-RKS iter   7:  -548.67427863691205   -3.68627e-07   9.57153e-07 DIIS
   @DF-RKS iter   8:  -548.67427866566243   -2.87504e-08   3.68114e-07 DIIS
   @DF-RKS iter   9:  -548.67427866731634   -1.65392e-09   8.13443e-08 DIIS
   @DF-RKS iter  10:  -548.67427866742185   -1.05501e-10   1.50791e-08 DIIS
   @DF-RKS iter  11:  -548.67427866742696   -5.11591e-12   2.70878e-09 DIIS
  Energy and wave function converged.


  ==> Post-Iterations <==

    Orbital Energies [Eh]
    ---------------------

    Doubly Occupied:                                                      

       1A1   -89.392803     1B2   -19.393653     2A1   -19.393637  
       3A1    -8.286410     1B1    -6.197747     2B2    -6.194419  
       4A1    -6.191396     5A1    -1.280777     3B2    -1.187322  
       6A1    -0.760028     7A1    -0.611231     2B1    -0.610616  
       4B2    -0.609112     1A2    -0.482670     5B2    -0.473354  
       8A1    -0.442159  

    Virtual:                                                              

       3B1    -0.043692     9A1     0.030667    10A1     0.041499  
       6B2     0.043991     4B1     0.047210    11A1     0.109131  
       7B2     0.110818    12A1     0.118215     2A2     0.125016  
       5B1     0.145027     8B2     0.146458    13A1     0.152910  
       9B2     0.178427     6B1     0.195204    14A1     0.214736  
      15A1     0.244834     3A2     0.248359    10B2     0.268034  
      11B2     0.277002    16A1     0.287991     7B1     0.307095  
      17A1     0.344047     8B1     0.413329    12B2     0.424942  
      18A1     0.427591     4A2     0.436314    19A1     0.443094  
       9B1     0.463023    20A1     0.472278    13B2     0.523225  
      14B2     0.541944    21A1     0.549656     5A2     0.558278  
      10B1     0.566250     6A2     0.578412    11B1     0.594486  
      15B2     0.600631    22A1     0.610526    16B2     0.619181  
       7A2     0.625024    23A1     0.655205    24A1     0.681951  
      12B1     0.706230    17B2     0.736442    25A1     0.743874  
      18B2     0.753232    13B1     0.829939     8A2     0.836417  
      26A1     0.854681    27A1     0.951268    19B2     0.983066  
      20B2     1.027865    21B2     1.079885    28A1     1.096787  
      14B1     1.110917    29A1     1.111587    15B1     1.194407  
      30A1     1.204964     9A2     1.230926    31A1     1.253230  
      16B1     1.261506    10A2     1.284854    22B2     1.298633  
      23B2     1.315554    17B1     1.317110    24B2     1.363451  
      32A1     1.363617    11A2     1.370843    12A2     1.392869  
      25B2     1.404477    33A1     1.410981    18B1     1.446792  
      19B1     1.485500    34A1     1.489203    26B2     1.506784  
      35A1     1.519362    13A2     1.543656    20B1     1.568097  
      27B2     1.575064    36A1     1.591541    14A2     1.647739  
      28B2     1.658950    37A1     1.662427    21B1     1.667825  
      38A1     1.682490    29B2     1.803546    15A2     1.890587  
      30B2     1.896837    39A1     1.939269    22B1     1.945777  
      40A1     2.024976    23B1     2.085814    31B2     2.091433  
      41A1     2.097662    24B1     2.112447    16A2     2.123268  
      42A1     2.127973    32B2     2.129209    33B2     2.194688  
      17A2     2.212603    43A1     2.414215    34B2     2.584128  
      44A1     2.610101    25B1     2.707249    18A2     2.726491  
      45A1     2.809506    35B2     3.011845    46A1     3.033599  
      36B2     3.171912    19A2     3.196029    26B1     3.200687  
      47A1     3.207739    27B1     3.219552    48A1     3.273316  
      28B1     3.279323    20A2     3.280644    49A1     3.331471  
      37B2     3.336917    38B2     3.365183    29B1     3.416718  
      21A2     3.427633    50A1     3.430696    51A1     3.496034  
      39B2     3.520018    30B1     3.530134    22A2     3.550848  
      52A1     3.617016    40B2     3.618010    23A2     3.654214  
      41B2     3.714853    31B1     3.748073    53A1     3.820542  
      42B2     3.847332    24A2     3.862583    43B2     3.873075  
      54A1     3.894665    32B1     3.918227    25A2     3.932576  
      55A1     3.970713    44B2     3.972737    33B1     3.985439  
      56A1     4.008741    57A1     4.070040    45B2     4.082020  
      34B1     4.091728    26A2     4.117566    35B1     4.241063  
      58A1     4.281267    36B1     4.306567    46B2     4.321637  
      27A2     4.342622    47B2     4.347813    59A1     4.390834  
      48B2     4.507637    60A1     4.522481    61A1     4.564771  
      28A2     4.599759    49B2     4.621774    37B1     4.748240  
      50B2     4.748505    62A1     4.868947    29A2     4.892005  
      38B1     4.923926    39B1     5.040717    63A1     5.078223  
      30A2     5.167373    51B2     5.202285    52B2     5.319167  
      64A1     5.377245    31A2     5.528724    65A1     5.668232  
      53B2     5.684962    54B2     6.053345    66A1     6.123720  
      40B1     6.470018    67A1     7.337652    55B2     8.173054  
      41B1     8.820039    68A1     8.836901    32A2     9.011919  
      69A1     9.185821    56B2     9.897036    42B1    10.219604  
      70A1    10.230339    33A2    10.237076    57B2    10.249933  
      58B2    10.321256    43B1    10.385024    34A2    10.389782  
      71A1    10.398745    35A2    10.495390    44B1    10.503159  
      72A1    10.519401    36A2    10.534869    59B2    10.542108  
      45B1    10.551381    60B2    10.551761    37A2    10.570259  
      73A1    10.640808    46B1    10.651749    74A1    10.656191  
      61B2    10.701685    75A1    10.718724    62B2    11.061347  
      76A1    11.305301    63B2    11.346117    47B1    11.444643  
      77A1    11.449490    64B2    11.449866    38A2    11.457433  
      48B1    11.608126    65B2    11.633456    39A2    11.681921  
      78A1    11.731251    49B1    12.096641    79A1    12.132301  
      40A2    12.146340    66B2    12.232060    80A1    12.367701  
      67B2    12.433777    50B1    12.455033    41A2    12.536929  
      81A1    12.631048    51B1    12.789074    42A2    12.791287  
      68B2    12.863275    69B2    12.885101    82A1    12.929830  
      83A1    13.490508    70B2    13.773173    84A1    23.757952  
      71B2    42.145378    85A1    42.446976  

    Final Occupation by Irrep:
             A1    A2    B1    B2 
    DOCC [     8,    1,    2,    5 ]

  @DF-RKS Final Energy:  -548.67427866742696

   => Energetics <=

    Nuclear Repulsion Energy =            108.0657071674907428
    One-Electron Energy =                -970.1831275161800932
    Two-Electron Energy =                 345.6892706546840373
    DFT Exchange-Correlation Energy =     -32.3786853171362878
    Empirical Dispersion Energy =           0.0000000000000000
    VV10 Nonlocal Energy =                  0.1325563437146288
    Total Energy =                       -548.6742786674269610

Computation Completed


Properties will be evaluated at   0.000000,   0.000000,   0.000000 [a0]

Properties computed using the SCF density matrix

  Nuclear Dipole Moment: [e a0]
     X:     0.0000      Y:     0.0000      Z:    -0.0061

  Electronic Dipole Moment: [e a0]
     X:     0.0000      Y:     0.0000      Z:    -0.6780

  Dipole Moment: [e a0]
     X:     0.0000      Y:     0.0000      Z:    -0.6841     Total:     0.6841

  Dipole Moment: [D]
     X:     0.0000      Y:     0.0000      Z:    -1.7388     Total:     1.7388


*** tstop() called on bp1-compute00046.data.bp.acrc.priv at Tue Apr 27 16:54:21 2021
Module time:
	user time   =     139.77 seconds =       2.33 minutes
	system time =       4.39 seconds =       0.07 minutes
	total time  =          7 seconds =       0.12 minutes
Total time:
	user time   =     575.88 seconds =       9.60 minutes
	system time =      22.28 seconds =       0.37 minutes
	total time  =         27 seconds =       0.45 minutes

  //>>>>>>>>>>>>>>>>>>>>>>>>>>>>>>>>>>>//
  //    Loading displacement 5 of 5    //
  //<<<<<<<<<<<<<<<<<<<<<<<<<<<<<<<<<<<//

*** tstart() called on bp1-compute00046.data.bp.acrc.priv
*** at Tue Apr 27 16:54:21 2021

   => Loading Basis Set <=

    Name: AUG-CC-PV(Q+D)Z
    Role: ORBITAL
    Keyword: BASIS
    atoms 1   entry S          line  1148 file /work/zw18965/.conda/envs/p4env/share/psi4/basis/aug-cc-pv_qpd_z.gbs 
    atoms 2-3 entry O          line   439 file /work/zw18965/.conda/envs/p4env/share/psi4/basis/aug-cc-pv_qpd_z.gbs 


         ---------------------------------------------------------
                                   SCF
               by Justin Turney, Rob Parrish, Andy Simmonett
                          and Daniel G. A. Smith
                              RKS Reference
                       24 Threads, 137329 MiB Core
         ---------------------------------------------------------

  ==> Geometry <==

    Molecular point group: c2v
    Full point group: C2v

    Geometry (in Angstrom), charge = 0, multiplicity = 1:

       Center              X                  Y                   Z               Mass       
    ------------   -----------------  -----------------  -----------------  -----------------
         S            0.000000000000     0.000000000000    -0.362307388741    31.972071174400
         O           -0.000000000000     1.239786073025     0.362106266127    15.994914619570
         O            0.000000000000    -1.239786073025     0.362106266127    15.994914619570

  Running in c2v symmetry.

  Rotational constants: A =      2.00892  B =      0.34284  C =      0.29286 [cm^-1]
  Rotational constants: A =  60225.80440  B =  10278.07472  C =   8779.73418 [MHz]
  Nuclear repulsion =  108.002291012488911

  Charge       = 0
  Multiplicity = 1
  Electrons    = 32
  Nalpha       = 16
  Nbeta        = 16

  ==> Algorithm <==

  SCF Algorithm Type is DF.
  DIIS enabled.
  MOM disabled.
  Fractional occupation disabled.
  Guess Type is SAD.
  Energy threshold   = 1.00e-08
  Density threshold  = 1.00e-08
  Integral threshold = 0.00e+00

  ==> Primary Basis <==

  Basis Set: AUG-CC-PV(Q+D)Z
    Blend: AUG-CC-PV(Q+D)Z
    Number of shells: 63
    Number of basis function: 249
    Number of Cartesian functions: 325
    Spherical Harmonics?: true
    Max angular momentum: 4

  ==> DFT Potential <==

   => Composite Functional: WB97M-V <= 

    wB97M-V Hyb-GGA Exchange-Correlation Functional

    N. Mardirossian and M. Head-Gordon, J. Chem. Phys. 144, 214110 (2016)

    Deriv               =              1
    GGA                 =           TRUE
    Meta                =           TRUE

    Exchange Hybrid     =           TRUE
    MP2 Hybrid          =          FALSE

   => Exchange-Correlation Functionals <=

    1.0000   wB97M-V exchange-correlation functional

   => Exact (HF) Exchange <=

    0.8500            HF,LR [omega = 0.3000]
    0.1500               HF 

   => VV10 Non-Local Parameters <=

    VV10 B              =     6.0000E+00
    VV10 C              =     1.0000E-02

   => Molecular Quadrature <=

    Radial Scheme          =       TREUTLER
    Pruning Scheme         =           FLAT
    Nuclear Scheme         =       TREUTLER

    BS radius alpha        =              1
    Pruning alpha          =              1
    Radial Points          =             75
    Spherical Points       =            302
    Total Points           =          67950
    Total Blocks           =            600
    Max Points             =            256
    Max Functions          =            249

   => Loading Basis Set <=

    Name: (AUG-CC-PV(Q+D)Z AUX)
    Role: JKFIT
    Keyword: DF_BASIS_SCF
    atoms 1   entry S          line   810 file /work/zw18965/.conda/envs/p4env/share/psi4/basis/aug-cc-pvqz-jkfit.gbs 
    atoms 2-3 entry O          line   318 file /work/zw18965/.conda/envs/p4env/share/psi4/basis/aug-cc-pvqz-jkfit.gbs 

  ==> Pre-Iterations <==

   -------------------------------------------------------
    Irrep   Nso     Nmo     Nalpha   Nbeta   Ndocc  Nsocc
   -------------------------------------------------------
     A1        85      85       0       0       0       0
     A2        42      42       0       0       0       0
     B1        51      51       0       0       0       0
     B2        71      71       0       0       0       0
   -------------------------------------------------------
    Total     249     249      16      16      16       0
   -------------------------------------------------------

  ==> Integral Setup <==

  ==> DiskDFJK: Density-Fitted J/K Matrices <==

    J tasked:                  Yes
    K tasked:                  Yes
    wK tasked:                 Yes
    Omega:               3.000E-01
    OpenMP threads:             24
    Integrals threads:          24
    Memory [MiB]:           101950
    Algorithm:                Core
    Integral Cache:           NONE
    Schwarz Cutoff:          1E-12
    Fitting Condition:       1E-10

   => Auxiliary Basis Set <=

  Basis Set: (AUG-CC-PV(Q+D)Z AUX)
    Blend: AUG-CC-PVQZ-JKFIT
    Number of shells: 114
    Number of basis function: 468
    Number of Cartesian functions: 643
    Spherical Harmonics?: true
    Max angular momentum: 5

  Cached 100.0% of DFT collocation blocks in 1.022 [GiB].

  Minimum eigenvalue in the overlap matrix is 8.8703732808E-05.
  Using Symmetric Orthogonalization.

  SCF Guess: Superposition of Atomic Densities via on-the-fly atomic UHF.

  ==> Iterations <==

                           Total Energy        Delta E     RMS |[F,P]|

   @DF-RKS iter SAD:  -548.44820837723807   -5.48448e+02   0.00000e+00 
   @DF-RKS iter   1:  -548.48113340614941   -3.29250e-02   5.68354e-03 DIIS
   @DF-RKS iter   2:  -548.35554460890842    1.25589e-01   7.56051e-03 DIIS
   @DF-RKS iter   3:  -548.67357146708002   -3.18027e-01   3.54211e-04 DIIS
   @DF-RKS iter   4:  -548.67416376292158   -5.92296e-04   7.13934e-05 DIIS
   @DF-RKS iter   5:  -548.67423097921414   -6.72163e-05   1.34056e-05 DIIS
   @DF-RKS iter   6:  -548.67423479367801   -3.81446e-06   3.94507e-06 DIIS
   @DF-RKS iter   7:  -548.67423516353756   -3.69860e-07   9.55945e-07 DIIS
   @DF-RKS iter   8:  -548.67423519237411   -2.88366e-08   3.67052e-07 DIIS
   @DF-RKS iter   9:  -548.67423519401495   -1.64084e-09   8.12562e-08 DIIS
   @DF-RKS iter  10:  -548.67423519412034   -1.05388e-10   1.51619e-08 DIIS
   @DF-RKS iter  11:  -548.67423519412500   -4.66116e-12   2.72596e-09 DIIS
  Energy and wave function converged.


  ==> Post-Iterations <==

    Orbital Energies [Eh]
    ---------------------

    Doubly Occupied:                                                      

       1A1   -89.393043     1B2   -19.393788     2A1   -19.393772  
       3A1    -8.286595     1B1    -6.197933     2B2    -6.194605  
       4A1    -6.191587     5A1    -1.280359     3B2    -1.187072  
       6A1    -0.760232     7A1    -0.611041     2B1    -0.610390  
       4B2    -0.609083     1A2    -0.482542     5B2    -0.473311  
       8A1    -0.442140  

    Virtual:                                                              

       3B1    -0.043938     9A1     0.030652    10A1     0.041470  
       6B2     0.043981     4B1     0.047205    11A1     0.109015  
       7B2     0.110818    12A1     0.118199     2A2     0.125015  
       5B1     0.145036     8B2     0.146367    13A1     0.152802  
       9B2     0.178425     6B1     0.195128    14A1     0.214600  
      15A1     0.244735     3A2     0.248346    10B2     0.267964  
      11B2     0.276971    16A1     0.287841     7B1     0.307085  
      17A1     0.344035     8B1     0.413264    12B2     0.424916  
      18A1     0.427387     4A2     0.436261    19A1     0.442966  
       9B1     0.462971    20A1     0.472247    13B2     0.523128  
      14B2     0.541903    21A1     0.549491     5A2     0.558167  
      10B1     0.566181     6A2     0.578286    11B1     0.594435  
      15B2     0.600601    22A1     0.610319    16B2     0.619207  
       7A2     0.624968    23A1     0.655127    24A1     0.682047  
      12B1     0.706346    17B2     0.736432    25A1     0.743689  
      18B2     0.753156    13B1     0.830077     8A2     0.836470  
      26A1     0.854861    27A1     0.951082    19B2     0.982949  
      20B2     1.027184    21B2     1.079654    28A1     1.096777  
      14B1     1.110840    29A1     1.111447    15B1     1.194439  
      30A1     1.205000     9A2     1.230759    31A1     1.253235  
      16B1     1.261457    10A2     1.284706    22B2     1.298661  
      23B2     1.315501    17B1     1.316950    24B2     1.363137  
      32A1     1.363245    11A2     1.370854    12A2     1.392657  
      25B2     1.403963    33A1     1.410919    18B1     1.446425  
      19B1     1.485445    34A1     1.489058    26B2     1.506596  
      35A1     1.519029    13A2     1.543513    20B1     1.568216  
      27B2     1.574859    36A1     1.591481    14A2     1.647068  
      28B2     1.658542    37A1     1.662463    21B1     1.667466  
      38A1     1.682155    29B2     1.803725    15A2     1.890315  
      30B2     1.896005    39A1     1.939483    22B1     1.945284  
      40A1     2.024541    23B1     2.086398    31B2     2.091003  
      41A1     2.097930    24B1     2.111553    16A2     2.123535  
      42A1     2.127715    32B2     2.128972    33B2     2.195125  
      17A2     2.212699    43A1     2.413253    34B2     2.584227  
      44A1     2.609272    25B1     2.707031    18A2     2.726193  
      45A1     2.809200    35B2     3.011246    46A1     3.033177  
      36B2     3.171608    19A2     3.195609    26B1     3.200290  
      47A1     3.207991    27B1     3.219550    48A1     3.273122  
      28B1     3.279046    20A2     3.280140    49A1     3.330754  
      37B2     3.336242    38B2     3.364143    29B1     3.416821  
      21A2     3.427064    50A1     3.430663    51A1     3.496052  
      39B2     3.519880    30B1     3.529956    22A2     3.550480  
      52A1     3.616034    40B2     3.617199    23A2     3.653289  
      41B2     3.714031    31B1     3.747583    53A1     3.820447  
      42B2     3.848183    24A2     3.862070    43B2     3.872572  
      54A1     3.894737    32B1     3.918578    25A2     3.932491  
      55A1     3.970709    44B2     3.972099    33B1     3.984986  
      56A1     4.008402    57A1     4.069476    45B2     4.081864  
      34B1     4.091126    26A2     4.116745    35B1     4.240368  
      58A1     4.280070    36B1     4.305537    46B2     4.320758  
      27A2     4.342059    47B2     4.347112    59A1     4.389534  
      48B2     4.506534    60A1     4.520942    61A1     4.563913  
      28A2     4.598773    49B2     4.622638    50B2     4.746149  
      37B1     4.747238    62A1     4.867870    29A2     4.891118  
      38B1     4.922266    39B1     5.040560    63A1     5.077629  
      30A2     5.166274    51B2     5.199672    52B2     5.316031  
      64A1     5.376287    31A2     5.528107    65A1     5.666305  
      53B2     5.684640    54B2     6.052764    66A1     6.123219  
      40B1     6.467843    67A1     7.334260    55B2     8.171156  
      41B1     8.819301    68A1     8.836130    32A2     9.011042  
      69A1     9.185205    56B2     9.894689    42B1    10.219691  
      70A1    10.230383    33A2    10.236884    57B2    10.249761  
      58B2    10.320735    43B1    10.384995    34A2    10.388879  
      71A1    10.398717    35A2    10.495167    44B1    10.503058  
      72A1    10.519818    36A2    10.534674    59B2    10.541556  
      45B1    10.551026    60B2    10.551467    37A2    10.569161  
      73A1    10.640673    46B1    10.651344    74A1    10.655896  
      61B2    10.700801    75A1    10.718255    62B2    11.058417  
      76A1    11.304935    63B2    11.346138    47B1    11.444523  
      77A1    11.449332    64B2    11.449753    38A2    11.457289  
      48B1    11.607488    65B2    11.633431    39A2    11.681412  
      78A1    11.729867    49B1    12.095187    79A1    12.132118  
      40A2    12.144769    66B2    12.232054    80A1    12.365872  
      67B2    12.432857    50B1    12.454213    41A2    12.536374  
      81A1    12.630084    51B1    12.788859    42A2    12.791410  
      68B2    12.862523    69B2    12.885225    82A1    12.929866  
      83A1    13.487705    70B2    13.768082    84A1    23.741576  
      71B2    42.141602    85A1    42.442589  

    Final Occupation by Irrep:
             A1    A2    B1    B2 
    DOCC [     8,    1,    2,    5 ]

  @DF-RKS Final Energy:  -548.67423519412500

   => Energetics <=

    Nuclear Repulsion Energy =            108.0022910124889108
    One-Electron Energy =                -970.0565254903781351
    Two-Electron Energy =                 345.6250244504762463
    DFT Exchange-Correlation Energy =     -32.3775839312748346
    Empirical Dispersion Energy =           0.0000000000000000
    VV10 Nonlocal Energy =                  0.1325587645626702
    Total Energy =                       -548.6742351941250035

Computation Completed


Properties will be evaluated at   0.000000,   0.000000,   0.000000 [a0]

Properties computed using the SCF density matrix

  Nuclear Dipole Moment: [e a0]
     X:     0.0000      Y:     0.0000      Z:    -0.0061

  Electronic Dipole Moment: [e a0]
     X:     0.0000      Y:     0.0000      Z:    -0.6783

  Dipole Moment: [e a0]
     X:     0.0000      Y:     0.0000      Z:    -0.6844     Total:     0.6844

  Dipole Moment: [D]
     X:     0.0000      Y:     0.0000      Z:    -1.7395     Total:     1.7395


*** tstop() called on bp1-compute00046.data.bp.acrc.priv at Tue Apr 27 16:54:27 2021
Module time:
	user time   =     141.29 seconds =       2.35 minutes
	system time =       3.89 seconds =       0.06 minutes
	total time  =          6 seconds =       0.10 minutes
Total time:
	user time   =     717.31 seconds =      11.96 minutes
	system time =      26.19 seconds =       0.44 minutes
	total time  =         33 seconds =       0.55 minutes

         ----------------------------------------------------------
                                   FINDIF
                     R. A. King and Jonathon Misiewicz
         ---------------------------------------------------------

  Computing gradient from energies.
    Using 3-point formula.
    Energy without displacement: -548.6742573731
    Check energies below for precision!
    Forces are for mass-weighted, symmetry-adapted cartesians (in au).

     Coord      Energy(-1)        Energy(+1)            Force
        0   -548.6742423527   -548.6742716471     -0.0029294422
        1   -548.6742786674   -548.6742351941      0.0043473302


-------------------------------------------------------------
  ## New Matrix (Symmetry 0) ##
  Irrep: 1 Size: 3 x 3

                 1                   2                   3

    1     0.00000000000000     0.00000000000000    -0.01171428013896
    2     0.00000000000000     0.01229415241619     0.00585714006948
    3     0.00000000000000    -0.01229415241619     0.00585714006948




			-----------------------------------------
			 OPTKING 2.0: for geometry optimizations 
			  - R.A. King,  Bethel University        
			-----------------------------------------
	At level 1: Red. Int., RFO, no backsteps, dynamic trust

	Internal coordinates to be generated automatically.
	Detected frag 1 with atoms:  1 2 3
	---Fragment 1 Bond Connectivity---
	 1 : 2 3
	 2 : 1
	 3 : 1

	---Fragment 1 Geometry and Gradient---
	 S          -0.0000000000        0.0000000000       -0.6846617379
	 O          -0.0000000000        2.3419721082        0.6842816713
	 O           0.0000000000       -2.3419721082        0.6842816713
	             0.0000000000        0.0000000000       -0.0117142801
	             0.0000000000        0.0122941524        0.0058571401
	             0.0000000000       -0.0122941524        0.0058571401

	Previous optimization step data not found.  Starting new optimization.

	---Fragment 1 Intrafragment Coordinates---
	 - Coordinate -           - BOHR/RAD -       - ANG/DEG -
	 R(1,2)           =         2.712718	       1.435509
	 R(1,3)           =         2.712718	       1.435509
	 B(2,1,3)         =         2.083665	     119.385214

	Current energy   :      -548.6742573731

	Generating empirical Hessian (Schlegel '84) for each fragment.
	Taking RFO optimization step.
	Going to follow RFO solution 1.
	Using RFO vector 1.
	Norm of target step-size    0.02244
	Projected energy change by RFO approximation:        -0.0003901654

	Back-transformation to cartesian coordinates...
	Successfully converged to displaced geometry.

	--- Internal Coordinate Step in ANG or DEG, aJ/ANG or AJ/DEG ---
	 ---------------------------------------------------------------------------
	   Coordinate                Previous        Force       Change         New 
	   ----------                --------       ------       ------       ------
	    1 R(1,2)          =      1.435509    -0.111797    -0.006988     1.428520
	    2 R(1,3)          =      1.435509    -0.111797    -0.006988     1.428520
	    3 B(2,1,3)        =    119.385214    -0.000237    -0.712256   118.672958
	 ---------------------------------------------------------------------------
	Successfully symmetrized geometry.

  ==> Convergence Check <==

  Measures of convergence in internal coordinates in au.
  Criteria marked as inactive (o), active & met (*), and active & unmet ( ).
  --------------------------------------------------------------------------------------------- ~
   Step     Total Energy     Delta E     MAX Force     RMS Force      MAX Disp      RMS Disp    ~
  --------------------------------------------------------------------------------------------- ~
    Convergence Criteria    1.00e-06 *    3.00e-04 *             o    1.20e-03 *             o  ~
  --------------------------------------------------------------------------------------------- ~
      1    -548.67425737   -5.49e+02      1.36e-02      1.12e-02 o    1.32e-02      1.30e-02 o  ~
  ---------------------------------------------------------------------------------------------

	Writing optimization data to binary file.
	Structure for next step:
	Cartesian Geometry (in Angstrom)
	    S     0.0000000000   0.0000000000  -0.3650573898
	    O    -0.0000000000   1.2287803894   0.3634812660
	    O     0.0000000000  -1.2287803894   0.3634812660
			--------------------------
			 OPTKING Finished Execution 
			--------------------------

    Structure for next step:
    Molecular point group: c2v
    Full point group: C2v

    Geometry (in Angstrom), charge = 0, multiplicity = 1:

    S           -0.000000000000     0.000000000000    -0.364370463243
    O           -0.000000000000     1.228780394279     0.364168195383
    O            0.000000000000    -1.228780394279     0.364168195383

gradient() will perform gradient computation by finite difference of analytic energies.

         ----------------------------------------------------------
                                   FINDIF
                     R. A. King and Jonathon Misiewicz
         ---------------------------------------------------------

  Using finite-differences of energies to determine gradients.
    Generating geometries for use with 3-point formula.
    Displacement size will be 5.00e-03.
    Number of atoms is 3.
    Number of symmetric SALCs is 2.
    Translations projected? 1. Rotations projected? 1.
    Number of geometries (including reference) is 5.

  //>>>>>>>>>>>>>>>>>>>>>>>>>>>>>>>>>>>//
  //    Loading displacement 1 of 5    //
  //<<<<<<<<<<<<<<<<<<<<<<<<<<<<<<<<<<<//

*** tstart() called on bp1-compute00046.data.bp.acrc.priv
*** at Tue Apr 27 16:54:27 2021

   => Loading Basis Set <=

    Name: AUG-CC-PV(Q+D)Z
    Role: ORBITAL
    Keyword: BASIS
    atoms 1   entry S          line  1148 file /work/zw18965/.conda/envs/p4env/share/psi4/basis/aug-cc-pv_qpd_z.gbs 
    atoms 2-3 entry O          line   439 file /work/zw18965/.conda/envs/p4env/share/psi4/basis/aug-cc-pv_qpd_z.gbs 


         ---------------------------------------------------------
                                   SCF
               by Justin Turney, Rob Parrish, Andy Simmonett
                          and Daniel G. A. Smith
                              RKS Reference
                       24 Threads, 137329 MiB Core
         ---------------------------------------------------------

  ==> Geometry <==

    Molecular point group: c2v
    Full point group: C2v

    Geometry (in Angstrom), charge = 0, multiplicity = 1:

       Center              X                  Y                   Z               Mass       
    ------------   -----------------  -----------------  -----------------  -----------------
         S           -0.000000000000     0.000000000000    -0.364370463243    31.972071174400
         O           -0.000000000000     1.228780394279     0.364168195383    15.994914619570
         O            0.000000000000    -1.228780394279     0.364168195383    15.994914619570

  Running in c2v symmetry.

  Rotational constants: A =      1.98623  B =      0.34901  C =      0.29685 [cm^-1]
  Rotational constants: A =  59545.73519  B =  10463.01218  C =   8899.28439 [MHz]
  Nuclear repulsion =  108.612836188854217

  Charge       = 0
  Multiplicity = 1
  Electrons    = 32
  Nalpha       = 16
  Nbeta        = 16

  ==> Algorithm <==

  SCF Algorithm Type is DF.
  DIIS enabled.
  MOM disabled.
  Fractional occupation disabled.
  Guess Type is READ.
  Energy threshold   = 1.00e-08
  Density threshold  = 1.00e-08
  Integral threshold = 0.00e+00

  ==> Primary Basis <==

[...]
  Energy threshold   = 1.00e-10
  Density threshold  = 1.00e-10
  Integral threshold = 0.00e+00

  ==> Primary Basis <==

  Basis Set: AUG-CC-PV(Q+D)Z
    Blend: AUG-CC-PV(Q+D)Z
    Number of shells: 63
    Number of basis function: 249
    Number of Cartesian functions: 325
    Spherical Harmonics?: true
    Max angular momentum: 4

  ==> DFT Potential <==

   => Composite Functional: WB97M-V <= 

    wB97M-V Hyb-GGA Exchange-Correlation Functional

    N. Mardirossian and M. Head-Gordon, J. Chem. Phys. 144, 214110 (2016)

    Deriv               =              1
    GGA                 =           TRUE
    Meta                =           TRUE

    Exchange Hybrid     =           TRUE
    MP2 Hybrid          =          FALSE

   => Exchange-Correlation Functionals <=

    1.0000   wB97M-V exchange-correlation functional

   => Exact (HF) Exchange <=

    0.8500            HF,LR [omega = 0.3000]
    0.1500               HF 

   => VV10 Non-Local Parameters <=

    VV10 B              =     6.0000E+00
    VV10 C              =     1.0000E-02

   => Molecular Quadrature <=

    Radial Scheme          =       TREUTLER
    Pruning Scheme         =           FLAT
    Nuclear Scheme         =       TREUTLER

    BS radius alpha        =              1
    Pruning alpha          =              1
    Radial Points          =             75
    Spherical Points       =            302
    Total Points           =          67950
    Total Blocks           =            601
    Max Points             =            253
    Max Functions          =            249

   => Loading Basis Set <=

    Name: (AUG-CC-PV(Q+D)Z AUX)
    Role: JKFIT
    Keyword: DF_BASIS_SCF
    atoms 1   entry S          line   810 file /work/zw18965/.conda/envs/p4env/share/psi4/basis/aug-cc-pvqz-jkfit.gbs 
    atoms 2-3 entry O          line   318 file /work/zw18965/.conda/envs/p4env/share/psi4/basis/aug-cc-pvqz-jkfit.gbs 

  ==> Pre-Iterations <==

   -------------------------------------------------------
    Irrep   Nso     Nmo     Nalpha   Nbeta   Ndocc  Nsocc
   -------------------------------------------------------
     A'       156     156       0       0       0       0
     A"        93      93       0       0       0       0
   -------------------------------------------------------
    Total     249     249      16      16      16       0
   -------------------------------------------------------

  ==> Integral Setup <==

  ==> DiskDFJK: Density-Fitted J/K Matrices <==

    J tasked:                  Yes
    K tasked:                  Yes
    wK tasked:                 Yes
    Omega:               3.000E-01
    OpenMP threads:             24
    Integrals threads:          24
    Memory [MiB]:           101949
    Algorithm:                Core
    Integral Cache:           NONE
    Schwarz Cutoff:          1E-12
    Fitting Condition:       1E-10

   => Auxiliary Basis Set <=

  Basis Set: (AUG-CC-PV(Q+D)Z AUX)
    Blend: AUG-CC-PVQZ-JKFIT
    Number of shells: 114
    Number of basis function: 468
    Number of Cartesian functions: 643
    Spherical Harmonics?: true
    Max angular momentum: 5

  Cached 100.0% of DFT collocation blocks in 1.023 [GiB].

  Minimum eigenvalue in the overlap matrix is 8.6593475572E-05.
  Using Symmetric Orthogonalization.

  SCF Guess: Superposition of Atomic Densities via on-the-fly atomic UHF.

  ==> Iterations <==

                           Total Energy        Delta E     RMS |[F,P]|

   @DF-RKS iter SAD:  -548.49263112235667   -5.48493e+02   0.00000e+00 
   @DF-RKS iter   1:  -548.48325808510333    9.37304e-03   4.02940e-03 DIIS
   @DF-RKS iter   2:  -548.36723834469842    1.16020e-01   5.28740e-03 DIIS
   @DF-RKS iter   3:  -548.67385831319802   -3.06620e-01   2.50739e-04 DIIS
   @DF-RKS iter   4:  -548.67445013614145   -5.91823e-04   5.04937e-05 DIIS
   @DF-RKS iter   5:  -548.67451477091845   -6.46348e-05   1.52734e-05 DIIS
   @DF-RKS iter   6:  -548.67451707770192   -2.30678e-06   1.59450e-05 DIIS
   @DF-RKS iter   7:  -548.67452023561680   -3.15791e-06   2.47233e-06 DIIS
   @DF-RKS iter   8:  -548.67452042239267   -1.86776e-07   4.64968e-07 DIIS
   @DF-RKS iter   9:  -548.67452043493552   -1.25428e-08   1.67586e-07 DIIS
   @DF-RKS iter  10:  -548.67452043560536   -6.69843e-10   3.58266e-08 DIIS
   @DF-RKS iter  11:  -548.67452043564947   -4.41105e-11   7.35684e-09 DIIS
   @DF-RKS iter  12:  -548.67452043565027   -7.95808e-13   1.29689e-09 DIIS
   @DF-RKS iter  13:  -548.67452043565186   -1.59162e-12   4.31472e-10 DIIS
   @DF-RKS iter  14:  -548.67452043565220   -3.41061e-13   3.77541e-11 DIIS
  Energy and wave function converged.


  ==> Post-Iterations <==

    Orbital Energies [Eh]
    ---------------------

    Doubly Occupied:                                                      

       1Ap   -89.389939     2Ap   -19.392278     3Ap   -19.392104  
       4Ap    -8.284181     1App   -6.195505     5Ap    -6.192180  
       6Ap    -6.189100     7Ap    -1.285704     8Ap    -1.190476  
       9Ap    -0.757611    10Ap    -0.613474     2App   -0.613316  
      11Ap    -0.609560     3App   -0.484346    12Ap    -0.474134  
      13Ap    -0.442194  

    Virtual:                                                              

       4App   -0.040710    14Ap     0.030860    15Ap     0.041802  
      16Ap     0.044139     5App    0.047286    17Ap     0.110299  
      18Ap     0.110860    19Ap     0.118313     6App    0.124954  
       7App    0.144961    20Ap     0.147811    21Ap     0.154143  
      22Ap     0.178462     8App    0.195951    23Ap     0.216003  
      24Ap     0.245938     9App    0.248736    25Ap     0.269112  
      26Ap     0.277510    27Ap     0.289725    10App    0.307152  
      28Ap     0.344148    11App    0.414010    29Ap     0.425263  
      30Ap     0.429800    12App    0.436976    31Ap     0.444437  
      13App    0.463697    32Ap     0.472656    33Ap     0.524069  
      34Ap     0.542523    35Ap     0.551655    14App    0.559221  
      15App    0.567090    16App    0.580014    17App    0.595034  
      36Ap     0.601172    37Ap     0.612698    38Ap     0.619029  
      18App    0.625843    39Ap     0.656331    40Ap     0.680884  
      19App    0.705395    41Ap     0.736714    42Ap     0.746330  
      43Ap     0.754154    20App    0.828280    21App    0.835704  
      44Ap     0.852662    45Ap     0.953904    46Ap     0.983832  
      47Ap     1.036008    48Ap     1.082288    49Ap     1.097277  
      22App    1.111746    50Ap     1.113319    23App    1.194272  
      51Ap     1.204797    24App    1.232326    52Ap     1.253273  
      25App    1.262084    26App    1.286408    53Ap     1.298341  
      54Ap     1.316870    27App    1.318928    55Ap     1.366391  
      56Ap     1.367635    28App    1.371040    29App    1.395302  
      57Ap     1.409906    58Ap     1.411542    30App    1.451082  
      31App    1.486167    59Ap     1.491048    60Ap     1.509442  
      61Ap     1.522910    32App    1.545708    33App    1.567394  
      62Ap     1.577674    63Ap     1.592111    34App    1.654436  
      64Ap     1.662413    65Ap     1.663448    35App    1.672034  
      66Ap     1.686371    67Ap     1.801266    36App    1.893982  
      68Ap     1.905703    69Ap     1.937217    37App    1.951743  
      70Ap     2.030433    38App    2.078870    71Ap     2.094349  
      72Ap     2.096948    39App    2.119875    40App    2.122021  
      73Ap     2.130522    74Ap     2.133450    75Ap     2.189879  
      41App    2.213348    76Ap     2.424359    77Ap     2.583330  
      78Ap     2.619384    42App    2.710082    43App    2.730049  
      79Ap     2.813559    80Ap     3.018459    81Ap     3.039863  
      82Ap     3.175829    44App    3.200810    45App    3.204369  
      83Ap     3.205376    46App    3.220599    84Ap     3.276005  
      47App    3.283083    48App    3.286423    85Ap     3.339495  
      86Ap     3.344631    87Ap     3.377117    49App    3.415864  
      88Ap     3.431095    50App    3.434833    89Ap     3.496231  
      90Ap     3.521605    51App    3.532355    52App    3.554866  
      91Ap     3.626532    92Ap     3.628486    53App    3.663787  
      93Ap     3.724309    54App    3.753320    94Ap     3.821099  
      95Ap     3.836654    55App    3.868784    96Ap     3.878785  
      97Ap     3.894108    56App    3.915613    57App    3.933351  
      98Ap     3.971014    99Ap     3.979430    58App    3.991100  
     100Ap     4.013544   101Ap     4.076598   102Ap     4.084083  
      59App    4.098533    60App    4.126124    61App    4.248871  
     103Ap     4.293967    62App    4.318470   104Ap     4.331387  
      63App    4.348935   105Ap     4.357693   106Ap     4.405056  
     107Ap     4.521672   108Ap     4.539935   109Ap     4.576153  
      64App    4.611938   110Ap     4.613587    65App    4.759835  
     111Ap     4.773878   112Ap     4.880260    66App    4.902068  
      67App    4.942423    68App    5.043855   113Ap     5.084637  
      69App    5.183733   114Ap     5.231194   115Ap     5.357390  
     116Ap     5.388686    70App    5.536399   117Ap     5.688324  
     118Ap     5.694312   119Ap     6.061901   120Ap     6.132522  
      71App    6.495654   121Ap     7.373410   122Ap     8.197579  
      72App    8.828409   123Ap     8.845391    73App    9.022883  
     124Ap     9.194439   125Ap     9.925542    74App   10.218745  
     126Ap    10.229899    75App   10.239037   127Ap    10.251550  
     128Ap    10.326983    76App   10.385749    77App   10.398909  
     129Ap    10.400177    78App   10.497391    79App   10.504181  
     130Ap    10.514664    80App   10.537046   131Ap    10.546934  
      81App   10.554321   132Ap    10.555970    82App   10.584074  
     133Ap    10.641858    83App   10.659331   134Ap    10.661920  
     135Ap    10.711775   136Ap    10.725416   137Ap    11.091976  
     138Ap    11.308732   139Ap    11.345894    84App   11.445992  
     140Ap    11.450940   141Ap    11.451266    85App   11.458778  
      86App   11.615336   142Ap    11.634591    87App   11.688441  
     143Ap    11.746289    88App   12.113408   144Ap    12.135931  
      89App   12.165164   145Ap    12.232950   146Ap    12.390539  
     147Ap    12.443976    90App   12.464015    91App   12.544639  
     148Ap    12.642529    92App   12.790142    93App   12.791792  
     149Ap    12.863894   150Ap    12.892501   151Ap    12.929834  
     152Ap    13.522376   153Ap    13.833519   154Ap    23.950064  
     155Ap    42.191570   156Ap    42.498721  

    Final Occupation by Irrep:
             Ap   App 
    DOCC [    13,    3 ]

  @DF-RKS Final Energy:  -548.67452043565220

   => Energetics <=

    Nuclear Repulsion Energy =            108.8021724109321866
    One-Electron Energy =                -971.6515069947588472
    Two-Electron Energy =                 346.4339519472753750
    DFT Exchange-Correlation Energy =     -32.3916672256877121
    Empirical Dispersion Energy =           0.0000000000000000
    VV10 Nonlocal Energy =                  0.1325294265869296
    Total Energy =                       -548.6745204356520844

Computation Completed


Properties will be evaluated at   0.000000,   0.000000,   0.000000 [a0]

Properties computed using the SCF density matrix

  Nuclear Dipole Moment: [e a0]
     X:     0.0000      Y:    -0.0000      Z:    -0.0061

  Electronic Dipole Moment: [e a0]
     X:     0.0000      Y:    -0.0025      Z:    -0.6713

  Dipole Moment: [e a0]
     X:     0.0000      Y:    -0.0025      Z:    -0.6774     Total:     0.6774

  Dipole Moment: [D]
     X:     0.0000      Y:    -0.0064      Z:    -1.7218     Total:     1.7218


*** tstop() called on bp1-compute00046.data.bp.acrc.priv at Tue Apr 27 16:56:54 2021
Module time:
	user time   =     152.07 seconds =       2.53 minutes
	system time =       3.25 seconds =       0.05 minutes
	total time  =          7 seconds =       0.12 minutes
Total time:
	user time   =    3928.42 seconds =      65.47 minutes
	system time =     103.78 seconds =       1.73 minutes
	total time  =        180 seconds =       3.00 minutes

         ----------------------------------------------------------
                                   FINDIF
                     R. A. King and Jonathon Misiewicz
         ---------------------------------------------------------

  Computing second-derivative from energies using projected, 
  symmetry-adapted, cartesian coordinates.

  8 energies passed in, including the reference geometry.
    Using 3-point formula.
    Energy without displacement: -548.6745214094
    Check energies below for precision!
    0: -1        :      -548.6745209680
    0: 1         :      -548.6745210681
    1: -1        :      -548.6745209581
    1: 1         :      -548.6745209201
    0: 1, 1: 1   :      -548.6745211651
    0: -1, 1: -1 :      -548.6745211098
    2: -1        :      -548.6745204357

-------------------------------------------------------------


  ==> Harmonic Vibrational Analysis <==

  non-mass-weighted Hessian:       Symmetric? True   Hermitian? True   Lin Dep Dim?  6 (0)
  projection of translations (True) and rotations (True) removed 6 degrees of freedom (6)
  total projector:                 Symmetric? True   Hermitian? True   Lin Dep Dim?  6 (6)
  mass-weighted Hessian:           Symmetric? True   Hermitian? True   Lin Dep Dim?  6 (0)
  pre-proj  low-frequency mode:    0.0000i [cm^-1]
  pre-proj  low-frequency mode:    0.0000i [cm^-1]
  pre-proj  low-frequency mode:    0.0000  [cm^-1]
  pre-proj  low-frequency mode:    0.0000  [cm^-1]
  pre-proj  low-frequency mode:    0.0000  [cm^-1]
  pre-proj  low-frequency mode:    0.0000  [cm^-1]
  pre-proj  all modes:['0.0000i' '0.0000i' '0.0000' '0.0000' '0.0000' '0.0000' '530.9925'
 '1240.8575' '1434.7740']
  projected mass-weighted Hessian: Symmetric? True   Hermitian? True   Lin Dep Dim?  6 (6)
  post-proj low-frequency mode:    0.0000i [cm^-1] (TR)
  post-proj low-frequency mode:    0.0000i [cm^-1] (TR)
  post-proj low-frequency mode:    0.0000i [cm^-1] (TR)
  post-proj low-frequency mode:    0.0000  [cm^-1] (TR)
  post-proj low-frequency mode:    0.0000  [cm^-1] (TR)
  post-proj low-frequency mode:    0.0000  [cm^-1] (TR)
  post-proj  all modes:['0.0000i' '0.0000i' '0.0000i' '0.0000' '0.0000' '0.0000' '530.9925'
 '1240.8575' '1434.7740']

  Vibration                       7                   8                   9           
  Freq [cm^-1]                 530.9925           1240.8575           1434.7740       
  Irrep                           A1                  A1                  B2          
  Reduced mass [u]             18.6322             17.9393             20.3271        
  Force const [mDyne/A]         3.0952             16.2742             24.6542        
  Turning point v=0 [a0]        0.1103              0.0735              0.0643        
  RMS dev v=0 [a0 u^1/2]        0.3367              0.2203              0.2048        
  Char temp [K]                763.9800           1785.3177           2064.3204       
  ----------------------------------------------------------------------------------
      1   S                0.00 -0.00  0.41    0.00 -0.00 -0.35   -0.00  0.52  0.00   
      2   O               -0.00  0.50 -0.41    0.00  0.56  0.35    0.00 -0.52 -0.31   
      3   O                0.00 -0.50 -0.41    0.00 -0.56  0.35   -0.00 -0.52  0.31   

  ==> Thermochemistry Components <==

  Entropy, S
    Electronic S            0.000 [cal/(mol K)]        0.000 [J/(mol K)]       0.00000000 [mEh/K] (multiplicity = 1)
    Translational S        38.386 [cal/(mol K)]      160.607 [J/(mol K)]       0.06117186 [mEh/K] (mol. weight = 63.9619 [u], P = 101325.00 [Pa])
    Rotational S           20.192 [cal/(mol K)]       84.484 [J/(mol K)]       0.03217832 [mEh/K] (symmetry no. = 2)
    Vibrational S           0.635 [cal/(mol K)]        2.659 [J/(mol K)]       0.00101261 [mEh/K]
  Total S                  59.214 [cal/(mol K)]      247.749 [J/(mol K)]       0.09436278 [mEh/K]
  Correction S              0.000 [cal/(mol K)]        0.000 [J/(mol K)]       0.00000000 [mEh/K]

  Constant volume heat capacity, Cv
    Electronic Cv           0.000 [cal/(mol K)]        0.000 [J/(mol K)]       0.00000000 [mEh/K]
    Translational Cv        2.981 [cal/(mol K)]       12.472 [J/(mol K)]       0.00475022 [mEh/K]
    Rotational Cv           2.981 [cal/(mol K)]       12.472 [J/(mol K)]       0.00475022 [mEh/K]
    Vibrational Cv          1.455 [cal/(mol K)]        6.088 [J/(mol K)]       0.00231872 [mEh/K]
  Total Cv                  7.417 [cal/(mol K)]       31.031 [J/(mol K)]       0.01181916 [mEh/K]
  Correction Cv             0.000 [cal/(mol K)]        0.000 [J/(mol K)]       0.00000000 [mEh/K]

  Constant pressure heat capacity, Cp
    Electronic Cp           0.000 [cal/(mol K)]        0.000 [J/(mol K)]       0.00000000 [mEh/K]
    Translational Cp        4.968 [cal/(mol K)]       20.786 [J/(mol K)]       0.00791703 [mEh/K]
    Rotational Cp           2.981 [cal/(mol K)]       12.472 [J/(mol K)]       0.00475022 [mEh/K]
    Vibrational Cp          1.455 [cal/(mol K)]        6.088 [J/(mol K)]       0.00231872 [mEh/K]
  Total Cp                  9.404 [cal/(mol K)]       39.346 [J/(mol K)]       0.01498597 [mEh/K]
  Correction Cp             0.000 [cal/(mol K)]        0.000 [J/(mol K)]       0.00000000 [mEh/K]

  ==> Thermochemistry Energy Analysis <==

  Raw electronic energy, E0
  Total E0, Electronic energy at well bottom at 0 [K]                 -548.67452141 [Eh]

  Zero-point energy, ZPE_vib = Sum_i nu_i / 2
    Electronic ZPE          0.000 [kcal/mol]        0.000 [kJ/mol]       0.00000000 [Eh]
    Translational ZPE       0.000 [kcal/mol]        0.000 [kJ/mol]       0.00000000 [Eh]
    Rotational ZPE          0.000 [kcal/mol]        0.000 [kJ/mol]       0.00000000 [Eh]
    Vibrational ZPE         4.584 [kcal/mol]       19.180 [kJ/mol]       0.00730523 [Eh]        1603.312 [cm^-1]
  Correction ZPE            4.584 [kcal/mol]       19.180 [kJ/mol]       0.00730523 [Eh]        1603.312 [cm^-1]
  Total ZPE, Electronic energy at 0 [K]                               -548.66721618 [Eh]

  Thermal Energy, E (includes ZPE)
    Electronic E            0.000 [kcal/mol]        0.000 [kJ/mol]       0.00000000 [Eh]
    Translational E         0.889 [kcal/mol]        3.718 [kJ/mol]       0.00141628 [Eh]
    Rotational E            0.889 [kcal/mol]        3.718 [kJ/mol]       0.00141628 [Eh]
    Vibrational E           4.724 [kcal/mol]       19.765 [kJ/mol]       0.00752806 [Eh]
  Correction E              6.501 [kcal/mol]       27.202 [kJ/mol]       0.01036061 [Eh]
  Total E, Electronic energy at  298.15 [K]                           -548.66416080 [Eh]

  Enthalpy, H_trans = E_trans + k_B * T
    Electronic H            0.000 [kcal/mol]        0.000 [kJ/mol]       0.00000000 [Eh]
    Translational H         1.481 [kcal/mol]        6.197 [kJ/mol]       0.00236046 [Eh]
    Rotational H            0.889 [kcal/mol]        3.718 [kJ/mol]       0.00141628 [Eh]
    Vibrational H           4.724 [kcal/mol]       19.765 [kJ/mol]       0.00752806 [Eh]
  Correction H              7.094 [kcal/mol]       29.681 [kJ/mol]       0.01130480 [Eh]
  Total H, Enthalpy at  298.15 [K]                                    -548.66321661 [Eh]

  Gibbs free energy, G = H - T * S
    Electronic G            0.000 [kcal/mol]        0.000 [kJ/mol]       0.00000000 [Eh]
    Translational G        -9.964 [kcal/mol]      -41.687 [kJ/mol]      -0.01587793 [Eh]
    Rotational G           -5.132 [kcal/mol]      -21.471 [kJ/mol]      -0.00817769 [Eh]
    Vibrational G           4.534 [kcal/mol]       18.972 [kJ/mol]       0.00722615 [Eh]
  Correction G            -10.561 [kcal/mol]      -44.186 [kJ/mol]      -0.01682947 [Eh]
  Total G, Free enthalpy at  298.15 [K]                               -548.69135088 [Eh]

    Psi4 stopped on: Tuesday, 27 April 2021 04:56PM
    Psi4 wall time for execution: 0:03:00.99

*** Psi4 exiting successfully. Buy a developer a beer!
