
    -----------------------------------------------------------------------
          Psi4: An Open-Source Ab Initio Electronic Structure Package
                               Psi4 1.3.2 release

                         Git: Rev {HEAD} ecbda83 


    R. M. Parrish, L. A. Burns, D. G. A. Smith, A. C. Simmonett,
    A. E. DePrince III, E. G. Hohenstein, U. Bozkaya, A. Yu. Sokolov,
    R. Di Remigio, R. M. Richard, J. F. Gonthier, A. M. James,
    H. R. McAlexander, A. Kumar, M. Saitow, X. Wang, B. P. Pritchard,
    P. Verma, H. F. Schaefer III, K. Patkowski, R. A. King, E. F. Valeev,
    F. A. Evangelista, J. M. Turney, T. D. Crawford, and C. D. Sherrill,
    J. Chem. Theory Comput. 13(7) pp 3185--3197 (2017).
    (doi: 10.1021/acs.jctc.7b00174)


                         Additional Contributions by
    P. Kraus, H. Kruse, M. H. Lechner, M. C. Schieber, R. A. Shaw,
    A. Alenaizan, R. Galvelis, Z. L. Glick, S. Lehtola, and J. P. Misiewicz

    -----------------------------------------------------------------------


    Psi4 started on: Tuesday, 27 April 2021 04:54PM

    Process ID: 75243
    Host:       bp1-compute00149.data.bp.acrc.priv
    PSIDATADIR: /work/zw18965/.conda/envs/p4env/share/psi4
    Memory:     500.0 MiB
    Threads:    24
    
  ==> Input File <==

--------------------------------------------------------------------------
memory 144 GB

molecule {
0 1
C -0.0479167327 0.6682939561 0.0000000000
H -1.0907101856 0.9776732069 0.0000000000
H 0.4344161461 1.0815239129 0.8898543791
H 0.4344161461 1.0815239129 -0.8898543791
O -0.0410920225 -0.7509554452 0.0000000000
H 0.8712936485 -1.0420305436 0.0000000000
}

set dynamic_level 1
set basis aug-cc-pV(Q+d)Z
 
optimize("wB97M-V")
frequencies("wB97M-V")
--------------------------------------------------------------------------

  Memory set to 134.110 GiB by Python driver.
gradient() will perform gradient computation by finite difference of analytic energies.

         ----------------------------------------------------------
                                   FINDIF
                     R. A. King and Jonathon Misiewicz
         ---------------------------------------------------------

  Using finite-differences of energies to determine gradients.
    Generating geometries for use with 3-point formula.
    Displacement size will be 5.00e-03.
    Number of atoms is 6.
    Number of symmetric SALCs is 8.
    Translations projected? 1. Rotations projected? 1.
    Number of geometries (including reference) is 17.

  //>>>>>>>>>>>>>>>>>>>>>>>>>>>>>>>>>>>//
  //    Loading displacement 1 of 17   //
  //<<<<<<<<<<<<<<<<<<<<<<<<<<<<<<<<<<<//

*** tstart() called on bp1-compute00149.data.bp.acrc.priv
*** at Tue Apr 27 16:54:42 2021

   => Loading Basis Set <=

    Name: AUG-CC-PV(Q+D)Z
    Role: ORBITAL
    Keyword: BASIS
    atoms 1      entry C          line   319 file /work/zw18965/.conda/envs/p4env/share/psi4/basis/aug-cc-pv_qpd_z.gbs 
    atoms 2-4, 6 entry H          line    56 file /work/zw18965/.conda/envs/p4env/share/psi4/basis/aug-cc-pv_qpd_z.gbs 
    atoms 5      entry O          line   439 file /work/zw18965/.conda/envs/p4env/share/psi4/basis/aug-cc-pv_qpd_z.gbs 


         ---------------------------------------------------------
                                   SCF
               by Justin Turney, Rob Parrish, Andy Simmonett
                          and Daniel G. A. Smith
                              RKS Reference
                       24 Threads, 137329 MiB Core
         ---------------------------------------------------------

  ==> Geometry <==

    Molecular point group: cs
    Full point group: Cs

    Geometry (in Angstrom), charge = 0, multiplicity = 1:

       Center              X                  Y                   Z               Mass       
    ------------   -----------------  -----------------  -----------------  -----------------
         C           -0.029876301320     0.726896821309     0.000000000000    12.000000000000
         H           -1.072669754220     1.036276072109     0.000000000000     1.007825032230
         H            0.452456577480     1.140126778109     0.889854379100     1.007825032230
         H            0.452456577480     1.140126778109    -0.889854379100     1.007825032230
         O           -0.023051591120    -0.692352579991     0.000000000000    15.994914619570
         H            0.889334079880    -0.983427678391     0.000000000000     1.007825032230

  Running in cs symmetry.

  Rotational constants: A =      4.29227  B =      0.82887  C =      0.79995 [cm^-1]
  Rotational constants: A = 128678.99499  B =  24848.85742  C =  23981.83297 [MHz]
  Nuclear repulsion =   40.355999452268222

  Charge       = 0
  Multiplicity = 1
  Electrons    = 18
  Nalpha       = 9
  Nbeta        = 9

  ==> Algorithm <==

  SCF Algorithm Type is DF.
  DIIS enabled.
  MOM disabled.
  Fractional occupation disabled.
  Guess Type is SAD.
  Energy threshold   = 1.00e-08
  Density threshold  = 1.00e-08
  Integral threshold = 0.00e+00

  ==> Primary Basis <==

  Basis Set: AUG-CC-PV(Q+D)Z
    Blend: AUG-CC-PV(Q+D)Z
    Number of shells: 96
    Number of basis function: 344
    Number of Cartesian functions: 430
    Spherical Harmonics?: true
    Max angular momentum: 4

  ==> DFT Potential <==

   => Composite Functional: WB97M-V <= 

    wB97M-V Hyb-GGA Exchange-Correlation Functional

    N. Mardirossian and M. Head-Gordon, J. Chem. Phys. 144, 214110 (2016)

    Deriv               =              1
    GGA                 =           TRUE
    Meta                =           TRUE

    Exchange Hybrid     =           TRUE
    MP2 Hybrid          =          FALSE

   => Exchange-Correlation Functionals <=

    1.0000   wB97M-V exchange-correlation functional

   => Exact (HF) Exchange <=

    0.8500            HF,LR [omega = 0.3000]
    0.1500               HF 

   => VV10 Non-Local Parameters <=

    VV10 B              =     6.0000E+00
    VV10 C              =     1.0000E-02

   => Molecular Quadrature <=

    Radial Scheme          =       TREUTLER
    Pruning Scheme         =           FLAT
    Nuclear Scheme         =       TREUTLER

    BS radius alpha        =              1
    Pruning alpha          =              1
    Radial Points          =             75
    Spherical Points       =            302
    Total Points           =         135900
    Total Blocks           =           1082
    Max Points             =            256
    Max Functions          =            344

   => Loading Basis Set <=

    Name: (AUG-CC-PV(Q+D)Z AUX)
    Role: JKFIT
    Keyword: DF_BASIS_SCF
    atoms 1      entry C          line   178 file /work/zw18965/.conda/envs/p4env/share/psi4/basis/aug-cc-pvqz-jkfit.gbs 
    atoms 2-4, 6 entry H          line    70 file /work/zw18965/.conda/envs/p4env/share/psi4/basis/aug-cc-pvqz-jkfit.gbs 
    atoms 5      entry O          line   318 file /work/zw18965/.conda/envs/p4env/share/psi4/basis/aug-cc-pvqz-jkfit.gbs 

  ==> Pre-Iterations <==

   -------------------------------------------------------
    Irrep   Nso     Nmo     Nalpha   Nbeta   Ndocc  Nsocc
   -------------------------------------------------------
     A'       206     206       0       0       0       0
     A"       138     138       0       0       0       0
   -------------------------------------------------------
    Total     344     344       9       9       9       0
   -------------------------------------------------------

  ==> Integral Setup <==

  ==> DiskDFJK: Density-Fitted J/K Matrices <==

    J tasked:                  Yes
    K tasked:                  Yes
    wK tasked:                 Yes
    Omega:               3.000E-01
    OpenMP threads:             24
    Integrals threads:          24
    Memory [MiB]:            99974
    Algorithm:                Core
    Integral Cache:           NONE
    Schwarz Cutoff:          1E-12
    Fitting Condition:       1E-10

   => Auxiliary Basis Set <=

  Basis Set: (AUG-CC-PV(Q+D)Z AUX)
    Blend: AUG-CC-PVQZ-JKFIT
    Number of shells: 140
    Number of basis function: 588
    Number of Cartesian functions: 800
    Spherical Harmonics?: true
    Max angular momentum: 5

  Cached 100.0% of DFT collocation blocks in 2.951 [GiB].

  Minimum eigenvalue in the overlap matrix is 1.6120334602E-05.
  Using Symmetric Orthogonalization.

  SCF Guess: Superposition of Atomic Densities via on-the-fly atomic UHF.

  ==> Iterations <==

                           Total Energy        Delta E     RMS |[F,P]|

   @DF-RKS iter SAD:  -115.11626351707554   -1.15116e+02   0.00000e+00 
   @DF-RKS iter   1:  -115.57765151999827   -4.61388e-01   2.36667e-03 DIIS
   @DF-RKS iter   2:  -115.60662023312706   -2.89687e-02   2.33140e-03 DIIS
   @DF-RKS iter   3:  -115.72240278207373   -1.15783e-01   2.65985e-04 DIIS
   @DF-RKS iter   4:  -115.72396960460721   -1.56682e-03   8.47197e-05 DIIS
   @DF-RKS iter   5:  -115.72417835820471   -2.08754e-04   1.57784e-05 DIIS
   @DF-RKS iter   6:  -115.72418805187667   -9.69367e-06   2.20716e-06 DIIS
   @DF-RKS iter   7:  -115.72418845912375   -4.07247e-07   4.16095e-07 DIIS
   @DF-RKS iter   8:  -115.72418847738632   -1.82626e-08   8.78293e-08 DIIS
   @DF-RKS iter   9:  -115.72418847818574   -7.99417e-10   2.03267e-08 DIIS
   @DF-RKS iter  10:  -115.72418847822597   -4.02309e-11   4.94028e-09 DIIS
  Energy and wave function converged.


  ==> Post-Iterations <==

    Orbital Energies [Eh]
    ---------------------

    Doubly Occupied:                                                      

       1Ap   -19.331957     2Ap   -10.381574     3Ap    -1.149955  
       4Ap    -0.803176     5Ap    -0.618373     1App   -0.549255  
       6Ap    -0.532601     7Ap    -0.444195     2App   -0.384758  

    Virtual:                                                              

       8Ap     0.010625     9Ap     0.026620     3App    0.033125  
      10Ap     0.037882    11Ap     0.071170    12Ap     0.081097  
       4App    0.094753    13Ap     0.102747    14Ap     0.116176  
      15Ap     0.124468     5App    0.126853    16Ap     0.149062  
       6App    0.150333    17Ap     0.194327    18Ap     0.196783  
       7App    0.213097    19Ap     0.216788     8App    0.228761  
      20Ap     0.234283    21Ap     0.240563     9App    0.249237  
      10App    0.255062    22Ap     0.255791    23Ap     0.286471  
      24Ap     0.301131    25Ap     0.316562    26Ap     0.324044  
      11App    0.328626    27Ap     0.329956    12App    0.331764  
      28Ap     0.336889    29Ap     0.358358    13App    0.368575  
      30Ap     0.378175    31Ap     0.468085    14App    0.487215  
      32Ap     0.501485    15App    0.514316    33Ap     0.516471  
      16App    0.543596    34Ap     0.549495    35Ap     0.558077  
      17App    0.576627    18App    0.617104    36Ap     0.625423  
      19App    0.631644    37Ap     0.635104    38Ap     0.640414  
      20App    0.654228    39Ap     0.661098    40Ap     0.676717  
      41Ap     0.688777    21App    0.690734    42Ap     0.712323  
      43Ap     0.729679    44Ap     0.737230    22App    0.746824  
      45Ap     0.763496    46Ap     0.767684    23App    0.784907  
      24App    0.801911    47Ap     0.809010    25App    0.810888  
      48Ap     0.832628    26App    0.840685    49Ap     0.858996  
      50Ap     0.895290    51Ap     0.930054    27App    0.935085  
      52Ap     0.956621    28App    0.995827    53Ap     1.005714  
      29App    1.032971    54Ap     1.038313    30App    1.065181  
      55Ap     1.067333    56Ap     1.087927    31App    1.094977  
      57Ap     1.104537    58Ap     1.107566    32App    1.109549  
      59Ap     1.190643    33App    1.238122    60Ap     1.280011  
      34App    1.290381    35App    1.342064    61Ap     1.349736  
      62Ap     1.360798    36App    1.374295    63Ap     1.414910  
      64Ap     1.449839    37App    1.460307    65Ap     1.466995  
      66Ap     1.510851    38App    1.537701    67Ap     1.545408  
      68Ap     1.553715    39App    1.587442    69Ap     1.621397  
      70Ap     1.663885    40App    1.666876    71Ap     1.673219  
      41App    1.691835    42App    1.717841    72Ap     1.719972  
      73Ap     1.744830    43App    1.757429    74Ap     1.783742  
      44App    1.792654    75Ap     1.805402    76Ap     1.827811  
      45App    1.830127    77Ap     1.843059    46App    1.860587  
      78Ap     1.874372    79Ap     1.893552    47App    1.919213  
      80Ap     1.924030    48App    1.947576    81Ap     1.947710  
      49App    1.990465    82Ap     1.990671    50App    2.000571  
      83Ap     2.014619    51App    2.019775    84Ap     2.025069  
      52App    2.032678    85Ap     2.074773    53App    2.082446  
      86Ap     2.100518    87Ap     2.119722    54App    2.131239  
      88Ap     2.137789    89Ap     2.152009    55App    2.217887  
      90Ap     2.233250    56App    2.316625    91Ap     2.333844  
      92Ap     2.361521    57App    2.417509    93Ap     2.424099  
      58App    2.426173    59App    2.490749    94Ap     2.506861  
      95Ap     2.537527    60App    2.576434    96Ap     2.581007  
      61App    2.589641    97Ap     2.595849    62App    2.612469  
      98Ap     2.663312    63App    2.668111    99Ap     2.721281  
     100Ap     2.755735    64App    2.792793   101Ap     2.805698  
     102Ap     2.844181    65App    2.858043   103Ap     2.871750  
     104Ap     2.939455   105Ap     3.015555    66App    3.035926  
      67App    3.054854   106Ap     3.069089    68App    3.115011  
     107Ap     3.133457   108Ap     3.152618    69App    3.310126  
     109Ap     3.389300   110Ap     3.410693    70App    3.450022  
     111Ap     3.455453    71App    3.489054   112Ap     3.526946  
      72App    3.554341   113Ap     3.585198   114Ap     3.656471  
      73App    3.677882   115Ap     3.709779    74App    3.711233  
     116Ap     3.759614   117Ap     3.845244    75App    3.845829  
     118Ap     3.853675   119Ap     3.858169    76App    3.894451  
      77App    3.915396   120Ap     3.941403    78App    3.982185  
     121Ap     4.048194   122Ap     4.074713   123Ap     4.149114  
      79App    4.163764    80App    4.193060   124Ap     4.222552  
     125Ap     4.284099    81App    4.284507   126Ap     4.334421  
     127Ap     4.392579    82App    4.443995   128Ap     4.468369  
      83App    4.475015   129Ap     4.544855   130Ap     4.577257  
      84App    4.629053   131Ap     4.657025    85App    4.688297  
     132Ap     4.810703    86App    4.822364   133Ap     4.867107  
     134Ap     4.936559    87App    4.995712   135Ap     5.048775  
      88App    5.079947    89App    5.156037   136Ap     5.168693  
     137Ap     5.325855   138Ap     5.455024    90App    5.560682  
     139Ap     5.691965   140Ap     5.811621    91App    5.878265  
      92App    5.917301   141Ap     6.007951    93App    6.134689  
     142Ap     6.168595   143Ap     6.225119    94App    6.365974  
     144Ap     6.387061   145Ap     6.406553    95App    6.485673  
      96App    6.527054    97App    6.538753   146Ap     6.590136  
     147Ap     6.632575    98App    6.636388   148Ap     6.689813  
      99App    6.699417   149Ap     6.815850   100App    6.816088  
     150Ap     6.844544   101App    6.973760   151Ap     7.018127  
     152Ap     7.101781   102App    7.109631   153Ap     7.199104  
     154Ap     7.244432   103App    7.254757   155Ap     7.268766  
     104App    7.323271   156Ap     7.462959   105App    7.508072  
     157Ap     7.560228   158Ap     7.592768   106App    7.608408  
     159Ap     7.635501   107App    7.662731   160Ap     7.700591  
     108App    7.849584   161Ap     7.896759   162Ap     7.997320  
     109App    8.052933   163Ap     8.064260   164Ap     8.108540  
     110App    8.186641   165Ap     8.292643   166Ap     8.343219  
     111App    8.353347   167Ap     8.399237   168Ap     8.483070  
     112App    8.495927   113App    8.514407   169Ap     8.570743  
     170Ap     8.616691   114App    8.760463   171Ap     8.807997  
     115App    8.818502   172Ap     8.836995   116App    8.838654  
     173Ap     8.868823   117App    9.012366   118App    9.076226  
     174Ap     9.084717   119App    9.213148   175Ap     9.230258  
     176Ap     9.298681   177Ap     9.326087   120App    9.348083  
     178Ap     9.412333   179Ap     9.545320   121App    9.549047  
     180Ap     9.657481   122App    9.660548   181Ap     9.729554  
     123App    9.754562   182Ap     9.961301   124App   10.009620  
     183Ap    10.060856   184Ap    10.113806   125App   10.255295  
     185Ap    10.337178   186Ap    10.508355   126App   10.536386  
     187Ap    10.581745   188Ap    10.687779   127App   10.757612  
     189Ap    10.759221   128App   10.849580   129App   10.965907  
     190Ap    11.014074   130App   11.032477   131App   11.296070  
     191Ap    11.337610   132App   11.469161   192Ap    11.590776  
     193Ap    11.699293   194Ap    11.957626   133App   11.981744  
     195Ap    12.113720   196Ap    12.419465   134App   12.481459  
     135App   12.500392   197Ap    12.569187   198Ap    12.753835  
     136App   12.792766   199Ap    13.050317   200Ap    13.152362  
     137App   13.248699   201Ap    13.590859   138App   14.240286  
     202Ap    14.425475   203Ap    14.595209   204Ap    16.778272  
     205Ap    28.342531   206Ap    44.531375  

    Final Occupation by Irrep:
             Ap   App 
    DOCC [     7,    2 ]

  @DF-RKS Final Energy:  -115.72418847822597

   => Energetics <=

    Nuclear Repulsion Energy =             40.3559994522682217
    One-Electron Energy =                -236.9912510551115474
    Two-Electron Energy =                  91.7440166276228979
    DFT Exchange-Correlation Energy =     -10.9065459459411898
    Empirical Dispersion Energy =           0.0000000000000000
    VV10 Nonlocal Energy =                  0.0735924429356416
    Total Energy =                       -115.7241884782259689

Computation Completed


Properties will be evaluated at   0.000000,   0.000000,   0.000000 [a0]

Properties computed using the SCF density matrix

  Nuclear Dipole Moment: [e a0]
     X:     0.6763      Y:     2.1839      Z:     0.0000

  Electronic Dipole Moment: [e a0]
     X:    -0.1435      Y:    -1.7995      Z:     0.0000

  Dipole Moment: [e a0]
     X:     0.5329      Y:     0.3844      Z:     0.0000     Total:     0.6571

  Dipole Moment: [D]
     X:     1.3544      Y:     0.9771      Z:     0.0000     Total:     1.6701


*** tstop() called on bp1-compute00149.data.bp.acrc.priv at Tue Apr 27 16:54:56 2021
Module time:
	user time   =     297.19 seconds =       4.95 minutes
	system time =      13.44 seconds =       0.22 minutes
	total time  =         14 seconds =       0.23 minutes
Total time:
	user time   =     297.19 seconds =       4.95 minutes
	system time =      13.44 seconds =       0.22 minutes
	total time  =         14 seconds =       0.23 minutes

  //>>>>>>>>>>>>>>>>>>>>>>>>>>>>>>>>>>>//
  //    Loading displacement 2 of 17   //
  //<<<<<<<<<<<<<<<<<<<<<<<<<<<<<<<<<<<//

*** tstart() called on bp1-compute00149.data.bp.acrc.priv
*** at Tue Apr 27 16:54:56 2021

   => Loading Basis Set <=

    Name: AUG-CC-PV(Q+D)Z
    Role: ORBITAL
    Keyword: BASIS
    atoms 1      entry C          line   319 file /work/zw18965/.conda/envs/p4env/share/psi4/basis/aug-cc-pv_qpd_z.gbs 
    atoms 2-4, 6 entry H          line    56 file /work/zw18965/.conda/envs/p4env/share/psi4/basis/aug-cc-pv_qpd_z.gbs 
    atoms 5      entry O          line   439 file /work/zw18965/.conda/envs/p4env/share/psi4/basis/aug-cc-pv_qpd_z.gbs 


         ---------------------------------------------------------
                                   SCF
               by Justin Turney, Rob Parrish, Andy Simmonett
                          and Daniel G. A. Smith
                              RKS Reference
                       24 Threads, 137329 MiB Core
         ---------------------------------------------------------

  ==> Geometry <==

    Molecular point group: cs
    Full point group: Cs

    Geometry (in Angstrom), charge = 0, multiplicity = 1:

       Center              X                  Y                   Z               Mass       
    ------------   -----------------  -----------------  -----------------  -----------------
         C           -0.030311351757     0.726913404475     0.000000000000    12.000000000000
         H           -1.071592103061     1.036871469113     0.000000000000     1.007825032230
         H            0.453591872101     1.139875637169     0.889854379100     1.007825032230
         H            0.453591872101     1.139875637169    -0.889854379100     1.007825032230
         O           -0.022933434081    -0.692339784955     0.000000000000    15.994914619570
         H            0.889290672523    -0.983921312937     0.000000000000     1.007825032230

  Running in cs symmetry.

  Rotational constants: A =      4.29272  B =      0.82881  C =      0.79991 [cm^-1]
  Rotational constants: A = 128692.58843  B =  24847.16735  C =  23980.73083 [MHz]
  Nuclear repulsion =   40.355686796729060

  Charge       = 0
  Multiplicity = 1
  Electrons    = 18
  Nalpha       = 9
  Nbeta        = 9

  ==> Algorithm <==

  SCF Algorithm Type is DF.
  DIIS enabled.
  MOM disabled.
  Fractional occupation disabled.
  Guess Type is SAD.
  Energy threshold   = 1.00e-08
  Density threshold  = 1.00e-08
  Integral threshold = 0.00e+00

  ==> Primary Basis <==

  Basis Set: AUG-CC-PV(Q+D)Z
    Blend: AUG-CC-PV(Q+D)Z
    Number of shells: 96
    Number of basis function: 344
    Number of Cartesian functions: 430
    Spherical Harmonics?: true
    Max angular momentum: 4

  ==> DFT Potential <==

   => Composite Functional: WB97M-V <= 

    wB97M-V Hyb-GGA Exchange-Correlation Functional

    N. Mardirossian and M. Head-Gordon, J. Chem. Phys. 144, 214110 (2016)

    Deriv               =              1
    GGA                 =           TRUE
    Meta                =           TRUE

    Exchange Hybrid     =           TRUE
    MP2 Hybrid          =          FALSE

   => Exchange-Correlation Functionals <=

    1.0000   wB97M-V exchange-correlation functional

   => Exact (HF) Exchange <=

    0.8500            HF,LR [omega = 0.3000]
    0.1500               HF 

   => VV10 Non-Local Parameters <=

    VV10 B              =     6.0000E+00
    VV10 C              =     1.0000E-02

   => Molecular Quadrature <=

    Radial Scheme          =       TREUTLER
    Pruning Scheme         =           FLAT
    Nuclear Scheme         =       TREUTLER

    BS radius alpha        =              1
    Pruning alpha          =              1
    Radial Points          =             75
    Spherical Points       =            302
    Total Points           =         135900
    Total Blocks           =           1079
    Max Points             =            256
    Max Functions          =            344

   => Loading Basis Set <=

    Name: (AUG-CC-PV(Q+D)Z AUX)
    Role: JKFIT
    Keyword: DF_BASIS_SCF
    atoms 1      entry C          line   178 file /work/zw18965/.conda/envs/p4env/share/psi4/basis/aug-cc-pvqz-jkfit.gbs 
    atoms 2-4, 6 entry H          line    70 file /work/zw18965/.conda/envs/p4env/share/psi4/basis/aug-cc-pvqz-jkfit.gbs 
    atoms 5      entry O          line   318 file /work/zw18965/.conda/envs/p4env/share/psi4/basis/aug-cc-pvqz-jkfit.gbs 

  ==> Pre-Iterations <==

   -------------------------------------------------------
    Irrep   Nso     Nmo     Nalpha   Nbeta   Ndocc  Nsocc
   -------------------------------------------------------
     A'       206     206       0       0       0       0
     A"       138     138       0       0       0       0
   -------------------------------------------------------
    Total     344     344       9       9       9       0
   -------------------------------------------------------

  ==> Integral Setup <==

  ==> DiskDFJK: Density-Fitted J/K Matrices <==

    J tasked:                  Yes
    K tasked:                  Yes
    wK tasked:                 Yes
    Omega:               3.000E-01
    OpenMP threads:             24
    Integrals threads:          24
    Memory [MiB]:            99974
    Algorithm:                Core
    Integral Cache:           NONE
    Schwarz Cutoff:          1E-12
    Fitting Condition:       1E-10

   => Auxiliary Basis Set <=

  Basis Set: (AUG-CC-PV(Q+D)Z AUX)
    Blend: AUG-CC-PVQZ-JKFIT
    Number of shells: 140
    Number of basis function: 588
    Number of Cartesian functions: 800
    Spherical Harmonics?: true
    Max angular momentum: 5

  Cached 100.0% of DFT collocation blocks in 2.951 [GiB].

  Minimum eigenvalue in the overlap matrix is 1.6126368291E-05.
  Using Symmetric Orthogonalization.

  SCF Guess: Superposition of Atomic Densities via on-the-fly atomic UHF.

  ==> Iterations <==

                           Total Energy        Delta E     RMS |[F,P]|

   @DF-RKS iter SAD:  -115.11618417517921   -1.15116e+02   0.00000e+00 
   @DF-RKS iter   1:  -115.57762371287657   -4.61440e-01   2.36693e-03 DIIS
   @DF-RKS iter   2:  -115.60656333958224   -2.89396e-02   2.33191e-03 DIIS
   @DF-RKS iter   3:  -115.72240433551566   -1.15841e-01   2.65970e-04 DIIS
   @DF-RKS iter   4:  -115.72397102537546   -1.56669e-03   8.47180e-05 DIIS
   @DF-RKS iter   5:  -115.72417979070626   -2.08765e-04   1.57769e-05 DIIS
   @DF-RKS iter   6:  -115.72418948460864   -9.69390e-06   2.20832e-06 DIIS
   @DF-RKS iter   7:  -115.72418989220640   -4.07598e-07   4.16309e-07 DIIS
   @DF-RKS iter   8:  -115.72418991049375   -1.82874e-08   8.78969e-08 DIIS
   @DF-RKS iter   9:  -115.72418991129433   -8.00583e-10   2.03351e-08 DIIS
   @DF-RKS iter  10:  -115.72418991133472   -4.03872e-11   4.94074e-09 DIIS
  Energy and wave function converged.


  ==> Post-Iterations <==

    Orbital Energies [Eh]
    ---------------------

    Doubly Occupied:                                                      

       1Ap   -19.331923     2Ap   -10.381586     3Ap    -1.149913  
       4Ap    -0.803219     5Ap    -0.618355     1App   -0.549040  
       6Ap    -0.532868     7Ap    -0.444245     2App   -0.384650  

    Virtual:                                                              

       8Ap     0.010625     9Ap     0.026617     3App    0.033135  
      10Ap     0.037871    11Ap     0.071165    12Ap     0.081138  
       4App    0.094709    13Ap     0.102752    14Ap     0.116188  
      15Ap     0.124461     5App    0.126824    16Ap     0.149077  
       6App    0.150330    17Ap     0.194307    18Ap     0.196793  
       7App    0.213134    19Ap     0.216772     8App    0.228753  
      20Ap     0.234328    21Ap     0.240603     9App    0.249238  
      10App    0.254986    22Ap     0.255831    23Ap     0.286451  
      24Ap     0.301121    25Ap     0.316662    26Ap     0.324125  
      11App    0.328453    27Ap     0.329964    12App    0.331698  
      28Ap     0.336981    29Ap     0.358353    13App    0.368553  
      30Ap     0.378167    31Ap     0.468125    14App    0.487270  
      32Ap     0.501433    15App    0.514394    33Ap     0.516386  
      16App    0.543547    34Ap     0.549539    35Ap     0.558142  
      17App    0.576627    18App    0.617142    36Ap     0.625468  
      19App    0.631632    37Ap     0.635089    38Ap     0.640359  
      20App    0.654256    39Ap     0.661145    40Ap     0.676701  
      41Ap     0.688867    21App    0.690556    42Ap     0.712281  
      43Ap     0.729697    44Ap     0.737238    22App    0.746697  
      45Ap     0.763521    46Ap     0.767726    23App    0.785015  
      24App    0.801853    47Ap     0.808862    25App    0.811000  
      48Ap     0.832504    26App    0.840721    49Ap     0.858943  
      50Ap     0.895385    51Ap     0.930046    27App    0.935137  
      52Ap     0.956548    28App    0.995875    53Ap     1.005757  
      29App    1.032897    54Ap     1.038340    30App    1.065152  
      55Ap     1.067537    56Ap     1.087774    31App    1.094989  
      57Ap     1.104589    58Ap     1.107716    32App    1.109436  
      59Ap     1.190697    33App    1.238035    60Ap     1.280043  
      34App    1.290264    35App    1.341898    61Ap     1.350070  
      62Ap     1.360786    36App    1.373896    63Ap     1.414919  
      64Ap     1.450078    37App    1.460069    65Ap     1.466991  
      66Ap     1.510792    38App    1.537746    67Ap     1.545489  
      68Ap     1.553846    39App    1.587408    69Ap     1.621521  
      70Ap     1.663952    40App    1.667033    71Ap     1.673384  
      41App    1.691709    42App    1.717889    72Ap     1.719733  
      73Ap     1.744293    43App    1.757647    74Ap     1.783686  
      44App    1.792813    75Ap     1.805115    76Ap     1.827621  
      45App    1.830050    77Ap     1.843025    46App    1.860370  
      78Ap     1.874393    79Ap     1.893361    47App    1.919296  
      80Ap     1.924361    48App    1.947437    81Ap     1.947827  
      49App    1.990433    82Ap     1.990954    50App    2.000494  
      83Ap     2.014719    51App    2.019731    84Ap     2.024761  
      52App    2.033017    85Ap     2.075001    53App    2.082523  
      86Ap     2.100700    87Ap     2.119454    54App    2.131260  
      88Ap     2.137571    89Ap     2.152040    55App    2.217800  
      90Ap     2.233435    56App    2.316511    91Ap     2.334164  
      92Ap     2.361630    57App    2.417376    93Ap     2.424012  
      58App    2.426669    59App    2.490554    94Ap     2.506952  
      95Ap     2.537194    60App    2.576283    96Ap     2.581143  
      61App    2.589209    97Ap     2.595944    62App    2.612205  
      98Ap     2.663281    63App    2.667871    99Ap     2.721427  
     100Ap     2.755949    64App    2.792717   101Ap     2.805557  
     102Ap     2.844272    65App    2.857654   103Ap     2.872002  
     104Ap     2.939546   105Ap     3.015661    66App    3.035799  
      67App    3.054700   106Ap     3.069044    68App    3.115227  
     107Ap     3.134050   108Ap     3.152631    69App    3.309851  
     109Ap     3.389311   110Ap     3.410408    70App    3.449964  
     111Ap     3.455599    71App    3.488629   112Ap     3.527451  
      72App    3.554516   113Ap     3.585252   114Ap     3.656518  
      73App    3.677108   115Ap     3.709682    74App    3.711185  
     116Ap     3.759848   117Ap     3.844784    75App    3.846129  
     118Ap     3.854226   119Ap     3.858408    76App    3.894523  
      77App    3.914517   120Ap     3.941941    78App    3.982191  
     121Ap     4.048451   122Ap     4.074500   123Ap     4.149284  
      79App    4.164286    80App    4.193043   124Ap     4.221928  
     125Ap     4.283939    81App    4.284732   126Ap     4.334452  
     127Ap     4.392909    82App    4.443568   128Ap     4.468760  
      83App    4.474902   129Ap     4.544416   130Ap     4.577310  
      84App    4.629380   131Ap     4.657125    85App    4.688504  
     132Ap     4.810610    86App    4.821823   133Ap     4.866848  
     134Ap     4.937032    87App    4.995852   135Ap     5.048739  
      88App    5.079764    89App    5.155896   136Ap     5.167990  
     137Ap     5.326361   138Ap     5.455036    90App    5.560727  
     139Ap     5.692090   140Ap     5.811952    91App    5.877443  
      92App    5.918187   141Ap     6.008538    93App    6.133808  
     142Ap     6.169085   143Ap     6.224807    94App    6.366201  
     144Ap     6.387138   145Ap     6.405947    95App    6.485596  
      96App    6.527130    97App    6.538697   146Ap     6.591075  
     147Ap     6.632839    98App    6.634673   148Ap     6.690409  
      99App    6.699154   100App    6.815415   149Ap     6.816248  
     150Ap     6.844481   101App    6.975512   151Ap     7.018315  
     152Ap     7.102076   102App    7.109493   153Ap     7.199387  
     154Ap     7.244717   103App    7.254577   155Ap     7.268916  
     104App    7.322979   156Ap     7.463060   105App    7.508005  
     157Ap     7.560626   158Ap     7.593231   106App    7.607366  
     159Ap     7.634979   107App    7.662653   160Ap     7.700740  
     108App    7.849866   161Ap     7.897382   162Ap     7.996303  
     109App    8.052842   163Ap     8.063970   164Ap     8.109062  
     110App    8.185656   165Ap     8.293654   166Ap     8.343625  
     111App    8.353144   167Ap     8.399225   168Ap     8.483076  
     112App    8.495272   113App    8.514817   169Ap     8.570973  
     170Ap     8.617350   114App    8.760826   171Ap     8.808443  
     115App    8.817780   116App    8.837952   172Ap     8.838297  
     173Ap     8.868377   117App    9.012238   118App    9.076431  
     174Ap     9.085270   119App    9.213252   175Ap     9.230237  
     176Ap     9.298655   177Ap     9.326795   120App    9.349176  
     178Ap     9.411602   179Ap     9.544933   121App    9.549011  
     180Ap     9.658227   122App    9.660667   181Ap     9.729923  
     123App    9.754853   182Ap     9.960391   124App   10.010522  
     183Ap    10.060184   184Ap    10.113929   125App   10.252864  
     185Ap    10.337424   186Ap    10.510071   126App   10.535676  
     187Ap    10.583547   188Ap    10.688545   127App   10.756734  
     189Ap    10.759407   128App   10.849216   129App   10.967207  
     190Ap    11.013565   130App   11.032318   131App   11.295608  
     191Ap    11.338397   132App   11.468919   192Ap    11.591074  
     193Ap    11.699106   194Ap    11.957450   133App   11.981677  
     195Ap    12.113442   196Ap    12.419246   134App   12.480417  
     135App   12.497196   197Ap    12.573534   198Ap    12.754957  
     136App   12.791921   199Ap    13.050546   200Ap    13.153065  
     137App   13.248061   201Ap    13.590794   138App   14.240306  
     202Ap    14.425820   203Ap    14.595321   204Ap    16.778420  
     205Ap    28.343488   206Ap    44.530895  

    Final Occupation by Irrep:
             Ap   App 
    DOCC [     7,    2 ]

  @DF-RKS Final Energy:  -115.72418991133472

   => Energetics <=

    Nuclear Repulsion Energy =             40.3556867967290600
    One-Electron Energy =                -236.9907078678369317
    Two-Electron Energy =                  91.7438017116917308
    DFT Exchange-Correlation Energy =     -10.9065632189015282
    Empirical Dispersion Energy =           0.0000000000000000
    VV10 Nonlocal Energy =                  0.0735926669829512
    Total Energy =                       -115.7241899113347188

Computation Completed


Properties will be evaluated at   0.000000,   0.000000,   0.000000 [a0]

Properties computed using the SCF density matrix

  Nuclear Dipole Moment: [e a0]
     X:     0.6794      Y:     2.1835      Z:     0.0000

  Electronic Dipole Moment: [e a0]
     X:    -0.1470      Y:    -1.7993      Z:     0.0000

  Dipole Moment: [e a0]
     X:     0.5324      Y:     0.3842      Z:     0.0000     Total:     0.6566

  Dipole Moment: [D]
     X:     1.3533      Y:     0.9765      Z:     0.0000     Total:     1.6689


*** tstop() called on bp1-compute00149.data.bp.acrc.priv at Tue Apr 27 16:55:09 2021
Module time:
	user time   =     290.23 seconds =       4.84 minutes
	system time =       8.67 seconds =       0.14 minutes
	total time  =         13 seconds =       0.22 minutes
Total time:
	user time   =     587.62 seconds =       9.79 minutes
	system time =      22.12 seconds =       0.37 minutes
	total time  =         27 seconds =       0.45 minutes

  //>>>>>>>>>>>>>>>>>>>>>>>>>>>>>>>>>>>//
  //    Loading displacement 3 of 17   //
  //<<<<<<<<<<<<<<<<<<<<<<<<<<<<<<<<<<<//

*** tstart() called on bp1-compute00149.data.bp.acrc.priv
*** at Tue Apr 27 16:55:09 2021

   => Loading Basis Set <=

    Name: AUG-CC-PV(Q+D)Z
    Role: ORBITAL
    Keyword: BASIS
    atoms 1      entry C          line   319 file /work/zw18965/.conda/envs/p4env/share/psi4/basis/aug-cc-pv_qpd_z.gbs 
    atoms 2-4, 6 entry H          line    56 file /work/zw18965/.conda/envs/p4env/share/psi4/basis/aug-cc-pv_qpd_z.gbs 
    atoms 5      entry O          line   439 file /work/zw18965/.conda/envs/p4env/share/psi4/basis/aug-cc-pv_qpd_z.gbs 


         ---------------------------------------------------------
                                   SCF
               by Justin Turney, Rob Parrish, Andy Simmonett
                          and Daniel G. A. Smith
                              RKS Reference
                       24 Threads, 137329 MiB Core
         ---------------------------------------------------------

  ==> Geometry <==

    Molecular point group: cs
    Full point group: Cs

    Geometry (in Angstrom), charge = 0, multiplicity = 1:

       Center              X                  Y                   Z               Mass       
    ------------   -----------------  -----------------  -----------------  -----------------
         C           -0.029441250884     0.726880238143     0.000000000000    12.000000000000
         H           -1.073747405379     1.035680675105     0.000000000000     1.007825032230
         H            0.451321282858     1.140377919049     0.889854379100     1.007825032230
         H            0.451321282858     1.140377919049    -0.889854379100     1.007825032230
         O           -0.023169748160    -0.692365375027     0.000000000000    15.994914619570
         H            0.889377487236    -0.982934043845     0.000000000000     1.007825032230

  Running in cs symmetry.

  Rotational constants: A =      4.29180  B =      0.82892  C =      0.79998 [cm^-1]
  Rotational constants: A = 128665.02123  B =  24850.54490  C =  23982.91928 [MHz]
  Nuclear repulsion =   40.356304923243833

  Charge       = 0
  Multiplicity = 1
  Electrons    = 18
  Nalpha       = 9
  Nbeta        = 9

  ==> Algorithm <==

  SCF Algorithm Type is DF.
  DIIS enabled.
  MOM disabled.
  Fractional occupation disabled.
  Guess Type is SAD.
  Energy threshold   = 1.00e-08
  Density threshold  = 1.00e-08
  Integral threshold = 0.00e+00

  ==> Primary Basis <==

  Basis Set: AUG-CC-PV(Q+D)Z
    Blend: AUG-CC-PV(Q+D)Z
    Number of shells: 96
    Number of basis function: 344
    Number of Cartesian functions: 430
    Spherical Harmonics?: true
    Max angular momentum: 4

  ==> DFT Potential <==

   => Composite Functional: WB97M-V <= 

    wB97M-V Hyb-GGA Exchange-Correlation Functional

    N. Mardirossian and M. Head-Gordon, J. Chem. Phys. 144, 214110 (2016)

    Deriv               =              1
    GGA                 =           TRUE
    Meta                =           TRUE

    Exchange Hybrid     =           TRUE
    MP2 Hybrid          =          FALSE

   => Exchange-Correlation Functionals <=

    1.0000   wB97M-V exchange-correlation functional

   => Exact (HF) Exchange <=

    0.8500            HF,LR [omega = 0.3000]
    0.1500               HF 

   => VV10 Non-Local Parameters <=

    VV10 B              =     6.0000E+00
    VV10 C              =     1.0000E-02

   => Molecular Quadrature <=

    Radial Scheme          =       TREUTLER
    Pruning Scheme         =           FLAT
    Nuclear Scheme         =       TREUTLER

    BS radius alpha        =              1
    Pruning alpha          =              1
    Radial Points          =             75
    Spherical Points       =            302
    Total Points           =         135900
    Total Blocks           =           1083
    Max Points             =            256
    Max Functions          =            344

   => Loading Basis Set <=

    Name: (AUG-CC-PV(Q+D)Z AUX)
    Role: JKFIT
    Keyword: DF_BASIS_SCF
    atoms 1      entry C          line   178 file /work/zw18965/.conda/envs/p4env/share/psi4/basis/aug-cc-pvqz-jkfit.gbs 
    atoms 2-4, 6 entry H          line    70 file /work/zw18965/.conda/envs/p4env/share/psi4/basis/aug-cc-pvqz-jkfit.gbs 
    atoms 5      entry O          line   318 file /work/zw18965/.conda/envs/p4env/share/psi4/basis/aug-cc-pvqz-jkfit.gbs 

  ==> Pre-Iterations <==

   -------------------------------------------------------
    Irrep   Nso     Nmo     Nalpha   Nbeta   Ndocc  Nsocc
   -------------------------------------------------------
     A'       206     206       0       0       0       0
     A"       138     138       0       0       0       0
   -------------------------------------------------------
    Total     344     344       9       9       9       0
   -------------------------------------------------------

  ==> Integral Setup <==

  ==> DiskDFJK: Density-Fitted J/K Matrices <==

    J tasked:                  Yes
    K tasked:                  Yes
    wK tasked:                 Yes
    Omega:               3.000E-01
    OpenMP threads:             24
    Integrals threads:          24
    Memory [MiB]:            99974
    Algorithm:                Core
    Integral Cache:           NONE
    Schwarz Cutoff:          1E-12
    Fitting Condition:       1E-10

   => Auxiliary Basis Set <=

  Basis Set: (AUG-CC-PV(Q+D)Z AUX)
    Blend: AUG-CC-PVQZ-JKFIT
    Number of shells: 140
    Number of basis function: 588
    Number of Cartesian functions: 800
    Spherical Harmonics?: true
    Max angular momentum: 5

  Cached 100.0% of DFT collocation blocks in 2.951 [GiB].

  Minimum eigenvalue in the overlap matrix is 1.6113991517E-05.
  Using Symmetric Orthogonalization.

  SCF Guess: Superposition of Atomic Densities via on-the-fly atomic UHF.

  ==> Iterations <==

                           Total Energy        Delta E     RMS |[F,P]|

   @DF-RKS iter SAD:  -115.11633925361039   -1.15116e+02   0.00000e+00 
   @DF-RKS iter   1:  -115.57767470492344   -4.61335e-01   2.36642e-03 DIIS
   @DF-RKS iter   2:  -115.60667264186046   -2.89979e-02   2.33088e-03 DIIS
   @DF-RKS iter   3:  -115.72239731921468   -1.15725e-01   2.66000e-04 DIIS
   @DF-RKS iter   4:  -115.72396427731208   -1.56696e-03   8.47221e-05 DIIS
   @DF-RKS iter   5:  -115.72417302309711   -2.08746e-04   1.57800e-05 DIIS
   @DF-RKS iter   6:  -115.72418271685450   -9.69376e-06   2.20604e-06 DIIS
   @DF-RKS iter   7:  -115.72418312377719   -4.06923e-07   4.15896e-07 DIIS
   @DF-RKS iter   8:  -115.72418314201546   -1.82383e-08   8.77655e-08 DIIS
   @DF-RKS iter   9:  -115.72418314281397   -7.98508e-10   2.03193e-08 DIIS
   @DF-RKS iter  10:  -115.72418314285434   -4.03730e-11   4.94002e-09 DIIS
  Energy and wave function converged.


  ==> Post-Iterations <==

    Orbital Energies [Eh]
    ---------------------

    Doubly Occupied:                                                      

       1Ap   -19.331991     2Ap   -10.381564     3Ap    -1.149998  
       4Ap    -0.803134     5Ap    -0.618390     1App   -0.549470  
       6Ap    -0.532336     7Ap    -0.444143     2App   -0.384865  

    Virtual:                                                              

       8Ap     0.010626     9Ap     0.026623     3App    0.033116  
      10Ap     0.037892    11Ap     0.071174    12Ap     0.081055  
       4App    0.094796    13Ap     0.102743    14Ap     0.116165  
      15Ap     0.124475     5App    0.126882    16Ap     0.149047  
       6App    0.150336    17Ap     0.194346    18Ap     0.196773  
       7App    0.213060    19Ap     0.216803     8App    0.228769  
      20Ap     0.234238    21Ap     0.240525     9App    0.249237  
      10App    0.255138    22Ap     0.255750    23Ap     0.286490  
      24Ap     0.301140    25Ap     0.316459    26Ap     0.323965  
      11App    0.328797    27Ap     0.329947    12App    0.331830  
      28Ap     0.336798    29Ap     0.358362    13App    0.368597  
      30Ap     0.378184    31Ap     0.468044    14App    0.487159  
      32Ap     0.501537    15App    0.514238    33Ap     0.516555  
      16App    0.543645    34Ap     0.549451    35Ap     0.558013  
      17App    0.576627    18App    0.617065    36Ap     0.625376  
      19App    0.631657    37Ap     0.635116    38Ap     0.640470  
      20App    0.654200    39Ap     0.661052    40Ap     0.676732  
      41Ap     0.688688    21App    0.690913    42Ap     0.712367  
      43Ap     0.729661    44Ap     0.737223    22App    0.746951  
      45Ap     0.763470    46Ap     0.767641    23App    0.784799  
      24App    0.801969    47Ap     0.809158    25App    0.810777  
      48Ap     0.832753    26App    0.840650    49Ap     0.859049  
      50Ap     0.895196    51Ap     0.930062    27App    0.935033  
      52Ap     0.956693    28App    0.995780    53Ap     1.005669  
      29App    1.033046    54Ap     1.038285    30App    1.065210  
      55Ap     1.067131    56Ap     1.088079    31App    1.094963  
      57Ap     1.104483    58Ap     1.107420    32App    1.109665  
      59Ap     1.190589    33App    1.238209    60Ap     1.279977  
      34App    1.290496    35App    1.342230    61Ap     1.349384  
      62Ap     1.360827    36App    1.374696    63Ap     1.414899  
      64Ap     1.449600    37App    1.460543    65Ap     1.466999  
      66Ap     1.510908    38App    1.537652    67Ap     1.545322  
      68Ap     1.553586    39App    1.587476    69Ap     1.621273  
      70Ap     1.663807    40App    1.666720    71Ap     1.673064  
      41App    1.691961    42App    1.717791    72Ap     1.720208  
      73Ap     1.745365    43App    1.757210    74Ap     1.783790  
      44App    1.792495    75Ap     1.805690    76Ap     1.828003  
      45App    1.830199    77Ap     1.843097    46App    1.860805  
      78Ap     1.874350    79Ap     1.893744    47App    1.919128  
      80Ap     1.923697    81Ap     1.947597    48App    1.947720  
      82Ap     1.990379    49App    1.990494    50App    2.000648  
      83Ap     2.014517    51App    2.019817    84Ap     2.025378  
      52App    2.032344    85Ap     2.074541    53App    2.082369  
      86Ap     2.100332    87Ap     2.120001    54App    2.131219  
      88Ap     2.138002    89Ap     2.151985    55App    2.217976  
      90Ap     2.233065    56App    2.316738    91Ap     2.333517  
      92Ap     2.361416    57App    2.417638    93Ap     2.424179  
      58App    2.425676    59App    2.490943    94Ap     2.506764  
      95Ap     2.537869    60App    2.576585    96Ap     2.580864  
      61App    2.590074    97Ap     2.595763    62App    2.612736  
      98Ap     2.663344    63App    2.668351    99Ap     2.721137  
     100Ap     2.755517    64App    2.792869   101Ap     2.805836  
     102Ap     2.844090    65App    2.858432   103Ap     2.871495  
     104Ap     2.939355   105Ap     3.015449    66App    3.036042  
      67App    3.055015   106Ap     3.069139    68App    3.114795  
     107Ap     3.132861   108Ap     3.152605    69App    3.310391  
     109Ap     3.389274   110Ap     3.410980    70App    3.450079  
     111Ap     3.455306    71App    3.489480   112Ap     3.526441  
      72App    3.554167   113Ap     3.585137   114Ap     3.656419  
      73App    3.678651   115Ap     3.709887    74App    3.711283  
     116Ap     3.759372    75App    3.845528   117Ap     3.845692  
     118Ap     3.853128   119Ap     3.857932    76App    3.894379  
      77App    3.916277   120Ap     3.940865    78App    3.982181  
     121Ap     4.047931   122Ap     4.074933   123Ap     4.148940  
      79App    4.163233    80App    4.193077   124Ap     4.223174  
     125Ap     4.284258    81App    4.284282   126Ap     4.334392  
     127Ap     4.392245    82App    4.444397   128Ap     4.467981  
      83App    4.475143   129Ap     4.545288   130Ap     4.577206  
      84App    4.628721   131Ap     4.656933    85App    4.688087  
     132Ap     4.810799    86App    4.822910   133Ap     4.867370  
     134Ap     4.936080    87App    4.995569   135Ap     5.048814  
      88App    5.080133    89App    5.156177   136Ap     5.169383  
     137Ap     5.325356   138Ap     5.455019    90App    5.560638  
     139Ap     5.691834   140Ap     5.811293    91App    5.879080  
      92App    5.916437   141Ap     6.007358    93App    6.135574  
     142Ap     6.168097   143Ap     6.225440    94App    6.365731  
     144Ap     6.386979   145Ap     6.407157    95App    6.485744  
      96App    6.526959    97App    6.538824   146Ap     6.589152  
     147Ap     6.632292    98App    6.638096   148Ap     6.689260  
      99App    6.699693   149Ap     6.815448   100App    6.816764  
     150Ap     6.844611   101App    6.972009   151Ap     7.017937  
     152Ap     7.101481   102App    7.109762   153Ap     7.198793  
     154Ap     7.244055   103App    7.254939   155Ap     7.268694  
     104App    7.323560   156Ap     7.462888   105App    7.508131  
     157Ap     7.559777   158Ap     7.592348   106App    7.609479  
     159Ap     7.636027   107App    7.662811   160Ap     7.700442  
     108App    7.849298   161Ap     7.896141   162Ap     7.998330  
     109App    8.052991   163Ap     8.064532   164Ap     8.108022  
     110App    8.187646   165Ap     8.291612   166Ap     8.342835  
     111App    8.353562   167Ap     8.399261   168Ap     8.483055  
     112App    8.496560   113App    8.514004   169Ap     8.570506  
     170Ap     8.616039   114App    8.760095   171Ap     8.807532  
     115App    8.819149   172Ap     8.835684   116App    8.839414  
     173Ap     8.869270   117App    9.012491   118App    9.075954  
     174Ap     9.084125   119App    9.213095   175Ap     9.230285  
     176Ap     9.298649   177Ap     9.325453   120App    9.346970  
     178Ap     9.413008   179Ap     9.545756   121App    9.549087  
     180Ap     9.656696   122App    9.660432   181Ap     9.729247  
     123App    9.754273   182Ap     9.962190   124App   10.008705  
     183Ap    10.061513   184Ap    10.113699   125App   10.257717  
     185Ap    10.336963   186Ap    10.506602   126App   10.537099  
     187Ap    10.579991   188Ap    10.687056   127App   10.758488  
     189Ap    10.759044   128App   10.849942   129App   10.964641  
     190Ap    11.014590   130App   11.032645   131App   11.296529  
     191Ap    11.336828   132App   11.469406   192Ap    11.590484  
     193Ap    11.699481   194Ap    11.957802   133App   11.981805  
     195Ap    12.113995   196Ap    12.419657   134App   12.482009  
     135App   12.504067   197Ap    12.564608   198Ap    12.752869  
     136App   12.793621   199Ap    13.050110   200Ap    13.151678  
     137App   13.249332   201Ap    13.590922   138App   14.240263  
     202Ap    14.425128   203Ap    14.595100   204Ap    16.778122  
     205Ap    28.341512   206Ap    44.531845  

    Final Occupation by Irrep:
             Ap   App 
    DOCC [     7,    2 ]

  @DF-RKS Final Energy:  -115.72418314285434

   => Energetics <=

    Nuclear Repulsion Energy =             40.3563049232438331
    One-Electron Energy =                -236.9917694816648464
    Two-Electron Energy =                  91.7442172385760273
    DFT Exchange-Correlation Energy =     -10.9065280395313096
    Empirical Dispersion Energy =           0.0000000000000000
    VV10 Nonlocal Energy =                  0.0735922165219468
    Total Energy =                       -115.7241831428543435

Computation Completed


Properties will be evaluated at   0.000000,   0.000000,   0.000000 [a0]

Properties computed using the SCF density matrix

  Nuclear Dipole Moment: [e a0]
     X:     0.6732      Y:     2.1843      Z:     0.0000

  Electronic Dipole Moment: [e a0]
     X:    -0.1400      Y:    -1.7996      Z:     0.0000

  Dipole Moment: [e a0]
     X:     0.5333      Y:     0.3846      Z:     0.0000     Total:     0.6575

  Dipole Moment: [D]
     X:     1.3555      Y:     0.9777      Z:     0.0000     Total:     1.6713


*** tstop() called on bp1-compute00149.data.bp.acrc.priv at Tue Apr 27 16:55:21 2021
Module time:
	user time   =     270.80 seconds =       4.51 minutes
	system time =       6.17 seconds =       0.10 minutes
	total time  =         12 seconds =       0.20 minutes
Total time:
	user time   =     858.58 seconds =      14.31 minutes
	system time =      28.30 seconds =       0.47 minutes
	total time  =         39 seconds =       0.65 minutes

  //>>>>>>>>>>>>>>>>>>>>>>>>>>>>>>>>>>>//
  //    Loading displacement 4 of 17   //
  //<<<<<<<<<<<<<<<<<<<<<<<<<<<<<<<<<<<//

*** tstart() called on bp1-compute00149.data.bp.acrc.priv
*** at Tue Apr 27 16:55:21 2021

   => Loading Basis Set <=

    Name: AUG-CC-PV(Q+D)Z
    Role: ORBITAL
    Keyword: BASIS
    atoms 1      entry C          line   319 file /work/zw18965/.conda/envs/p4env/share/psi4/basis/aug-cc-pv_qpd_z.gbs 
    atoms 2-4, 6 entry H          line    56 file /work/zw18965/.conda/envs/p4env/share/psi4/basis/aug-cc-pv_qpd_z.gbs 
    atoms 5      entry O          line   439 file /work/zw18965/.conda/envs/p4env/share/psi4/basis/aug-cc-pv_qpd_z.gbs 


         ---------------------------------------------------------
                                   SCF
               by Justin Turney, Rob Parrish, Andy Simmonett
                          and Daniel G. A. Smith
                              RKS Reference
                       24 Threads, 137329 MiB Core
         ---------------------------------------------------------

  ==> Geometry <==

    Molecular point group: cs
    Full point group: Cs

    Geometry (in Angstrom), charge = 0, multiplicity = 1:

       Center              X                  Y                   Z               Mass       
    ------------   -----------------  -----------------  -----------------  -----------------
         C           -0.029876301320     0.726293308246     0.000000000000    12.000000000000
         H           -1.072623100720     1.036672274162     0.000000000000     1.007825032230
         H            0.452506522770     1.140474637730     0.889854379100     1.007825032230
         H            0.452506522770     1.140474637730    -0.889854379100     1.007825032230
         O           -0.023059730532    -0.691989648031     0.000000000000    15.994914619570
         H            0.889316714165    -0.983093666620     0.000000000000     1.007825032230

  Running in cs symmetry.

  Rotational constants: A =      4.29230  B =      0.82955  C =      0.80059 [cm^-1]
  Rotational constants: A = 128679.96076  B =  24869.40166  C =  24001.00162 [MHz]
  Nuclear repulsion =   40.366224870101988

  Charge       = 0
  Multiplicity = 1
  Electrons    = 18
  Nalpha       = 9
  Nbeta        = 9

  ==> Algorithm <==

  SCF Algorithm Type is DF.
  DIIS enabled.
  MOM disabled.
  Fractional occupation disabled.
  Guess Type is SAD.
  Energy threshold   = 1.00e-08
  Density threshold  = 1.00e-08
  Integral threshold = 0.00e+00

  ==> Primary Basis <==

  Basis Set: AUG-CC-PV(Q+D)Z
    Blend: AUG-CC-PV(Q+D)Z
    Number of shells: 96
    Number of basis function: 344
    Number of Cartesian functions: 430
    Spherical Harmonics?: true
    Max angular momentum: 4

  ==> DFT Potential <==

   => Composite Functional: WB97M-V <= 

    wB97M-V Hyb-GGA Exchange-Correlation Functional

    N. Mardirossian and M. Head-Gordon, J. Chem. Phys. 144, 214110 (2016)

    Deriv               =              1
    GGA                 =           TRUE
    Meta                =           TRUE

    Exchange Hybrid     =           TRUE
    MP2 Hybrid          =          FALSE

   => Exchange-Correlation Functionals <=

    1.0000   wB97M-V exchange-correlation functional

   => Exact (HF) Exchange <=

    0.8500            HF,LR [omega = 0.3000]
    0.1500               HF 

   => VV10 Non-Local Parameters <=

    VV10 B              =     6.0000E+00
    VV10 C              =     1.0000E-02

   => Molecular Quadrature <=

    Radial Scheme          =       TREUTLER
    Pruning Scheme         =           FLAT
    Nuclear Scheme         =       TREUTLER

    BS radius alpha        =              1
    Pruning alpha          =              1
    Radial Points          =             75
    Spherical Points       =            302
    Total Points           =         135900
    Total Blocks           =           1081
    Max Points             =            256
    Max Functions          =            344

   => Loading Basis Set <=

    Name: (AUG-CC-PV(Q+D)Z AUX)
    Role: JKFIT
    Keyword: DF_BASIS_SCF
    atoms 1      entry C          line   178 file /work/zw18965/.conda/envs/p4env/share/psi4/basis/aug-cc-pvqz-jkfit.gbs 
    atoms 2-4, 6 entry H          line    70 file /work/zw18965/.conda/envs/p4env/share/psi4/basis/aug-cc-pvqz-jkfit.gbs 
    atoms 5      entry O          line   318 file /work/zw18965/.conda/envs/p4env/share/psi4/basis/aug-cc-pvqz-jkfit.gbs 

  ==> Pre-Iterations <==

   -------------------------------------------------------
    Irrep   Nso     Nmo     Nalpha   Nbeta   Ndocc  Nsocc
   -------------------------------------------------------
     A'       206     206       0       0       0       0
     A"       138     138       0       0       0       0
   -------------------------------------------------------
    Total     344     344       9       9       9       0
   -------------------------------------------------------

  ==> Integral Setup <==

  ==> DiskDFJK: Density-Fitted J/K Matrices <==

    J tasked:                  Yes
    K tasked:                  Yes
    wK tasked:                 Yes
    Omega:               3.000E-01
    OpenMP threads:             24
    Integrals threads:          24
    Memory [MiB]:            99974
    Algorithm:                Core
    Integral Cache:           NONE
    Schwarz Cutoff:          1E-12
    Fitting Condition:       1E-10

   => Auxiliary Basis Set <=

  Basis Set: (AUG-CC-PV(Q+D)Z AUX)
    Blend: AUG-CC-PVQZ-JKFIT
    Number of shells: 140
    Number of basis function: 588
    Number of Cartesian functions: 800
    Spherical Harmonics?: true
    Max angular momentum: 5

  Cached 100.0% of DFT collocation blocks in 2.951 [GiB].

  Minimum eigenvalue in the overlap matrix is 1.6128312295E-05.
  Using Symmetric Orthogonalization.

  SCF Guess: Superposition of Atomic Densities via on-the-fly atomic UHF.

  ==> Iterations <==

                           Total Energy        Delta E     RMS |[F,P]|

   @DF-RKS iter SAD:  -115.11733741344702   -1.15117e+02   0.00000e+00 
   @DF-RKS iter   1:  -115.57757677404038   -4.60239e-01   2.36725e-03 DIIS
   @DF-RKS iter   2:  -115.60651098678537   -2.89342e-02   2.33231e-03 DIIS
   @DF-RKS iter   3:  -115.72240564267621   -1.15895e-01   2.65597e-04 DIIS
   @DF-RKS iter   4:  -115.72396782115918   -1.56218e-03   8.47388e-05 DIIS
   @DF-RKS iter   5:  -115.72417663464164   -2.08813e-04   1.57818e-05 DIIS
   @DF-RKS iter   6:  -115.72418633237471   -9.69773e-06   2.20826e-06 DIIS
   @DF-RKS iter   7:  -115.72418674050932   -4.08135e-07   4.16569e-07 DIIS
   @DF-RKS iter   8:  -115.72418675882243   -1.83131e-08   8.79607e-08 DIIS
   @DF-RKS iter   9:  -115.72418675962548   -8.03055e-10   2.03864e-08 DIIS
   @DF-RKS iter  10:  -115.72418675966541   -3.99325e-11   4.95125e-09 DIIS
  Energy and wave function converged.


  ==> Post-Iterations <==

    Orbital Energies [Eh]
    ---------------------

    Doubly Occupied:                                                      

       1Ap   -19.332034     2Ap   -10.381600     3Ap    -1.150289  
       4Ap    -0.803093     5Ap    -0.618574     1App   -0.549225  
       6Ap    -0.532750     7Ap    -0.444111     2App   -0.384722  

    Virtual:                                                              

       8Ap     0.010622     9Ap     0.026617     3App    0.033131  
      10Ap     0.037885    11Ap     0.071183    12Ap     0.081086  
       4App    0.094733    13Ap     0.102745    14Ap     0.116188  
      15Ap     0.124453     5App    0.126839    16Ap     0.149071  
       6App    0.150355    17Ap     0.194419    18Ap     0.196747  
       7App    0.213067    19Ap     0.216785     8App    0.228757  
      20Ap     0.234272    21Ap     0.240559     9App    0.249249  
      10App    0.255061    22Ap     0.255812    23Ap     0.286437  
      24Ap     0.301146    25Ap     0.316610    26Ap     0.324021  
      11App    0.328564    27Ap     0.329983    12App    0.331742  
      28Ap     0.336928    29Ap     0.358617    13App    0.368520  
      30Ap     0.378212    31Ap     0.468138    14App    0.487239  
      32Ap     0.501472    15App    0.514250    33Ap     0.516474  
      16App    0.543576    34Ap     0.549504    35Ap     0.558104  
      17App    0.576642    18App    0.617088    36Ap     0.625501  
      19App    0.631677    37Ap     0.635045    38Ap     0.640446  
      20App    0.654183    39Ap     0.661050    40Ap     0.676659  
      41Ap     0.688751    21App    0.690742    42Ap     0.712333  
      43Ap     0.729681    44Ap     0.737192    22App    0.746792  
      45Ap     0.763471    46Ap     0.767660    23App    0.785061  
      24App    0.801836    47Ap     0.809099    25App    0.810935  
      48Ap     0.832651    26App    0.840572    49Ap     0.859007  
      50Ap     0.895376    51Ap     0.930034    27App    0.935070  
      52Ap     0.956683    28App    0.995824    53Ap     1.005646  
      29App    1.032862    54Ap     1.038383    30App    1.065172  
      55Ap     1.067381    56Ap     1.087963    31App    1.094964  
      57Ap     1.104638    58Ap     1.107656    32App    1.109943  
      59Ap     1.190559    33App    1.238153    60Ap     1.280068  
      34App    1.290312    35App    1.342075    61Ap     1.349572  
      62Ap     1.360695    36App    1.374170    63Ap     1.414908  
      64Ap     1.449884    37App    1.460423    65Ap     1.467042  
      66Ap     1.510774    38App    1.537533    67Ap     1.545327  
      68Ap     1.553964    39App    1.587397    69Ap     1.621566  
      70Ap     1.663779    40App    1.666953    71Ap     1.673324  
      41App    1.692007    42App    1.717937    72Ap     1.719882  
      73Ap     1.744974    43App    1.757539    74Ap     1.783917  
      44App    1.792739    75Ap     1.805409    76Ap     1.828033  
      45App    1.830355    77Ap     1.843156    46App    1.860746  
      78Ap     1.874392    79Ap     1.893570    47App    1.919351  
      80Ap     1.923965    48App    1.947642    81Ap     1.947940  
      49App    1.990430    82Ap     1.990656    50App    2.000593  
      83Ap     2.014583    51App    2.019738    84Ap     2.025107  
      52App    2.032685    85Ap     2.074808    53App    2.082387  
      86Ap     2.100482    87Ap     2.119940    54App    2.131205  
      88Ap     2.137531    89Ap     2.152066    55App    2.217691  
      90Ap     2.233252    56App    2.316494    91Ap     2.334052  
      92Ap     2.361473    57App    2.417488    93Ap     2.423894  
      58App    2.425897    59App    2.490809    94Ap     2.506878  
      95Ap     2.537862    60App    2.576392    96Ap     2.581012  
      61App    2.589699    97Ap     2.595948    62App    2.612421  
      98Ap     2.663149    63App    2.668191    99Ap     2.721491  
     100Ap     2.756017    64App    2.792628   101Ap     2.805496  
     102Ap     2.844169    65App    2.858295   103Ap     2.871944  
     104Ap     2.939803   105Ap     3.016222    66App    3.035680  
      67App    3.055002   106Ap     3.069205    68App    3.114960  
     107Ap     3.133461   108Ap     3.152488    69App    3.310072  
     109Ap     3.389180   110Ap     3.411014    70App    3.449862  
     111Ap     3.455140    71App    3.489170   112Ap     3.526987  
      72App    3.554717   113Ap     3.585226   114Ap     3.656747  
      73App    3.677736   115Ap     3.709726    74App    3.710888  
     116Ap     3.759527   117Ap     3.845337    75App    3.846010  
     118Ap     3.853403   119Ap     3.858051    76App    3.894396  
      77App    3.915328   120Ap     3.941662    78App    3.982317  
     121Ap     4.048255   122Ap     4.074587   123Ap     4.149058  
      79App    4.163725    80App    4.192677   124Ap     4.222275  
      81App    4.284581   125Ap     4.284780   126Ap     4.334073  
     127Ap     4.392869    82App    4.444204   128Ap     4.468250  
      83App    4.474930   129Ap     4.545071   130Ap     4.577237  
      84App    4.629027   131Ap     4.657230    85App    4.687424  
     132Ap     4.811267    86App    4.823093   133Ap     4.867361  
     134Ap     4.937735    87App    4.996086   135Ap     5.050168  
      88App    5.080176    89App    5.157660   136Ap     5.169308  
     137Ap     5.326442   138Ap     5.455215    90App    5.560731  
     139Ap     5.692527   140Ap     5.811447    91App    5.878019  
      92App    5.917576   141Ap     6.007738    93App    6.134843  
     142Ap     6.169044   143Ap     6.226124    94App    6.365794  
     144Ap     6.387064   145Ap     6.407393    95App    6.485530  
      96App    6.526803    97App    6.539864   146Ap     6.589424  
     147Ap     6.632400    98App    6.635207   148Ap     6.689574  
      99App    6.699168   149Ap     6.815466   100App    6.815779  
     150Ap     6.844415   101App    6.973755   151Ap     7.018102  
     152Ap     7.100786   102App    7.109525   153Ap     7.199518  
     154Ap     7.244733   103App    7.254853   155Ap     7.268974  
     104App    7.321434   156Ap     7.463125   105App    7.508267  
     157Ap     7.559753   158Ap     7.593236   106App    7.608491  
     159Ap     7.636155   107App    7.662758   160Ap     7.700538  
     108App    7.849503   161Ap     7.897217   162Ap     7.997303  
     109App    8.052782   163Ap     8.064126   164Ap     8.109653  
     110App    8.186093   165Ap     8.292690   166Ap     8.343703  
     111App    8.353940   167Ap     8.398647   168Ap     8.482928  
     112App    8.495506   113App    8.514118   169Ap     8.571015  
     170Ap     8.616752   114App    8.760354   171Ap     8.807872  
     115App    8.818087   172Ap     8.836619   116App    8.838268  
     173Ap     8.868713   117App    9.011391   118App    9.075514  
     174Ap     9.084108   119App    9.212273   175Ap     9.229583  
     176Ap     9.297451   177Ap     9.325515   120App    9.348240  
     178Ap     9.413077   179Ap     9.545166   121App    9.548672  
     180Ap     9.656367   122App    9.659443   181Ap     9.729594  
     123App    9.754357   182Ap     9.959988   124App   10.009150  
     183Ap    10.060571   184Ap    10.112553   125App   10.252895  
     185Ap    10.336109   186Ap    10.508047   126App   10.536249  
     187Ap    10.581719   188Ap    10.687757   127App   10.757756  
     189Ap    10.759718   128App   10.850352   129App   10.962800  
     190Ap    11.015343   130App   11.033223   131App   11.296597  
     191Ap    11.338394   132App   11.469589   192Ap    11.591205  
     193Ap    11.699722   194Ap    11.958417   133App   11.982478  
     195Ap    12.114676   196Ap    12.421047   134App   12.481012  
     135App   12.498285   197Ap    12.567548   198Ap    12.753158  
     136App   12.792962   199Ap    13.052755   200Ap    13.153315  
     137App   13.250922   201Ap    13.592188   138App   14.240208  
     202Ap    14.425444   203Ap    14.596058   204Ap    16.778352  
     205Ap    28.337648   206Ap    44.533176  

    Final Occupation by Irrep:
             Ap   App 
    DOCC [     7,    2 ]

  @DF-RKS Final Energy:  -115.72418675966541

   => Energetics <=

    Nuclear Repulsion Energy =             40.3662248701019877
    One-Electron Energy =                -237.0105560717327080
    Two-Electron Energy =                  91.7531644096341239
    DFT Exchange-Correlation Energy =     -10.9066112054105790
    Empirical Dispersion Energy =           0.0000000000000000
    VV10 Nonlocal Energy =                  0.0735912377417882
    Total Energy =                       -115.7241867596654004

Computation Completed


Properties will be evaluated at   0.000000,   0.000000,   0.000000 [a0]

Properties computed using the SCF density matrix

  Nuclear Dipole Moment: [e a0]
     X:     0.6765      Y:     2.1852      Z:     0.0000

  Electronic Dipole Moment: [e a0]
     X:    -0.1436      Y:    -1.8023      Z:     0.0000

  Dipole Moment: [e a0]
     X:     0.5329      Y:     0.3829      Z:     0.0000     Total:     0.6562

  Dipole Moment: [D]
     X:     1.3545      Y:     0.9732      Z:     0.0000     Total:     1.6679


*** tstop() called on bp1-compute00149.data.bp.acrc.priv at Tue Apr 27 16:55:33 2021
Module time:
	user time   =     279.89 seconds =       4.66 minutes
	system time =       5.19 seconds =       0.09 minutes
	total time  =         12 seconds =       0.20 minutes
Total time:
	user time   =    1138.62 seconds =      18.98 minutes
	system time =      33.50 seconds =       0.56 minutes
	total time  =         51 seconds =       0.85 minutes

  //>>>>>>>>>>>>>>>>>>>>>>>>>>>>>>>>>>>//
  //    Loading displacement 5 of 17   //
  //<<<<<<<<<<<<<<<<<<<<<<<<<<<<<<<<<<<//

*** tstart() called on bp1-compute00149.data.bp.acrc.priv
*** at Tue Apr 27 16:55:33 2021

   => Loading Basis Set <=

    Name: AUG-CC-PV(Q+D)Z
    Role: ORBITAL
    Keyword: BASIS
    atoms 1      entry C          line   319 file /work/zw18965/.conda/envs/p4env/share/psi4/basis/aug-cc-pv_qpd_z.gbs 
    atoms 2-4, 6 entry H          line    56 file /work/zw18965/.conda/envs/p4env/share/psi4/basis/aug-cc-pv_qpd_z.gbs 
    atoms 5      entry O          line   439 file /work/zw18965/.conda/envs/p4env/share/psi4/basis/aug-cc-pv_qpd_z.gbs 


         ---------------------------------------------------------
                                   SCF
               by Justin Turney, Rob Parrish, Andy Simmonett
                          and Daniel G. A. Smith
                              RKS Reference
                       24 Threads, 137329 MiB Core
         ---------------------------------------------------------

  ==> Geometry <==

    Molecular point group: cs
    Full point group: Cs

    Geometry (in Angstrom), charge = 0, multiplicity = 1:

       Center              X                  Y                   Z               Mass       
    ------------   -----------------  -----------------  -----------------  -----------------
         C           -0.029876301320     0.727500334372     0.000000000000    12.000000000000
         H           -1.072716407721     1.035879870056     0.000000000000     1.007825032230
         H            0.452406632189     1.139778918488     0.889854379100     1.007825032230
         H            0.452406632189     1.139778918488    -0.889854379100     1.007825032230
         O           -0.023043451709    -0.692715511951     0.000000000000    15.994914619570
         H            0.889351445594    -0.983761690162     0.000000000000     1.007825032230

  Running in cs symmetry.

  Rotational constants: A =      4.29224  B =      0.82818  C =      0.79931 [cm^-1]
  Rotational constants: A = 128678.02789  B =  24828.33006  C =  23962.67902 [MHz]
  Nuclear repulsion =   40.345786811915787

  Charge       = 0
  Multiplicity = 1
  Electrons    = 18
  Nalpha       = 9
  Nbeta        = 9

  ==> Algorithm <==

  SCF Algorithm Type is DF.
  DIIS enabled.
  MOM disabled.
  Fractional occupation disabled.
  Guess Type is SAD.
  Energy threshold   = 1.00e-08
  Density threshold  = 1.00e-08
  Integral threshold = 0.00e+00

  ==> Primary Basis <==

  Basis Set: AUG-CC-PV(Q+D)Z
    Blend: AUG-CC-PV(Q+D)Z
    Number of shells: 96
    Number of basis function: 344
    Number of Cartesian functions: 430
    Spherical Harmonics?: true
    Max angular momentum: 4

  ==> DFT Potential <==

   => Composite Functional: WB97M-V <= 

    wB97M-V Hyb-GGA Exchange-Correlation Functional

    N. Mardirossian and M. Head-Gordon, J. Chem. Phys. 144, 214110 (2016)

    Deriv               =              1
    GGA                 =           TRUE
    Meta                =           TRUE

    Exchange Hybrid     =           TRUE
    MP2 Hybrid          =          FALSE

   => Exchange-Correlation Functionals <=

    1.0000   wB97M-V exchange-correlation functional

   => Exact (HF) Exchange <=

    0.8500            HF,LR [omega = 0.3000]
    0.1500               HF 

   => VV10 Non-Local Parameters <=

    VV10 B              =     6.0000E+00
    VV10 C              =     1.0000E-02

   => Molecular Quadrature <=

    Radial Scheme          =       TREUTLER
    Pruning Scheme         =           FLAT
    Nuclear Scheme         =       TREUTLER

    BS radius alpha        =              1
    Pruning alpha          =              1
    Radial Points          =             75
    Spherical Points       =            302
    Total Points           =         135900
    Total Blocks           =           1083
    Max Points             =            256
    Max Functions          =            344

   => Loading Basis Set <=

    Name: (AUG-CC-PV(Q+D)Z AUX)
    Role: JKFIT
    Keyword: DF_BASIS_SCF
    atoms 1      entry C          line   178 file /work/zw18965/.conda/envs/p4env/share/psi4/basis/aug-cc-pvqz-jkfit.gbs 
    atoms 2-4, 6 entry H          line    70 file /work/zw18965/.conda/envs/p4env/share/psi4/basis/aug-cc-pvqz-jkfit.gbs 
    atoms 5      entry O          line   318 file /work/zw18965/.conda/envs/p4env/share/psi4/basis/aug-cc-pvqz-jkfit.gbs 

  ==> Pre-Iterations <==

   -------------------------------------------------------
    Irrep   Nso     Nmo     Nalpha   Nbeta   Ndocc  Nsocc
   -------------------------------------------------------
     A'       206     206       0       0       0       0
     A"       138     138       0       0       0       0
   -------------------------------------------------------
    Total     344     344       9       9       9       0
   -------------------------------------------------------

  ==> Integral Setup <==

  ==> DiskDFJK: Density-Fitted J/K Matrices <==

    J tasked:                  Yes
    K tasked:                  Yes
    wK tasked:                 Yes
    Omega:               3.000E-01
    OpenMP threads:             24
    Integrals threads:          24
    Memory [MiB]:            99974
    Algorithm:                Core
    Integral Cache:           NONE
    Schwarz Cutoff:          1E-12
    Fitting Condition:       1E-10

   => Auxiliary Basis Set <=

  Basis Set: (AUG-CC-PV(Q+D)Z AUX)
    Blend: AUG-CC-PVQZ-JKFIT
    Number of shells: 140
    Number of basis function: 588
    Number of Cartesian functions: 800
    Spherical Harmonics?: true
    Max angular momentum: 5

  Cached 100.0% of DFT collocation blocks in 2.951 [GiB].

  Minimum eigenvalue in the overlap matrix is 1.6112285861E-05.
  Using Symmetric Orthogonalization.

  SCF Guess: Superposition of Atomic Densities via on-the-fly atomic UHF.

  ==> Iterations <==

                           Total Energy        Delta E     RMS |[F,P]|

   @DF-RKS iter SAD:  -115.11519104681506   -1.15115e+02   0.00000e+00 
   @DF-RKS iter   1:  -115.57772440550598   -4.62533e-01   2.36609e-03 DIIS
   @DF-RKS iter   2:  -115.60672724306026   -2.90028e-02   2.33048e-03 DIIS
   @DF-RKS iter   3:  -115.72239832342908   -1.15671e-01   2.66373e-04 DIIS
   @DF-RKS iter   4:  -115.72396980654612   -1.57148e-03   8.47006e-05 DIIS
   @DF-RKS iter   5:  -115.72417850073995   -2.08694e-04   1.57749e-05 DIIS
   @DF-RKS iter   6:  -115.72418819036156   -9.68962e-06   2.20608e-06 DIIS
   @DF-RKS iter   7:  -115.72418859673090   -4.06369e-07   4.15624e-07 DIIS
   @DF-RKS iter   8:  -115.72418861494283   -1.82119e-08   8.76988e-08 DIIS
   @DF-RKS iter   9:  -115.72418861573958   -7.96746e-10   2.02674e-08 DIIS
   @DF-RKS iter  10:  -115.72418861577968   -4.01030e-11   4.92927e-09 DIIS
  Energy and wave function converged.


  ==> Post-Iterations <==

    Orbital Energies [Eh]
    ---------------------

    Doubly Occupied:                                                      

       1Ap   -19.331880     2Ap   -10.381549     3Ap    -1.149622  
       4Ap    -0.803259     5Ap    -0.618172     1App   -0.549286  
       6Ap    -0.532452     7Ap    -0.444278     2App   -0.384793  

    Virtual:                                                              

       8Ap     0.010629     9Ap     0.026624     3App    0.033119  
      10Ap     0.037879    11Ap     0.071156    12Ap     0.081108  
       4App    0.094772    13Ap     0.102750    14Ap     0.116165  
      15Ap     0.124483     5App    0.126867    16Ap     0.149053  
       6App    0.150311    17Ap     0.194234    18Ap     0.196819  
       7App    0.213127    19Ap     0.216790     8App    0.228766  
      20Ap     0.234294    21Ap     0.240568     9App    0.249225  
      10App    0.255063    22Ap     0.255770    23Ap     0.286504  
      24Ap     0.301114    25Ap     0.316513    26Ap     0.324067  
      11App    0.328687    27Ap     0.329928    12App    0.331785  
      28Ap     0.336850    29Ap     0.358100    13App    0.368630  
      30Ap     0.378139    31Ap     0.468031    14App    0.487191  
      32Ap     0.501498    15App    0.514382    33Ap     0.516467  
      16App    0.543616    34Ap     0.549485    35Ap     0.558050  
      17App    0.576612    18App    0.617119    36Ap     0.625346  
      19App    0.631611    37Ap     0.635163    38Ap     0.640383  
      20App    0.654274    39Ap     0.661145    40Ap     0.676774  
      41Ap     0.688803    21App    0.690727    42Ap     0.712314  
      43Ap     0.729678    44Ap     0.737269    22App    0.746856  
      45Ap     0.763521    46Ap     0.767708    23App    0.784753  
      24App    0.801986    47Ap     0.808921    25App    0.810841  
      48Ap     0.832605    26App    0.840799    49Ap     0.858986  
      50Ap     0.895204    51Ap     0.930073    27App    0.935100  
      52Ap     0.956559    28App    0.995830    53Ap     1.005781  
      29App    1.033080    54Ap     1.038241    30App    1.065190  
      55Ap     1.067285    56Ap     1.087890    31App    1.094989  
      57Ap     1.104435    58Ap     1.107480    32App    1.109157  
      59Ap     1.190726    33App    1.238092    60Ap     1.279955  
      34App    1.290449    35App    1.342053    61Ap     1.349900  
      62Ap     1.360903    36App    1.374421    63Ap     1.414911  
      64Ap     1.449794    37App    1.460191    65Ap     1.466946  
      66Ap     1.510928    38App    1.537869    67Ap     1.545488  
      68Ap     1.553465    39App    1.587487    69Ap     1.621227  
      70Ap     1.663987    40App    1.666797    71Ap     1.673118  
      41App    1.691666    42App    1.717742    72Ap     1.720061  
      73Ap     1.744684    43App    1.757319    74Ap     1.783566  
      44App    1.792569    75Ap     1.805395    76Ap     1.827590  
      45App    1.829900    77Ap     1.842962    46App    1.860427  
      78Ap     1.874349    79Ap     1.893535    47App    1.919075  
      80Ap     1.924094    81Ap     1.947480    48App    1.947509  
      49App    1.990497    82Ap     1.990683    50App    2.000548  
      83Ap     2.014643    51App    2.019814    84Ap     2.025041  
      52App    2.032673    85Ap     2.074737    53App    2.082504  
      86Ap     2.100549    87Ap     2.119510    54App    2.131272  
      88Ap     2.138046    89Ap     2.151954    55App    2.218083  
      90Ap     2.233248    56App    2.316756    91Ap     2.333635  
      92Ap     2.361567    57App    2.417528    93Ap     2.424306  
      58App    2.426450    59App    2.490691    94Ap     2.506841  
      95Ap     2.537194    60App    2.576474    96Ap     2.580999  
      61App    2.589584    97Ap     2.595754    62App    2.612518  
      98Ap     2.663476    63App    2.668032    99Ap     2.721070  
     100Ap     2.755452    64App    2.792959   101Ap     2.805898  
     102Ap     2.844191    65App    2.857795   103Ap     2.871556  
     104Ap     2.939102   105Ap     3.014891    66App    3.036172  
      67App    3.054705   106Ap     3.068974    68App    3.115061  
     107Ap     3.133449   108Ap     3.152751    69App    3.310177  
     109Ap     3.389414   110Ap     3.410375    70App    3.450181  
     111Ap     3.455765    71App    3.488938   112Ap     3.526906  
      72App    3.553965   113Ap     3.585168   114Ap     3.656193  
      73App    3.678025   115Ap     3.709830    74App    3.711577  
     116Ap     3.759701   117Ap     3.845140    75App    3.845650  
     118Ap     3.853954   119Ap     3.858290    76App    3.894498  
      77App    3.915474   120Ap     3.941146    78App    3.982052  
[...]
     226A      5.329963   227A      5.455766   228A      5.561836  
     229A      5.692125   230A      5.818644   231A      5.877919  
     232A      5.917293   233A      6.009121   234A      6.134590  
     235A      6.169167   236A      6.223017   237A      6.367057  
     238A      6.390111   239A      6.406899   240A      6.488211  
     241A      6.528376   242A      6.541454   243A      6.594247  
     244A      6.633190   245A      6.641311   246A      6.691761  
     247A      6.698555   248A      6.815188   249A      6.819220  
     250A      6.846566   251A      6.984612   252A      7.018934  
     253A      7.101274   254A      7.113657   255A      7.204070  
     256A      7.246120   257A      7.256516   258A      7.269791  
     259A      7.323841   260A      7.464994   261A      7.508710  
     262A      7.563612   263A      7.596365   264A      7.614535  
     265A      7.639154   266A      7.664715   267A      7.704740  
     268A      7.855038   269A      7.901655   270A      7.999105  
     271A      8.058418   272A      8.071159   273A      8.108516  
     274A      8.191557   275A      8.291822   276A      8.344924  
     277A      8.355731   278A      8.399992   279A      8.484216  
     280A      8.496298   281A      8.514960   282A      8.571139  
     283A      8.617075   284A      8.764126   285A      8.809935  
     286A      8.823238   287A      8.842499   288A      8.844520  
     289A      8.873123   290A      9.011385   291A      9.078303  
     292A      9.085986   293A      9.215986   294A      9.230651  
     295A      9.306687   296A      9.331275   297A      9.351766  
     298A      9.409298   299A      9.546769   300A      9.554011  
     301A      9.660064   302A      9.663205   303A      9.735153  
     304A      9.759821   305A      9.967147   306A     10.017927  
     307A     10.063052   308A     10.124518   309A     10.260557  
     310A     10.346810   311A     10.510430   312A     10.541300  
     313A     10.585180   314A     10.689877   315A     10.756150  
     316A     10.764544   317A     10.851311   318A     10.975724  
     319A     11.016234   320A     11.036200   321A     11.299824  
     322A     11.342303   323A     11.470721   324A     11.592960  
     325A     11.701900   326A     11.954474   327A     11.977611  
     328A     12.111493   329A     12.413359   330A     12.485806  
     331A     12.508072   332A     12.583557   333A     12.757505  
     334A     12.795064   335A     13.053385   336A     13.154817  
     337A     13.251027   338A     13.590788   339A     14.239576  
     340A     14.429560   341A     14.598852   342A     16.782220  
     343A     28.369004   344A     44.528098  

    Final Occupation by Irrep:
              A 
    DOCC [     9 ]

  @DF-RKS Final Energy:  -115.72420000669699

   => Energetics <=

    Nuclear Repulsion Energy =             40.3787443609172101
    One-Electron Energy =                -237.0371554308794373
    Two-Electron Energy =                  91.7685389390492503
    DFT Exchange-Correlation Energy =     -10.9079225080360942
    Empirical Dispersion Energy =           0.0000000000000000
    VV10 Nonlocal Energy =                  0.0735946322520757
    Total Energy =                       -115.7242000066969894

Computation Completed


Properties will be evaluated at   0.000000,   0.000000,   0.000000 [a0]

Properties computed using the SCF density matrix

  Nuclear Dipole Moment: [e a0]
     X:     0.6785      Y:     2.1709      Z:    -0.0030

  Electronic Dipole Moment: [e a0]
     X:    -0.1456      Y:    -1.7930      Z:     0.0032

  Dipole Moment: [e a0]
     X:     0.5329      Y:     0.3779      Z:     0.0002     Total:     0.6533

  Dipole Moment: [D]
     X:     1.3545      Y:     0.9604      Z:     0.0006     Total:     1.6604


*** tstop() called on bp1-compute00149.data.bp.acrc.priv at Tue Apr 27 17:27:30 2021
Module time:
	user time   =     332.21 seconds =       5.54 minutes
	system time =       4.11 seconds =       0.07 minutes
	total time  =         14 seconds =       0.23 minutes
Total time:
	user time   =   44614.30 seconds =     743.57 minutes
	system time =     626.58 seconds =      10.44 minutes
	total time  =       1968 seconds =      32.80 minutes

         ----------------------------------------------------------
                                   FINDIF
                     R. A. King and Jonathon Misiewicz
         ---------------------------------------------------------

  Computing second-derivative from energies using projected, 
  symmetry-adapted, cartesian coordinates.

  89 energies passed in, including the reference geometry.
    Using 3-point formula.
    Energy without displacement: -115.7242052960
    Check energies below for precision!
    0: -1          :      -115.7242033912
    0: 1           :      -115.7242032942
    1: -1          :      -115.7242048206
    1: 1           :      -115.7242041750
    2: -1          :      -115.7242019519
    2: 1           :      -115.7242012323
    3: -1          :      -115.7242039425
    3: 1           :      -115.7242043505
    4: -1          :      -115.7242039747
    4: 1           :      -115.7242042388
    5: -1          :      -115.7242040575
    5: 1           :      -115.7242044694
    6: -1          :      -115.7242019118
    6: 1           :      -115.7242022140
    7: -1          :      -115.7241980771
    7: 1           :      -115.7241982641
    0: 1, 1: 1     :      -115.7242021111
    0: -1, 1: -1   :      -115.7242028820
    0: 1, 2: 1     :      -115.7242018766
    0: -1, 2: -1   :      -115.7242026606
    1: 1, 2: 1     :      -115.7241994143
    1: -1, 2: -1   :      -115.7242008006
    0: 1, 3: 1     :      -115.7242010990
    0: -1, 3: -1   :      -115.7242007620
    1: 1, 3: 1     :      -115.7242034218
    1: -1, 3: -1   :      -115.7242036566
    2: 1, 3: 1     :      -115.7242015340
    2: -1, 3: -1   :      -115.7242018039
    0: 1, 4: 1     :      -115.7242027898
    0: -1, 4: -1   :      -115.7242025931
    1: 1, 4: 1     :      -115.7242036970
    1: -1, 4: -1   :      -115.7242040833
    2: 1, 4: 1     :      -115.7242006094
    2: -1, 4: -1   :      -115.7242010740
    3: 1, 4: 1     :      -115.7242038130
    3: -1, 4: -1   :      -115.7242031339
    0: 1, 5: 1     :      -115.7242032553
    0: -1, 5: -1   :      -115.7242029647
    1: 1, 5: 1     :      -115.7242039255
    1: -1, 5: -1   :      -115.7242041874
    2: 1, 5: 1     :      -115.7242006827
    2: -1, 5: -1   :      -115.7242009900
    3: 1, 5: 1     :      -115.7242035588
    3: -1, 5: -1   :      -115.7242027720
    4: 1, 5: 1     :      -115.7242025630
    4: -1, 5: -1   :      -115.7242018938
    0: 1, 6: 1     :      -115.7242019231
    0: -1, 6: -1   :      -115.7242017362
    1: 1, 6: 1     :      -115.7242020159
    1: -1, 6: -1   :      -115.7242023668
    2: 1, 6: 1     :      -115.7241989967
    2: -1, 6: -1   :      -115.7241993730
    3: 1, 6: 1     :      -115.7242019834
    3: -1, 6: -1   :      -115.7242012543
    4: 1, 6: 1     :      -115.7241995240
    4: -1, 6: -1   :      -115.7241989264
    5: 1, 6: 1     :      -115.7241999128
    5: -1, 6: -1   :      -115.7241991948
    0: 1, 7: 1     :      -115.7241961941
    0: -1, 7: -1   :      -115.7241960622
    1: 1, 7: 1     :      -115.7241970951
    1: -1, 7: -1   :      -115.7241975477
    2: 1, 7: 1     :      -115.7241942465
    2: -1, 7: -1   :      -115.7241947452
    3: 1, 7: 1     :      -115.7241972980
    3: -1, 7: -1   :      -115.7241966700
    4: 1, 7: 1     :      -115.7241970669
    4: -1, 7: -1   :      -115.7241965837
    5: 1, 7: 1     :      -115.7241974770
    5: -1, 7: -1   :      -115.7241968408
    6: 1, 7: 1     :      -115.7241952179
    6: -1, 7: -1   :      -115.7241947203
    8: -1          :      -115.7242034509
    9: -1          :      -115.7242039643
    10: -1         :      -115.7242042826
    11: -1         :      -115.7242033016
    8: 1, 9: 1     :      -115.7242007477
    8: -1, 9: -1   :      -115.7242007376
    8: 1, 10: 1    :      -115.7242042563
    8: -1, 10: -1  :      -115.7242042495
    9: 1, 10: 1    :      -115.7242048392
    9: -1, 10: -1  :      -115.7242048392
    8: 1, 11: 1    :      -115.7242040604
    8: -1, 11: -1  :      -115.7242040565
    9: 1, 11: 1    :      -115.7242032427
    9: -1, 11: -1  :      -115.7242032570
    10: 1, 11: 1   :      -115.7242000123
    10: -1, 11: -1 :      -115.7242000067

-------------------------------------------------------------


  ==> Harmonic Vibrational Analysis <==

  non-mass-weighted Hessian:       Symmetric? True   Hermitian? True   Lin Dep Dim?  6 (0)
  projection of translations (True) and rotations (True) removed 6 degrees of freedom (6)
  total projector:                 Symmetric? True   Hermitian? True   Lin Dep Dim?  6 (6)
  mass-weighted Hessian:           Symmetric? True   Hermitian? True   Lin Dep Dim?  6 (0)
  pre-proj  low-frequency mode:    0.0000i [cm^-1]
  pre-proj  low-frequency mode:    0.0000i [cm^-1]
  pre-proj  low-frequency mode:    0.0000i [cm^-1]
  pre-proj  low-frequency mode:    0.0000i [cm^-1]
  pre-proj  low-frequency mode:    0.0000  [cm^-1]
  pre-proj  low-frequency mode:    0.0000  [cm^-1]
  pre-proj  all modes:['0.0000i' '0.0000i' '0.0000i' '0.0000i' '0.0000' '0.0000' '309.4869'
 '1058.0317' '1090.2610' '1168.7329' '1356.2840' '1479.6661' '1481.5037'
 '1499.6497' '3025.4360' '3069.6580' '3139.9530' '3881.5879']
  projected mass-weighted Hessian: Symmetric? True   Hermitian? True   Lin Dep Dim?  6 (6)
  post-proj low-frequency mode:    0.0000i [cm^-1] (TR)
  post-proj low-frequency mode:    0.0000i [cm^-1] (TR)
  post-proj low-frequency mode:    0.0000i [cm^-1] (TR)
  post-proj low-frequency mode:    0.0000  [cm^-1] (TR)
  post-proj low-frequency mode:    0.0000  [cm^-1] (TR)
  post-proj low-frequency mode:    0.0000  [cm^-1] (TR)
  post-proj  all modes:['0.0000i' '0.0000i' '0.0000i' '0.0000' '0.0000' '0.0000' '309.4869'
 '1058.0317' '1090.2610' '1168.7329' '1356.2840' '1479.6661' '1481.5037'
 '1499.6497' '3025.4360' '3069.6580' '3139.9530' '3881.5879']

  Vibration                       7                   8                   9           
  Freq [cm^-1]                 309.4869           1058.0317           1090.2610       
  Irrep                          App                  Ap                  Ap          
  Reduced mass [u]              1.0687              1.1547              5.1265        
  Force const [mDyne/A]         0.0603              0.7616              3.5903        
  Turning point v=0 [a0]        0.6034              0.3139              0.1468        
  RMS dev v=0 [a0 u^1/2]        0.4410              0.2385              0.2350        
  Char temp [K]                445.2827           1522.2721           1568.6428       
  ----------------------------------------------------------------------------------
      1   C                0.00  0.00  0.00   -0.07  0.04 -0.00    0.04  0.44  0.00   
      2   H                0.00  0.00  0.31    0.10  0.56 -0.00   -0.10 -0.04 -0.00   
      3   H                0.22 -0.04 -0.10    0.21 -0.24 -0.03   -0.13  0.47  0.05   
      4   H               -0.22  0.04 -0.10    0.21 -0.24  0.03   -0.13  0.47 -0.05   
      5   O                0.00  0.00 -0.06    0.00 -0.07  0.00   -0.01 -0.36 -0.00   
      6   H                0.00  0.00  0.88    0.24  0.62 -0.00   -0.02 -0.43  0.00   

  Vibration                       10                  11                  12          
  Freq [cm^-1]                1168.7329           1356.2840           1479.6661       
  Irrep                          App                  Ap                 App          
  Reduced mass [u]              1.2819              1.3047              1.0412        
  Force const [mDyne/A]         1.0317              1.4140              1.3431        
  Turning point v=0 [a0]        0.2835              0.2608              0.2796        
  RMS dev v=0 [a0 u^1/2]        0.2270              0.2107              0.2017        
  Char temp [K]               1681.5464           1951.3908           2128.9101       
  ----------------------------------------------------------------------------------
      1   C               -0.00 -0.00  0.14    0.13 -0.02 -0.00    0.00 -0.00 -0.05   
      2   H                0.00  0.00 -0.31    0.02 -0.41 -0.00    0.00  0.00  0.71   
      3   H                0.08  0.63 -0.20   -0.27  0.13  0.15   -0.39  0.30  0.06   
      4   H               -0.08 -0.63 -0.20   -0.27  0.13 -0.15    0.39 -0.30  0.06   
      5   O                0.00  0.00 -0.06   -0.08 -0.02  0.00    0.00 -0.00 -0.01   
      6   H                0.00  0.00  0.01    0.19  0.74 -0.00   -0.00 -0.00 -0.02   

  Vibration                       13                  14                  15          
  Freq [cm^-1]                1481.5037           1499.6497           3025.4360       
  Irrep                           Ap                  Ap                  Ap          
  Reduced mass [u]              1.1139              1.0592              1.0349        
  Force const [mDyne/A]         1.4405              1.4035              5.5814        
  Turning point v=0 [a0]        0.2701              0.2753              0.1961        
  RMS dev v=0 [a0 u^1/2]        0.2016              0.2004              0.1411        
  Char temp [K]               2131.5539           2157.6620           4352.9287       
  ----------------------------------------------------------------------------------
      1   C                0.02 -0.09  0.00   -0.03 -0.05 -0.00   -0.02 -0.04 -0.00   
      2   H                0.23  0.68 -0.00   -0.04 -0.15  0.00   -0.30  0.08 -0.00   
      3   H               -0.33  0.36 -0.00    0.36  0.43 -0.40    0.29  0.23  0.56   
      4   H               -0.33  0.36  0.00    0.36  0.43  0.40    0.29  0.23 -0.56   
      5   O                0.01 -0.01  0.00   -0.02 -0.02 -0.00    0.00 -0.00  0.00   
      6   H               -0.01 -0.07  0.00    0.04  0.16 -0.00    0.00 -0.00  0.00   

  Vibration                       16                  17                  18          
  Freq [cm^-1]                3069.6580           3139.9530           3881.5879       
  Irrep                          App                  Ap                  Ap          
  Reduced mass [u]              1.1038              1.0996              1.0667        
  Force const [mDyne/A]         6.1280              6.3873              9.4691        
  Turning point v=0 [a0]        0.1885              0.1867              0.1705        
  RMS dev v=0 [a0 u^1/2]        0.1400              0.1385              0.1245        
  Char temp [K]               4416.5545           4517.6933           5584.7408       
  ----------------------------------------------------------------------------------
      1   C                0.00  0.00 -0.09   -0.09  0.01  0.00   -0.00 -0.00 -0.00   
      2   H                0.00 -0.00 -0.03    0.92 -0.26 -0.00    0.01 -0.00 -0.00   
      3   H                0.33  0.25  0.57    0.08  0.07  0.17    0.00 -0.00  0.00   
      4   H               -0.33 -0.25  0.57    0.08  0.07 -0.17    0.00 -0.00 -0.00   
      5   O               -0.00  0.00  0.00    0.00 -0.00 -0.00   -0.06  0.02  0.00   
      6   H                0.00  0.00  0.00   -0.02 -0.01  0.00    0.94 -0.33  0.00   

  ==> Thermochemistry Components <==

  Entropy, S
    Electronic S            0.000 [cal/(mol K)]        0.000 [J/(mol K)]       0.00000000 [mEh/K] (multiplicity = 1)
    Translational S        36.324 [cal/(mol K)]      151.980 [J/(mol K)]       0.05788598 [mEh/K] (mol. weight = 32.0262 [u], P = 101325.00 [Pa])
    Rotational S           18.973 [cal/(mol K)]       79.383 [J/(mol K)]       0.03023558 [mEh/K] (symmetry no. = 1)
    Vibrational S           1.610 [cal/(mol K)]        6.736 [J/(mol K)]       0.00256554 [mEh/K]
  Total S                  56.907 [cal/(mol K)]      238.099 [J/(mol K)]       0.09068710 [mEh/K]
  Correction S              0.000 [cal/(mol K)]        0.000 [J/(mol K)]       0.00000000 [mEh/K]

  Constant volume heat capacity, Cv
    Electronic Cv           0.000 [cal/(mol K)]        0.000 [J/(mol K)]       0.00000000 [mEh/K]
    Translational Cv        2.981 [cal/(mol K)]       12.472 [J/(mol K)]       0.00475022 [mEh/K]
    Rotational Cv           2.981 [cal/(mol K)]       12.472 [J/(mol K)]       0.00475022 [mEh/K]
    Vibrational Cv          2.847 [cal/(mol K)]       11.910 [J/(mol K)]       0.00453638 [mEh/K]
  Total Cv                  8.808 [cal/(mol K)]       36.854 [J/(mol K)]       0.01403681 [mEh/K]
  Correction Cv             0.000 [cal/(mol K)]        0.000 [J/(mol K)]       0.00000000 [mEh/K]

  Constant pressure heat capacity, Cp
    Electronic Cp           0.000 [cal/(mol K)]        0.000 [J/(mol K)]       0.00000000 [mEh/K]
    Translational Cp        4.968 [cal/(mol K)]       20.786 [J/(mol K)]       0.00791703 [mEh/K]
    Rotational Cp           2.981 [cal/(mol K)]       12.472 [J/(mol K)]       0.00475022 [mEh/K]
    Vibrational Cp          2.847 [cal/(mol K)]       11.910 [J/(mol K)]       0.00453638 [mEh/K]
  Total Cp                 10.795 [cal/(mol K)]       45.168 [J/(mol K)]       0.01720362 [mEh/K]
  Correction Cp             0.000 [cal/(mol K)]        0.000 [J/(mol K)]       0.00000000 [mEh/K]

  ==> Thermochemistry Energy Analysis <==

  Raw electronic energy, E0
  Total E0, Electronic energy at well bottom at 0 [K]                 -115.72420530 [Eh]

  Zero-point energy, ZPE_vib = Sum_i nu_i / 2
    Electronic ZPE          0.000 [kcal/mol]        0.000 [kJ/mol]       0.00000000 [Eh]
    Translational ZPE       0.000 [kcal/mol]        0.000 [kJ/mol]       0.00000000 [Eh]
    Rotational ZPE          0.000 [kcal/mol]        0.000 [kJ/mol]       0.00000000 [Eh]
    Vibrational ZPE        32.251 [kcal/mol]      134.940 [kJ/mol]       0.05139603 [Eh]       11280.125 [cm^-1]
  Correction ZPE           32.251 [kcal/mol]      134.940 [kJ/mol]       0.05139603 [Eh]       11280.125 [cm^-1]
  Total ZPE, Electronic energy at 0 [K]                               -115.67280926 [Eh]

  Thermal Energy, E (includes ZPE)
    Electronic E            0.000 [kcal/mol]        0.000 [kJ/mol]       0.00000000 [Eh]
    Translational E         0.889 [kcal/mol]        3.718 [kJ/mol]       0.00141628 [Eh]
    Rotational E            0.889 [kcal/mol]        3.718 [kJ/mol]       0.00141628 [Eh]
    Vibrational E          32.570 [kcal/mol]      136.272 [kJ/mol]       0.05190324 [Eh]
  Correction E             34.347 [kcal/mol]      143.709 [kJ/mol]       0.05473580 [Eh]
  Total E, Electronic energy at  298.15 [K]                           -115.66946950 [Eh]

  Enthalpy, H_trans = E_trans + k_B * T
    Electronic H            0.000 [kcal/mol]        0.000 [kJ/mol]       0.00000000 [Eh]
    Translational H         1.481 [kcal/mol]        6.197 [kJ/mol]       0.00236046 [Eh]
    Rotational H            0.889 [kcal/mol]        3.718 [kJ/mol]       0.00141628 [Eh]
    Vibrational H          32.570 [kcal/mol]      136.272 [kJ/mol]       0.05190324 [Eh]
  Correction H             34.940 [kcal/mol]      146.188 [kJ/mol]       0.05567998 [Eh]
  Total H, Enthalpy at  298.15 [K]                                    -115.66852532 [Eh]

  Gibbs free energy, G = H - T * S
    Electronic G            0.000 [kcal/mol]        0.000 [kJ/mol]       0.00000000 [Eh]
    Translational G        -9.349 [kcal/mol]      -39.115 [kJ/mol]      -0.01489824 [Eh]
    Rotational G           -4.768 [kcal/mol]      -19.950 [kJ/mol]      -0.00759846 [Eh]
    Vibrational G          32.090 [kcal/mol]      134.264 [kJ/mol]       0.05113833 [Eh]
  Correction G             17.973 [kcal/mol]       75.199 [kJ/mol]       0.02864162 [Eh]
  Total G, Free enthalpy at  298.15 [K]                               -115.69556367 [Eh]

    Psi4 stopped on: Tuesday, 27 April 2021 05:27PM
    Psi4 wall time for execution: 0:32:48.98

*** Psi4 exiting successfully. Buy a developer a beer!
