
    -----------------------------------------------------------------------
          Psi4: An Open-Source Ab Initio Electronic Structure Package
                               Psi4 1.3.2 release

                         Git: Rev {HEAD} ecbda83 


    R. M. Parrish, L. A. Burns, D. G. A. Smith, A. C. Simmonett,
    A. E. DePrince III, E. G. Hohenstein, U. Bozkaya, A. Yu. Sokolov,
    R. Di Remigio, R. M. Richard, J. F. Gonthier, A. M. James,
    H. R. McAlexander, A. Kumar, M. Saitow, X. Wang, B. P. Pritchard,
    P. Verma, H. F. Schaefer III, K. Patkowski, R. A. King, E. F. Valeev,
    F. A. Evangelista, J. M. Turney, T. D. Crawford, and C. D. Sherrill,
    J. Chem. Theory Comput. 13(7) pp 3185--3197 (2017).
    (doi: 10.1021/acs.jctc.7b00174)


                         Additional Contributions by
    P. Kraus, H. Kruse, M. H. Lechner, M. C. Schieber, R. A. Shaw,
    A. Alenaizan, R. Galvelis, Z. L. Glick, S. Lehtola, and J. P. Misiewicz

    -----------------------------------------------------------------------


    Psi4 started on: Friday, 23 April 2021 08:46AM

    Process ID: 97407
    Host:       bp1-compute00081.data.bp.acrc.priv
    PSIDATADIR: /work/zw18965/.conda/envs/p4env/share/psi4
    Memory:     500.0 MiB
    Threads:    24
    
  ==> Input File <==

--------------------------------------------------------------------------
memory 144 GB

molecule {
0 3
S 0.0000000000 0.0000000000 0.0000000000
S 0.0000000000 0.0000000000 1.8968845900
}

set reference uks
set basis aug-cc-pV(Q+d)Z

optimize("WB97M-V")
frequencies("WB97M-V")
--------------------------------------------------------------------------

  Memory set to 134.110 GiB by Python driver.
gradient() will perform gradient computation by finite difference of analytic energies.

         ----------------------------------------------------------
                                   FINDIF
                     R. A. King and Jonathon Misiewicz
         ---------------------------------------------------------

  Using finite-differences of energies to determine gradients.
    Generating geometries for use with 3-point formula.
    Displacement size will be 5.00e-03.
    Number of atoms is 2.
    Number of symmetric SALCs is 1.
    Translations projected? 1. Rotations projected? 1.
    Number of geometries (including reference) is 3.

  //>>>>>>>>>>>>>>>>>>>>>>>>>>>>>>>>>>>//
  //    Loading displacement 1 of 3    //
  //<<<<<<<<<<<<<<<<<<<<<<<<<<<<<<<<<<<//

*** tstart() called on bp1-compute00081.data.bp.acrc.priv
*** at Fri Apr 23 08:46:09 2021

   => Loading Basis Set <=

    Name: AUG-CC-PV(Q+D)Z
    Role: ORBITAL
    Keyword: BASIS
    atoms 1-2 entry S          line  1148 file /work/zw18965/.conda/envs/p4env/share/psi4/basis/aug-cc-pv_qpd_z.gbs 


         ---------------------------------------------------------
                                   SCF
               by Justin Turney, Rob Parrish, Andy Simmonett
                          and Daniel G. A. Smith
                              UKS Reference
                       24 Threads, 137329 MiB Core
         ---------------------------------------------------------

  ==> Geometry <==

    Molecular point group: d2h
    Full point group: D_inf_h

    Geometry (in Angstrom), charge = 0, multiplicity = 3:

       Center              X                  Y                   Z               Mass       
    ------------   -----------------  -----------------  -----------------  -----------------
         S            0.000000000000     0.000000000000    -0.948442295000    31.972071174400
         S            0.000000000000     0.000000000000     0.948442295000    31.972071174400

  Running in d2h symmetry.

  Rotational constants: A = ************  B =      0.29307  C =      0.29307 [cm^-1]
  Rotational constants: A = ************  B =   8786.06895  C =   8786.06895 [MHz]
  Nuclear repulsion =   71.416767601828639

  Charge       = 0
  Multiplicity = 3
  Electrons    = 32
  Nalpha       = 17
  Nbeta        = 15

  ==> Algorithm <==

  SCF Algorithm Type is DF.
  DIIS enabled.
  MOM disabled.
  Fractional occupation disabled.
  Guess Type is SAD.
  Energy threshold   = 1.00e-08
  Density threshold  = 1.00e-08
  Integral threshold = 0.00e+00

  ==> Primary Basis <==

  Basis Set: AUG-CC-PV(Q+D)Z
    Blend: AUG-CC-PV(Q+D)Z
    Number of shells: 46
    Number of basis function: 178
    Number of Cartesian functions: 230
    Spherical Harmonics?: true
    Max angular momentum: 4

  ==> DFT Potential <==

   => Composite Functional: WB97M-V <= 

    wB97M-V Hyb-GGA Exchange-Correlation Functional

    N. Mardirossian and M. Head-Gordon, J. Chem. Phys. 144, 214110 (2016)

    Deriv               =              1
    GGA                 =           TRUE
    Meta                =           TRUE

    Exchange Hybrid     =           TRUE
    MP2 Hybrid          =          FALSE

   => Exchange-Correlation Functionals <=

    1.0000   wB97M-V exchange-correlation functional

   => Exact (HF) Exchange <=

    0.8500            HF,LR [omega = 0.3000]
    0.1500               HF 

   => VV10 Non-Local Parameters <=

    VV10 B              =     6.0000E+00
    VV10 C              =     1.0000E-02

   => Molecular Quadrature <=

    Radial Scheme          =       TREUTLER
    Pruning Scheme         =           FLAT
    Nuclear Scheme         =       TREUTLER

    BS radius alpha        =              1
    Pruning alpha          =              1
    Radial Points          =             75
    Spherical Points       =            302
    Total Points           =          45300
    Total Blocks           =            426
    Max Points             =            255
    Max Functions          =            178

   => Loading Basis Set <=

    Name: (AUG-CC-PV(Q+D)Z AUX)
    Role: JKFIT
    Keyword: DF_BASIS_SCF
    atoms 1-2 entry S          line   810 file /work/zw18965/.conda/envs/p4env/share/psi4/basis/aug-cc-pvqz-jkfit.gbs 

  ==> Pre-Iterations <==

   -------------------------------------------------------
    Irrep   Nso     Nmo     Nalpha   Nbeta   Ndocc  Nsocc
   -------------------------------------------------------
     Ag        35      35       0       0       0       0
     B1g       12      12       0       0       0       0
     B2g       21      21       0       0       0       0
     B3g       21      21       0       0       0       0
     Au        12      12       0       0       0       0
     B1u       35      35       0       0       0       0
     B2u       21      21       0       0       0       0
     B3u       21      21       0       0       0       0
   -------------------------------------------------------
    Total     178     178      17      15      15       2
   -------------------------------------------------------

  ==> Integral Setup <==

  ==> DiskDFJK: Density-Fitted J/K Matrices <==

    J tasked:                  Yes
    K tasked:                  Yes
    wK tasked:                 Yes
    Omega:               3.000E-01
    OpenMP threads:             24
    Integrals threads:          24
    Memory [MiB]:           102461
    Algorithm:                Core
    Integral Cache:           NONE
    Schwarz Cutoff:          1E-12
    Fitting Condition:       1E-10

   => Auxiliary Basis Set <=

  Basis Set: (AUG-CC-PV(Q+D)Z AUX)
    Blend: AUG-CC-PVQZ-JKFIT
    Number of shells: 92
    Number of basis function: 368
    Number of Cartesian functions: 494
    Spherical Harmonics?: true
    Max angular momentum: 5

  Cached 100.0% of DFT collocation blocks in 0.523 [GiB].

  Minimum eigenvalue in the overlap matrix is 5.4683345451E-05.
  Using Symmetric Orthogonalization.

  SCF Guess: Superposition of Atomic Densities via on-the-fly atomic UHF.

  ==> Iterations <==

                           Total Energy        Delta E     RMS |[F,P]|

   @DF-UKS iter SAD:  -796.01627529638733   -7.96016e+02   0.00000e+00 
   @DF-UKS iter   1:  -796.35417193938054   -3.37897e-01   3.78668e-03 DIIS
   @DF-UKS iter   2:  -796.36902863234150   -1.48567e-02   1.31989e-03 DIIS
   @DF-UKS iter   3:  -796.37061030614223   -1.58167e-03   1.41381e-04 DIIS
   @DF-UKS iter   4:  -796.37075221000896   -1.41904e-04   3.17748e-05 DIIS
   @DF-UKS iter   5:  -796.37075732115875   -5.11115e-06   1.80766e-05 DIIS
   @DF-UKS iter   6:  -796.37075817204493   -8.50886e-07   2.54578e-06 DIIS
   @DF-UKS iter   7:  -796.37075822136205   -4.93171e-08   5.46263e-07 DIIS
   @DF-UKS iter   8:  -796.37075822383201   -2.46996e-09   9.76195e-08 DIIS
   @DF-UKS iter   9:  -796.37075822390830   -7.62839e-11   1.55796e-08 DIIS
   @DF-UKS iter  10:  -796.37075822390955   -1.25056e-12   2.66117e-09 DIIS
  Energy and wave function converged.


  ==> Post-Iterations <==

   @Spin Contamination Metric:   9.337764940E-03
   @S^2 Expected:                2.000000000E+00
   @S^2 Observed:                2.009337765E+00
   @S   Expected:                1.000000000E+00
   @S   Observed:                1.000000000E+00

    Orbital Energies [Eh]
    ---------------------

    Alpha Occupied:                                                       

       1B1u  -89.261196     1Ag   -89.261195     2Ag    -8.172399  
       2B1u   -8.172242     1B2u   -6.081921     1B3u   -6.081921  
       1B3g   -6.081881     1B2g   -6.081881     3Ag    -6.080121  
       3B1u   -6.079386     4Ag    -0.959173     4B1u   -0.746699  
       5Ag    -0.495579     2B2u   -0.478682     2B3u   -0.478682  
       2B3g   -0.333589     2B2g   -0.333589  

    Alpha Virtual:                                                        

       5B1u    0.024246     6Ag     0.048163     3B2u    0.055913  
       3B3u    0.055913     7Ag     0.072056     3B3g    0.079353  
       3B2g    0.079353     6B1u    0.085137     8Ag     0.142565  
       1B1g    0.142566     7B1u    0.163931     4B3u    0.195892  
       4B2u    0.195892     9Ag     0.204654     1Au     0.224489  
       8B1u    0.224493     4B3g    0.245808     4B2g    0.245808  
       9B1u    0.256080     5B3u    0.332888     5B2u    0.332888  
      10Ag     0.360747     2B1g    0.385902    11Ag     0.385903  
       6B2u    0.388218     6B3u    0.388218    10B1u    0.420941  
      12Ag     0.422629     5B3g    0.447018     5B2g    0.447018  
       7B2u    0.466194     7B3u    0.466194     2Au     0.470501  
      11B1u    0.470505    13Ag     0.516112     6B3g    0.555971  
       6B2g    0.555971    14Ag     0.560544     3B1g    0.560545  
       7B3g    0.586958     7B2g    0.586958    12B1u    0.615225  
       8B3u    0.704364     8B2u    0.704364     3Au     0.715731  
      13B1u    0.715740    14B1u    0.754971    15Ag     0.809317  
       8B3g    0.836619     8B2g    0.836619    15B1u    0.948309  
       9B2u    1.088580     9B3u    1.088580    16Ag     1.106243  
       4B1g    1.106247    17Ag     1.181187     4Au     1.201569  
      16B1u    1.201569     9B3g    1.224624     9B2g    1.224624  
      17B1u    1.239157    18Ag     1.259254    10B2u    1.262375  
      10B3u    1.262375     5B1g    1.275103    19Ag     1.275106  
      20Ag     1.283121     6B1g    1.283141    11B3u    1.338832  
      11B2u    1.338832    12B2u    1.376057    12B3u    1.376057  
      10B3g    1.416272    10B2g    1.416272    13B3u    1.436141  
      13B2u    1.436141    18B1u    1.443910     5Au     1.443926  
       6Au     1.501036    19B1u    1.501058    11B3g    1.566642  
      11B2g    1.566642    21Ag     1.568984    20B1u    1.579381  
      12B3g    1.580541    12B2g    1.580541     7B1g    1.623641  
      22Ag     1.623673    13B2g    1.691733    13B3g    1.691733  
      21B1u    1.963295    14B3u    1.971911    14B2u    1.971911  
      23Ag     2.085138    22B1u    2.095245     7Au     2.095259  
      23B1u    2.115816    14B3g    2.417773    14B2g    2.417773  
      24Ag     2.542679    24B1u    2.557671    25Ag     2.752509  
       8B1g    2.752585    25B1u    2.839235     8Au     2.839325  
      15B2u    2.840570    15B3u    2.840570    26Ag     3.021678  
      27Ag     3.172203    15B2g    3.217619    15B3g    3.217619  
      16B3u    3.295544    16B2u    3.295544     9B1g    3.297875  
      28Ag     3.297896    17B3u    3.333889    17B2u    3.333889  
      16B2g    3.394864    16B3g    3.394864    18B3u    3.457689  
      18B2u    3.457689    10B1g    3.486153    29Ag     3.486187  
      30Ag     3.496384    11B1g    3.496420    26B1u    3.514598  
      27B1u    3.565661     9Au     3.565710    10Au     3.582662  
      28B1u    3.582734    17B2g    3.664581    17B3g    3.664581  
      18B2g    3.722858    18B3g    3.722858    19B3u    3.789116  
      19B2u    3.789116    29B1u    3.895442    31Ag     3.974897  
      11Au     4.046797    30B1u    4.046800    19B2g    4.480216  
      19B3g    4.480216    31B1u    4.913790    20B3u    5.321039  
      20B2u    5.321039    20B2g    5.967987    20B3g    5.967987  
      32B1u    6.685873    32Ag     6.696482    12B1g    8.749197  
      33Ag     8.749244    12Au     8.817375    33B1u    8.817419  
      21B2u    8.859384    21B3u    8.859384    21B2g    9.195790  
      21B3g    9.195790    34Ag     9.212389    34B1u    9.318997  
      35Ag    17.740550    35B1u   20.355992  

    Beta Occupied:                                                        

       1Ag   -89.255006     1B1u  -89.255005     2Ag    -8.166208  
       2B1u   -8.165979     3Ag    -6.076258     3B1u   -6.075520  
       1B2u   -6.068581     1B3u   -6.068581     1B3g   -6.068524  
       1B2g   -6.068524     4Ag    -0.933810     4B1u   -0.690957  
       5Ag    -0.469925     2B2u   -0.422909     2B3u   -0.422909  

    Beta Virtual:                                                         

       2B2g   -0.062825     2B3g   -0.062825     5B1u    0.024565  
       6Ag     0.047081     3B2u    0.055180     3B3u    0.055180  
       7Ag     0.073853     3B2g    0.079933     3B3g    0.079933  
       6B1u    0.097704     1B1g    0.146987     8Ag     0.146987  
       7B1u    0.166856     9Ag     0.206112     4B3u    0.206172  
       4B2u    0.206172     1Au     0.224899     8B1u    0.224903  
       4B3g    0.246152     4B2g    0.246152     9B1u    0.258076  
       5B3u    0.338653     5B2u    0.338653    10Ag     0.363534  
       2B1g    0.401292    11Ag     0.401292     6B3u    0.411108  
       6B2u    0.411108    10B1u    0.424668    12Ag     0.425054  
       5B3g    0.448545     5B2g    0.448545     7B2u    0.465011  
       7B3u    0.465011     2Au     0.501138    11B1u    0.501145  
      13Ag     0.525398     3B1g    0.562833    14Ag     0.562836  
       6B3g    0.564126     6B2g    0.564126     7B3g    0.579016  
       7B2g    0.579016    12B1u    0.622213     8B2u    0.703002  
       8B3u    0.703002     3Au     0.714857    13B1u    0.714867  
      14B1u    0.758056    15Ag     0.823697     8B3g    0.850720  
       8B2g    0.850720    15B1u    0.954020     9B2u    1.090634  
       9B3u    1.090634    16Ag     1.129154     4B1g    1.129161  
      17Ag     1.186541    16B1u    1.224687     4Au     1.224704  
       9B3g    1.254749     9B2g    1.254749    17B1u    1.255852  
      10B2u    1.264146    10B3u    1.264146    18Ag     1.267405  
      19Ag     1.287138     5B1g    1.287156    20Ag     1.293784  
       6B1g    1.293791    11B3u    1.384300    11B2u    1.384300  
      12B2u    1.404189    12B3u    1.404189    18B1u    1.450148  
       5Au     1.450177    10B3g    1.451230    10B2g    1.451230  
      13B3u    1.452886    13B2u    1.452886     6Au     1.521123  
      19B1u    1.521152    11B3g    1.571899    11B2g    1.571899  
      21Ag     1.575206    20B1u    1.589803    12B3g    1.600375  
      12B2g    1.600375     7B1g    1.630347    22Ag     1.630388  
      13B2g    1.696401    13B3g    1.696401    21B1u    1.980696  
      14B3u    1.981698    14B2u    1.981698    22B1u    2.110162  
       7Au     2.110166    23B1u    2.130730    23Ag     2.133251  
      14B3g    2.453129    14B2g    2.453129    24Ag     2.556141  
      24B1u    2.595907    25Ag     2.809067     8B1g    2.809079  
      15B2u    2.871606    15B3u    2.871606    25B1u    2.894540  
       8Au     2.894566    26Ag     3.035194    27Ag     3.187828  
      15B2g    3.248957    15B3g    3.248957    16B2u    3.308203  
      16B3u    3.308203     9B1g    3.321870    28Ag     3.321871  
      17B3u    3.410903    17B2u    3.410903    16B2g    3.473655  
      16B3g    3.473655    18B3u    3.508491    18B2u    3.508491  
      10B1g    3.536855    29Ag     3.536871    26B1u    3.541210  
      11B1g    3.577095    30Ag     3.577102     9Au     3.631762  
      27B1u    3.631791    28B1u    3.645472    10Au     3.645473  
      17B2g    3.691345    17B3g    3.691345    18B2g    3.775389  
      18B3g    3.775389    19B3u    3.826607    19B2u    3.826607  
      29B1u    3.918875    31Ag     3.994994    30B1u    4.083680  
      11Au     4.083682    19B2g    4.504135    19B3g    4.504135  
      31B1u    4.922103    20B3u    5.374797    20B2u    5.374797  
      20B2g    6.023636    20B3g    6.023636    32B1u    6.693054  
      32Ag     6.702511    12B1g    8.781909    33Ag     8.781978  
      12Au     8.851396    33B1u    8.851466    21B2u    8.875962  
      21B3u    8.875962    21B2g    9.214788    21B3g    9.214788  
      34Ag     9.228028    34B1u    9.335004    35Ag    17.754653  
      35B1u   20.366028  

    Final Occupation by Irrep:
             Ag   B1g   B2g   B3g    Au   B1u   B2u   B3u 
    DOCC [     5,    0,    1,    1,    0,    4,    2,    2 ]
    SOCC [     0,    0,    1,    1,    0,    0,    0,    0 ]

  @DF-UKS Final Energy:  -796.37075822390955

   => Energetics <=

    Nuclear Repulsion Energy =             71.4167676018286386
    One-Electron Energy =               -1241.4197276304071238
    Two-Electron Energy =                 413.0691970718844459
    DFT Exchange-Correlation Energy =     -39.5705815101210590
    Empirical Dispersion Energy =           0.0000000000000000
    VV10 Nonlocal Energy =                  0.1335862429054461
    Total Energy =                       -796.3707582239095473

  UHF NO Occupations:
  HONO-2 :    2B3u 1.9979300
  HONO-1 :    2B2g 1.0000000
  HONO-0 :    2B3g 1.0000000
  LUNO+0 :    3B3u 0.0020700
  LUNO+1 :    3B2u 0.0020700
  LUNO+2 :    5B1u 0.0002679
  LUNO+3 :    6 Ag 0.0002102


Computation Completed


Properties will be evaluated at   0.000000,   0.000000,   0.000000 [a0]

Properties computed using the SCF density matrix

  Nuclear Dipole Moment: [e a0]
     X:     0.0000      Y:     0.0000      Z:     0.0000

  Electronic Dipole Moment: [e a0]
     X:     0.0000      Y:     0.0000      Z:     0.0000

  Dipole Moment: [e a0]
     X:     0.0000      Y:     0.0000      Z:     0.0000     Total:     0.0000

  Dipole Moment: [D]
     X:     0.0000      Y:     0.0000      Z:     0.0000     Total:     0.0000


*** tstop() called on bp1-compute00081.data.bp.acrc.priv at Fri Apr 23 08:46:23 2021
Module time:
	user time   =     284.50 seconds =       4.74 minutes
	system time =      18.44 seconds =       0.31 minutes
	total time  =         14 seconds =       0.23 minutes
Total time:
	user time   =     284.50 seconds =       4.74 minutes
	system time =      18.44 seconds =       0.31 minutes
	total time  =         14 seconds =       0.23 minutes

  //>>>>>>>>>>>>>>>>>>>>>>>>>>>>>>>>>>>//
  //    Loading displacement 2 of 3    //
  //<<<<<<<<<<<<<<<<<<<<<<<<<<<<<<<<<<<//

*** tstart() called on bp1-compute00081.data.bp.acrc.priv
*** at Fri Apr 23 08:46:23 2021

   => Loading Basis Set <=

    Name: AUG-CC-PV(Q+D)Z
    Role: ORBITAL
    Keyword: BASIS
    atoms 1-2 entry S          line  1148 file /work/zw18965/.conda/envs/p4env/share/psi4/basis/aug-cc-pv_qpd_z.gbs 


         ---------------------------------------------------------
                                   SCF
               by Justin Turney, Rob Parrish, Andy Simmonett
                          and Daniel G. A. Smith
                              UKS Reference
                       24 Threads, 137329 MiB Core
         ---------------------------------------------------------

  ==> Geometry <==

    Molecular point group: d2h
    Full point group: D_inf_h

    Geometry (in Angstrom), charge = 0, multiplicity = 3:

       Center              X                  Y                   Z               Mass       
    ------------   -----------------  -----------------  -----------------  -----------------
         S            0.000000000000     0.000000000000    -0.948773175180    31.972071174400
         S            0.000000000000     0.000000000000     0.948773175180    31.972071174400

  Running in d2h symmetry.

  Rotational constants: A = ************  B =      0.29287  C =      0.29287 [cm^-1]
  Rotational constants: A = ************  B =   8779.94182  C =   8779.94182 [MHz]
  Nuclear repulsion =   71.391861340186367

  Charge       = 0
  Multiplicity = 3
  Electrons    = 32
  Nalpha       = 17
  Nbeta        = 15

  ==> Algorithm <==

  SCF Algorithm Type is DF.
  DIIS enabled.
  MOM disabled.
  Fractional occupation disabled.
  Guess Type is SAD.
  Energy threshold   = 1.00e-08
  Density threshold  = 1.00e-08
  Integral threshold = 0.00e+00

  ==> Primary Basis <==

  Basis Set: AUG-CC-PV(Q+D)Z
    Blend: AUG-CC-PV(Q+D)Z
    Number of shells: 46
    Number of basis function: 178
    Number of Cartesian functions: 230
    Spherical Harmonics?: true
    Max angular momentum: 4

  ==> DFT Potential <==

   => Composite Functional: WB97M-V <= 

    wB97M-V Hyb-GGA Exchange-Correlation Functional

    N. Mardirossian and M. Head-Gordon, J. Chem. Phys. 144, 214110 (2016)

    Deriv               =              1
    GGA                 =           TRUE
    Meta                =           TRUE

    Exchange Hybrid     =           TRUE
    MP2 Hybrid          =          FALSE

   => Exchange-Correlation Functionals <=

    1.0000   wB97M-V exchange-correlation functional

   => Exact (HF) Exchange <=

    0.8500            HF,LR [omega = 0.3000]
    0.1500               HF 

   => VV10 Non-Local Parameters <=

    VV10 B              =     6.0000E+00
    VV10 C              =     1.0000E-02

   => Molecular Quadrature <=

    Radial Scheme          =       TREUTLER
    Pruning Scheme         =           FLAT
    Nuclear Scheme         =       TREUTLER

    BS radius alpha        =              1
    Pruning alpha          =              1
    Radial Points          =             75
    Spherical Points       =            302
    Total Points           =          45300
    Total Blocks           =            426
    Max Points             =            254
    Max Functions          =            178

   => Loading Basis Set <=

    Name: (AUG-CC-PV(Q+D)Z AUX)
    Role: JKFIT
    Keyword: DF_BASIS_SCF
    atoms 1-2 entry S          line   810 file /work/zw18965/.conda/envs/p4env/share/psi4/basis/aug-cc-pvqz-jkfit.gbs 

  ==> Pre-Iterations <==

   -------------------------------------------------------
    Irrep   Nso     Nmo     Nalpha   Nbeta   Ndocc  Nsocc
   -------------------------------------------------------
     Ag        35      35       0       0       0       0
     B1g       12      12       0       0       0       0
     B2g       21      21       0       0       0       0
     B3g       21      21       0       0       0       0
     Au        12      12       0       0       0       0
     B1u       35      35       0       0       0       0
     B2u       21      21       0       0       0       0
     B3u       21      21       0       0       0       0
   -------------------------------------------------------
    Total     178     178      17      15      15       2
   -------------------------------------------------------

  ==> Integral Setup <==

  ==> DiskDFJK: Density-Fitted J/K Matrices <==

    J tasked:                  Yes
    K tasked:                  Yes
    wK tasked:                 Yes
    Omega:               3.000E-01
    OpenMP threads:             24
    Integrals threads:          24
    Memory [MiB]:           102461
    Algorithm:                Core
    Integral Cache:           NONE
    Schwarz Cutoff:          1E-12
    Fitting Condition:       1E-10

   => Auxiliary Basis Set <=

  Basis Set: (AUG-CC-PV(Q+D)Z AUX)
    Blend: AUG-CC-PVQZ-JKFIT
    Number of shells: 92
    Number of basis function: 368
    Number of Cartesian functions: 494
    Spherical Harmonics?: true
    Max angular momentum: 5

  Cached 100.0% of DFT collocation blocks in 0.523 [GiB].

  Minimum eigenvalue in the overlap matrix is 5.4770509342E-05.
  Using Symmetric Orthogonalization.

  SCF Guess: Superposition of Atomic Densities via on-the-fly atomic UHF.

  ==> Iterations <==

                           Total Energy        Delta E     RMS |[F,P]|

   @DF-UKS iter SAD:  -796.01523043217787   -7.96015e+02   0.00000e+00 
   @DF-UKS iter   1:  -796.35416732277599   -3.38937e-01   3.78604e-03 DIIS
   @DF-UKS iter   2:  -796.36901635331492   -1.48490e-02   1.31975e-03 DIIS
   @DF-UKS iter   3:  -796.37059752442724   -1.58117e-03   1.41287e-04 DIIS
   @DF-UKS iter   4:  -796.37073941222366   -1.41888e-04   3.15563e-05 DIIS
   @DF-UKS iter   5:  -796.37074453143180   -5.11921e-06   1.79299e-05 DIIS
   @DF-UKS iter   6:  -796.37074536435171   -8.32920e-07   2.55548e-06 DIIS
   @DF-UKS iter   7:  -796.37074541365291   -4.93012e-08   5.46571e-07 DIIS
   @DF-UKS iter   8:  -796.37074541612401   -2.47110e-09   9.76339e-08 DIIS
   @DF-UKS iter   9:  -796.37074541620109   -7.70797e-11   1.55785e-08 DIIS
   @DF-UKS iter  10:  -796.37074541620200   -9.09495e-13   2.66083e-09 DIIS
  Energy and wave function converged.


  ==> Post-Iterations <==

   @Spin Contamination Metric:   9.342957556E-03
   @S^2 Expected:                2.000000000E+00
   @S^2 Observed:                2.009342958E+00
   @S   Expected:                1.000000000E+00
   @S   Observed:                1.000000000E+00

    Orbital Energies [Eh]
    ---------------------

    Alpha Occupied:                                                       

       1B1u  -89.261255     1Ag   -89.261253     2Ag    -8.172439  
       2B1u   -8.172282     1B3u   -6.081962     1B2u   -6.081962  
       1B2g   -6.081922     1B3g   -6.081922     3Ag    -6.080162  
       3B1u   -6.079430     4Ag    -0.959009     4B1u   -0.746775  
       5Ag    -0.495536     2B3u   -0.478599     2B2u   -0.478599  
       2B2g   -0.333664     2B3g   -0.333664  

    Alpha Virtual:                                                        

       5B1u    0.024209     6Ag     0.048160     3B3u    0.055918  
       3B2u    0.055918     7Ag     0.072063     3B2g    0.079353  
       3B3g    0.079353     6B1u    0.085003     8Ag     0.142572  
       1B1g    0.142573     7B1u    0.163904     4B2u    0.195873  
       4B3u    0.195873     9Ag     0.204684     1Au     0.224478  
       8B1u    0.224482     4B2g    0.245814     4B3g    0.245814  
       9B1u    0.256018     5B3u    0.332935     5B2u    0.332935  
      10Ag     0.360781     2B1g    0.385939    11Ag     0.385939  
       6B3u    0.388196     6B2u    0.388196    10B1u    0.420956  
      12Ag     0.422651     5B3g    0.446990     5B2g    0.446990  
       7B3u    0.466197     7B2u    0.466197     2Au     0.470479  
      11B1u    0.470483    13Ag     0.516022     6B3g    0.555887  
       6B2g    0.555887    14Ag     0.560490     3B1g    0.560491  
       7B2g    0.586928     7B3g    0.586928    12B1u    0.615127  
       8B2u    0.704346     8B3u    0.704346     3Au     0.715690  
      13B1u    0.715699    14B1u    0.754819    15Ag     0.809309  
       8B3g    0.836481     8B2g    0.836481    15B1u    0.948215  
       9B3u    1.088624     9B2u    1.088624    16Ag     1.106285  
       4B1g    1.106289    17Ag     1.181157     4Au     1.201486  
      16B1u    1.201486     9B3g    1.224772     9B2g    1.224772  
      17B1u    1.238946    18Ag     1.259413    10B3u    1.262387  
      10B2u    1.262387     5B1g    1.275026    19Ag     1.275030  
      20Ag     1.283163     6B1g    1.283183    11B2u    1.338843  
      11B3u    1.338843    12B3u    1.375984    12B2u    1.375984  
      10B2g    1.416238    10B3g    1.416238    13B3u    1.436023  
      13B2u    1.436023    18B1u    1.443838     5Au     1.443854  
       6Au     1.501015    19B1u    1.501036    11B3g    1.566503  
      11B2g    1.566503    21Ag     1.568785    20B1u    1.579235  
      12B3g    1.580225    12B2g    1.580225     7B1g    1.623451  
      22Ag     1.623483    13B3g    1.691542    13B2g    1.691542  
      21B1u    1.963252    14B3u    1.971466    14B2u    1.971466  
      23Ag     2.085038    22B1u    2.094909     7Au     2.094923  
      23B1u    2.115636    14B3g    2.417866    14B2g    2.417866  
      24Ag     2.542187    24B1u    2.557602    25Ag     2.752494  
       8B1g    2.752570    25B1u    2.839128     8Au     2.839219  
      15B3u    2.840572    15B2u    2.840572    26Ag     3.021512  
      27Ag     3.172315    15B2g    3.217043    15B3g    3.217043  
      16B2u    3.295667    16B3u    3.295667     9B1g    3.298284  
      28Ag     3.298306    17B3u    3.333873    17B2u    3.333873  
      16B2g    3.394817    16B3g    3.394817    18B3u    3.457901  
      18B2u    3.457901    10B1g    3.485892    29Ag     3.485926  
      30Ag     3.496415    11B1g    3.496452    26B1u    3.514421  
      27B1u    3.565601     9Au     3.565652    10Au     3.582496  
      28B1u    3.582568    17B3g    3.664522    17B2g    3.664522  
      18B2g    3.722570    18B3g    3.722570    19B2u    3.788572  
      19B3u    3.788572    29B1u    3.894661    31Ag     3.973927  
      11Au     4.046139    30B1u    4.046142    19B3g    4.479143  
      19B2g    4.479143    31B1u    4.914614    20B2u    5.320876  
      20B3u    5.320876    20B3g    5.967512    20B2g    5.967512  
      32B1u    6.682928    32Ag     6.695968    12B1g    8.749156  
      33Ag     8.749202    12Au     8.817277    33B1u    8.817320  
      21B3u    8.859112    21B2u    8.859112    21B3g    9.195155  
      21B2g    9.195155    34Ag     9.211752    34B1u    9.319337  
      35Ag    17.738266    35B1u   20.355391  

    Beta Occupied:                                                        

       1Ag   -89.255064     1B1u  -89.255063     2Ag    -8.166248  
       2B1u   -8.166019     3Ag    -6.076299     3B1u   -6.075564  
       1B3u   -6.068621     1B2u   -6.068621     1B2g   -6.068564  
       1B3g   -6.068564     4Ag    -0.933630     4B1u   -0.691036  
       5Ag    -0.469889     2B2u   -0.422804     2B3u   -0.422804  

    Beta Virtual:                                                         

       2B3g   -0.062904     2B2g   -0.062904     5B1u    0.024542  
       6Ag     0.047081     3B3u    0.055189     3B2u    0.055189  
       7Ag     0.073863     3B2g    0.079935     3B3g    0.079935  
       6B1u    0.097578     1B1g    0.146996     8Ag     0.146996  
       7B1u    0.166820     9Ag     0.206143     4B2u    0.206155  
       4B3u    0.206155     1Au     0.224895     8B1u    0.224899  
       4B2g    0.246160     4B3g    0.246160     9B1u    0.258009  
       5B3u    0.338702     5B2u    0.338702    10Ag     0.363566  
       2B1g    0.401329    11Ag     0.401330     6B2u    0.411079  
       6B3u    0.411079    10B1u    0.424682    12Ag     0.425078  
       5B3g    0.448522     5B2g    0.448522     7B3u    0.465016  
       7B2u    0.465016     2Au     0.501120    11B1u    0.501127  
      13Ag     0.525314     3B1g    0.562784    14Ag     0.562787  
       6B3g    0.564053     6B2g    0.564053     7B2g    0.578991  
       7B3g    0.578991    12B1u    0.622126     8B3u    0.702982  
       8B2u    0.702982     3Au     0.714807    13B1u    0.714817  
      14B1u    0.757888    15Ag     0.823689     8B3g    0.850576  
       8B2g    0.850576    15B1u    0.953938     9B3u    1.090686  
       9B2u    1.090686    16Ag     1.129204     4B1g    1.129212  
      17Ag     1.186497    16B1u    1.224608     4Au     1.224626  
       9B3g    1.254903     9B2g    1.254903    17B1u    1.255636  
      10B3u    1.264139    10B2u    1.264139    18Ag     1.267566  
      19Ag     1.287179     5B1g    1.287197    20Ag     1.293690  
       6B1g    1.293697    11B2u    1.384307    11B3u    1.384307  
      12B3u    1.404129    12B2u    1.404129    18B1u    1.450074  
       5Au     1.450103    10B2g    1.451193    10B3g    1.451193  
      13B2u    1.452778    13B3u    1.452778     6Au     1.521103  
      19B1u    1.521131    11B3g    1.571695    11B2g    1.571695  
      21Ag     1.575012    20B1u    1.589661    12B3g    1.600117  
      12B2g    1.600117     7B1g    1.630157    22Ag     1.630198  
      13B3g    1.696203    13B2g    1.696203    21B1u    1.980629  
      14B2u    1.981229    14B3u    1.981229    22B1u    2.109802  
       7Au     2.109806    23B1u    2.130571    23Ag     2.133133  
      14B3g    2.453208    14B2g    2.453208    24Ag     2.555664  
      24B1u    2.595823    25Ag     2.809053     8B1g    2.809065  
      15B3u    2.871608    15B2u    2.871608    25B1u    2.894439  
       8Au     2.894466    26Ag     3.035026    27Ag     3.187908  
      15B2g    3.248356    15B3g    3.248356    16B2u    3.308320  
      16B3u    3.308320     9B1g    3.322302    28Ag     3.322303  
      17B3u    3.410914    17B2u    3.410914    16B2g    3.473611  
      16B3g    3.473611    18B3u    3.508695    18B2u    3.508695  
      10B1g    3.536586    29Ag     3.536602    26B1u    3.541050  
      11B1g    3.577134    30Ag     3.577141     9Au     3.631590  
      27B1u    3.631620    28B1u    3.645419    10Au     3.645421  
      17B3g    3.691300    17B2g    3.691300    18B2g    3.775100  
      18B3g    3.775100    19B2u    3.826064    19B3u    3.826064  
      29B1u    3.918067    31Ag     3.994052    30B1u    4.083012  
      11Au     4.083014    19B3g    4.503055    19B2g    4.503055  
      31B1u    4.922894    20B2u    5.374641    20B3u    5.374641  
      20B3g    6.023158    20B2g    6.023158    32B1u    6.690122  
      32Ag     6.701989    12B1g    8.781870    33Ag     8.781939  
      12Au     8.851300    33B1u    8.851369    21B3u    8.875689  
      21B2u    8.875689    21B3g    9.214148    21B2g    9.214148  
      34Ag     9.227379    34B1u    9.335351    35Ag    17.752380  
      35B1u   20.365422  

    Final Occupation by Irrep:
             Ag   B1g   B2g   B3g    Au   B1u   B2u   B3u 
    DOCC [     5,    0,    1,    1,    0,    4,    2,    2 ]
    SOCC [     0,    0,    1,    1,    0,    0,    0,    0 ]

  @DF-UKS Final Energy:  -796.37074541620200

   => Energetics <=

    Nuclear Repulsion Energy =             71.3918613401863666
    One-Electron Energy =               -1241.3696458768145021
    Two-Electron Energy =                 413.0437716950983713
    DFT Exchange-Correlation Energy =     -39.5703197129989732
    Empirical Dispersion Energy =           0.0000000000000000
    VV10 Nonlocal Energy =                  0.1335871383265820
    Total Energy =                       -796.3707454162022259

  UHF NO Occupations:
  HONO-2 :    2B3u 1.9979287
  HONO-1 :    2B2g 1.0000000
  HONO-0 :    2B3g 1.0000000
  LUNO+0 :    3B3u 0.0020713
  LUNO+1 :    3B2u 0.0020713
  LUNO+2 :    5B1u 0.0002679
  LUNO+3 :    6 Ag 0.0002102


Computation Completed


Properties will be evaluated at   0.000000,   0.000000,   0.000000 [a0]

Properties computed using the SCF density matrix

  Nuclear Dipole Moment: [e a0]
     X:     0.0000      Y:     0.0000      Z:     0.0000

  Electronic Dipole Moment: [e a0]
     X:     0.0000      Y:     0.0000      Z:     0.0000

  Dipole Moment: [e a0]
     X:     0.0000      Y:     0.0000      Z:     0.0000     Total:     0.0000

  Dipole Moment: [D]
     X:     0.0000      Y:     0.0000      Z:     0.0000     Total:     0.0000


*** tstop() called on bp1-compute00081.data.bp.acrc.priv at Fri Apr 23 08:46:36 2021
Module time:
	user time   =     282.88 seconds =       4.71 minutes
	system time =      11.92 seconds =       0.20 minutes
	total time  =         13 seconds =       0.22 minutes
Total time:
	user time   =     567.54 seconds =       9.46 minutes
	system time =      30.36 seconds =       0.51 minutes
	total time  =         27 seconds =       0.45 minutes

  //>>>>>>>>>>>>>>>>>>>>>>>>>>>>>>>>>>>//
  //    Loading displacement 3 of 3    //
  //<<<<<<<<<<<<<<<<<<<<<<<<<<<<<<<<<<<//

*** tstart() called on bp1-compute00081.data.bp.acrc.priv
*** at Fri Apr 23 08:46:36 2021

   => Loading Basis Set <=

    Name: AUG-CC-PV(Q+D)Z
    Role: ORBITAL
    Keyword: BASIS
    atoms 1-2 entry S          line  1148 file /work/zw18965/.conda/envs/p4env/share/psi4/basis/aug-cc-pv_qpd_z.gbs 


         ---------------------------------------------------------
                                   SCF
               by Justin Turney, Rob Parrish, Andy Simmonett
                          and Daniel G. A. Smith
                              UKS Reference
                       24 Threads, 137329 MiB Core
         ---------------------------------------------------------

  ==> Geometry <==

    Molecular point group: d2h
    Full point group: D_inf_h

    Geometry (in Angstrom), charge = 0, multiplicity = 3:

       Center              X                  Y                   Z               Mass       
    ------------   -----------------  -----------------  -----------------  -----------------
         S            0.000000000000     0.000000000000    -0.948111414820    31.972071174400
         S            0.000000000000     0.000000000000     0.948111414820    31.972071174400

  Running in d2h symmetry.

  Rotational constants: A = ************  B =      0.29328  C =      0.29328 [cm^-1]
  Rotational constants: A = ************  B =   8792.20250  C =   8792.20250 [MHz]
  Nuclear repulsion =   71.441691247479170

  Charge       = 0
  Multiplicity = 3
  Electrons    = 32
  Nalpha       = 17
  Nbeta        = 15

  ==> Algorithm <==

  SCF Algorithm Type is DF.
  DIIS enabled.
  MOM disabled.
  Fractional occupation disabled.
  Guess Type is SAD.
  Energy threshold   = 1.00e-08
  Density threshold  = 1.00e-08
  Integral threshold = 0.00e+00

  ==> Primary Basis <==

  Basis Set: AUG-CC-PV(Q+D)Z
    Blend: AUG-CC-PV(Q+D)Z
    Number of shells: 46
    Number of basis function: 178
    Number of Cartesian functions: 230
    Spherical Harmonics?: true
    Max angular momentum: 4

  ==> DFT Potential <==

   => Composite Functional: WB97M-V <= 

    wB97M-V Hyb-GGA Exchange-Correlation Functional

    N. Mardirossian and M. Head-Gordon, J. Chem. Phys. 144, 214110 (2016)

    Deriv               =              1
    GGA                 =           TRUE
    Meta                =           TRUE

    Exchange Hybrid     =           TRUE
    MP2 Hybrid          =          FALSE

   => Exchange-Correlation Functionals <=

    1.0000   wB97M-V exchange-correlation functional

   => Exact (HF) Exchange <=

    0.8500            HF,LR [omega = 0.3000]
    0.1500               HF 

   => VV10 Non-Local Parameters <=

    VV10 B              =     6.0000E+00
    VV10 C              =     1.0000E-02

   => Molecular Quadrature <=

    Radial Scheme          =       TREUTLER
    Pruning Scheme         =           FLAT
    Nuclear Scheme         =       TREUTLER

    BS radius alpha        =              1
    Pruning alpha          =              1
    Radial Points          =             75
    Spherical Points       =            302
    Total Points           =          45300
    Total Blocks           =            426
    Max Points             =            255
    Max Functions          =            178

   => Loading Basis Set <=

    Name: (AUG-CC-PV(Q+D)Z AUX)
    Role: JKFIT
    Keyword: DF_BASIS_SCF
    atoms 1-2 entry S          line   810 file /work/zw18965/.conda/envs/p4env/share/psi4/basis/aug-cc-pvqz-jkfit.gbs 

  ==> Pre-Iterations <==

   -------------------------------------------------------
    Irrep   Nso     Nmo     Nalpha   Nbeta   Ndocc  Nsocc
   -------------------------------------------------------
     Ag        35      35       0       0       0       0
     B1g       12      12       0       0       0       0
     B2g       21      21       0       0       0       0
     B3g       21      21       0       0       0       0
     Au        12      12       0       0       0       0
     B1u       35      35       0       0       0       0
     B2u       21      21       0       0       0       0
     B3u       21      21       0       0       0       0
   -------------------------------------------------------
    Total     178     178      17      15      15       2
   -------------------------------------------------------

  ==> Integral Setup <==

  ==> DiskDFJK: Density-Fitted J/K Matrices <==

    J tasked:                  Yes
    K tasked:                  Yes
    wK tasked:                 Yes
    Omega:               3.000E-01
    OpenMP threads:             24
    Integrals threads:          24
    Memory [MiB]:           102461
    Algorithm:                Core
    Integral Cache:           NONE
    Schwarz Cutoff:          1E-12
    Fitting Condition:       1E-10

   => Auxiliary Basis Set <=

  Basis Set: (AUG-CC-PV(Q+D)Z AUX)
    Blend: AUG-CC-PVQZ-JKFIT
    Number of shells: 92
    Number of basis function: 368
    Number of Cartesian functions: 494
    Spherical Harmonics?: true
    Max angular momentum: 5

  Cached 100.0% of DFT collocation blocks in 0.523 [GiB].

  Minimum eigenvalue in the overlap matrix is 5.4596295962E-05.
  Using Symmetric Orthogonalization.

  SCF Guess: Superposition of Atomic Densities via on-the-fly atomic UHF.

  ==> Iterations <==

                           Total Energy        Delta E     RMS |[F,P]|

   @DF-UKS iter SAD:  -796.01728581954467   -7.96017e+02   0.00000e+00 
   @DF-UKS iter   1:  -796.35417637797207   -3.36891e-01   3.78733e-03 DIIS
   @DF-UKS iter   2:  -796.36904043893696   -1.48641e-02   1.32005e-03 DIIS
   @DF-UKS iter   3:  -796.37062259222785   -1.58215e-03   1.41468e-04 DIIS
   @DF-UKS iter   4:  -796.37076450191785   -1.41910e-04   3.19882e-05 DIIS
   @DF-UKS iter   5:  -796.37076960636000   -5.10444e-06   1.82093e-05 DIIS
   @DF-UKS iter   6:  -796.37077047430762   -8.67948e-07   2.53704e-06 DIIS
   @DF-UKS iter   7:  -796.37077052363475   -4.93271e-08   5.45965e-07 DIIS
   @DF-UKS iter   8:  -796.37077052610357   -2.46882e-09   9.76039e-08 DIIS
   @DF-UKS iter   9:  -796.37077052617974   -7.61702e-11   1.55805e-08 DIIS
   @DF-UKS iter  10:  -796.37077052618110   -1.36424e-12   2.66139e-09 DIIS
  Energy and wave function converged.


  ==> Post-Iterations <==

   @Spin Contamination Metric:   9.332572606E-03
   @S^2 Expected:                2.000000000E+00
   @S^2 Observed:                2.009332573E+00
   @S   Expected:                1.000000000E+00
   @S   Observed:                1.000000000E+00

    Orbital Energies [Eh]
    ---------------------

    Alpha Occupied:                                                       

       1B1u  -89.261137     1Ag   -89.261136     2Ag    -8.172359  
       2B1u   -8.172201     1B3u   -6.081880     1B2u   -6.081880  
       1B2g   -6.081840     1B3g   -6.081840     3Ag    -6.080081  
       3B1u   -6.079342     4Ag    -0.959338     4B1u   -0.746623  
       5Ag    -0.495621     2B2u   -0.478764     2B3u   -0.478764  
       2B3g   -0.333514     2B2g   -0.333514  

    Alpha Virtual:                                                        

       5B1u    0.024282     6Ag     0.048166     3B2u    0.055908  
       3B3u    0.055908     7Ag     0.072049     3B2g    0.079352  
       3B3g    0.079352     6B1u    0.085272     8Ag     0.142558  
       1B1g    0.142559     7B1u    0.163958     4B2u    0.195911  
       4B3u    0.195911     9Ag     0.204625     1Au     0.224500  
       8B1u    0.224504     4B3g    0.245802     4B2g    0.245802  
       9B1u    0.256143     5B2u    0.332840     5B3u    0.332840  
      10Ag     0.360714     2B1g    0.385866    11Ag     0.385867  
       6B3u    0.388241     6B2u    0.388241    10B1u    0.420926  
      12Ag     0.422607     5B3g    0.447046     5B2g    0.447046  
       7B2u    0.466191     7B3u    0.466191     2Au     0.470523  
      11B1u    0.470527    13Ag     0.516202     6B3g    0.556055  
       6B2g    0.556055    14Ag     0.560598     3B1g    0.560599  
       7B3g    0.586988     7B2g    0.586988    12B1u    0.615323  
       8B2u    0.704381     8B3u    0.704381     3Au     0.715773  
      13B1u    0.715782    14B1u    0.755124    15Ag     0.809325  
       8B3g    0.836757     8B2g    0.836757    15B1u    0.948403  
       9B2u    1.088536     9B3u    1.088536    16Ag     1.106201  
       4B1g    1.106206    17Ag     1.181216    16B1u    1.201652  
       4Au     1.201653     9B3g    1.224477     9B2g    1.224477  
      17B1u    1.239370    18Ag     1.259095    10B3u    1.262364  
      10B2u    1.262364     5B1g    1.275179    19Ag     1.275183  
      20Ag     1.283080     6B1g    1.283100    11B3u    1.338822  
      11B2u    1.338822    12B3u    1.376131    12B2u    1.376131  
      10B2g    1.416305    10B3g    1.416305    13B3u    1.436259  
      13B2u    1.436259    18B1u    1.443982     5Au     1.443998  
       6Au     1.501058    19B1u    1.501080    11B3g    1.566781  
      11B2g    1.566781    21Ag     1.569183    20B1u    1.579527  
      12B3g    1.580859    12B2g    1.580859     7B1g    1.623831  
      22Ag     1.623863    13B2g    1.691924    13B3g    1.691924  
      21B1u    1.963336    14B3u    1.972357    14B2u    1.972357  
      23Ag     2.085236    22B1u    2.095581     7Au     2.095595  
      23B1u    2.115999    14B3g    2.417679    14B2g    2.417679  
      24Ag     2.543169    24B1u    2.557740    25Ag     2.752523  
       8B1g    2.752599    25B1u    2.839342     8Au     2.839432  
      15B2u    2.840568    15B3u    2.840568    26Ag     3.021844  
      27Ag     3.172093    15B2g    3.218196    15B3g    3.218196  
      16B2u    3.295423    16B3u    3.295423     9B1g    3.297465  
      28Ag     3.297487    17B2u    3.333905    17B3u    3.333905  
      16B3g    3.394911    16B2g    3.394911    18B3u    3.457478  
      18B2u    3.457478    10B1g    3.486416    29Ag     3.486449  
      30Ag     3.496353    11B1g    3.496389    26B1u    3.514775  
      27B1u    3.565720     9Au     3.565769    10Au     3.582829  
      28B1u    3.582900    17B3g    3.664639    17B2g    3.664639  
      18B2g    3.723147    18B3g    3.723147    19B3u    3.789661  
      19B2u    3.789661    29B1u    3.896223    31Ag     3.975869  
      11Au     4.047455    30B1u    4.047458    19B2g    4.481289  
      19B3g    4.481289    31B1u    4.912960    20B3u    5.321202  
      20B2u    5.321202    20B3g    5.968460    20B2g    5.968460  
      32B1u    6.688830    32Ag     6.696993    12B1g    8.749239  
      33Ag     8.749286    12Au     8.817473    33B1u    8.817518  
      21B2u    8.859656    21B3u    8.859656    21B2g    9.196426  
      21B3g    9.196426    34Ag     9.213025    34B1u    9.318658  
      35Ag    17.742842    35B1u   20.356580  

    Beta Occupied:                                                        

       1Ag   -89.254947     1B1u  -89.254947     2Ag    -8.166169  
       2B1u   -8.165939     3Ag    -6.076218     3B1u   -6.075477  
       1B3u   -6.068541     1B2u   -6.068541     1B2g   -6.068484  
       1B3g   -6.068484     4Ag    -0.933990     4B1u   -0.690878  
       5Ag    -0.469960     2B2u   -0.423013     2B3u   -0.423013  

    Beta Virtual:                                                         

       2B2g   -0.062747     2B3g   -0.062747     5B1u    0.024587  
       6Ag     0.047081     3B3u    0.055170     3B2u    0.055170  
       7Ag     0.073843     3B2g    0.079932     3B3g    0.079932  
       6B1u    0.097831     1B1g    0.146977     8Ag     0.146977  
       7B1u    0.166892     9Ag     0.206081     4B2u    0.206188  
       4B3u    0.206188     1Au     0.224903     8B1u    0.224907  
       4B3g    0.246145     4B2g    0.246145     9B1u    0.258144  
       5B2u    0.338603     5B3u    0.338603    10Ag     0.363503  
       2B1g    0.401254    11Ag     0.401255     6B3u    0.411137  
       6B2u    0.411137    10B1u    0.424654    12Ag     0.425030  
       5B3g    0.448568     5B2g    0.448568     7B2u    0.465005  
       7B3u    0.465005     2Au     0.501156    11B1u    0.501163  
      13Ag     0.525481     3B1g    0.562882    14Ag     0.562885  
       6B3g    0.564200     6B2g    0.564200     7B3g    0.579041  
       7B2g    0.579041    12B1u    0.622300     8B3u    0.703023  
       8B2u    0.703023     3Au     0.714908    13B1u    0.714918  
      14B1u    0.758224    15Ag     0.823705     8B3g    0.850865  
       8B2g    0.850865    15B1u    0.954101     9B2u    1.090583  
       9B3u    1.090583    16Ag     1.129103     4B1g    1.129111  
      17Ag     1.186585    16B1u    1.224765     4Au     1.224783  
       9B3g    1.254595     9B2g    1.254595    17B1u    1.256069  
      10B3u    1.264152    10B2u    1.264152    18Ag     1.267244  
      19Ag     1.287097     5B1g    1.287115    20Ag     1.293878  
       6B1g    1.293885    11B2u    1.384294    11B3u    1.384294  
      12B3u    1.404249    12B2u    1.404249    18B1u    1.450222  
       5Au     1.450251    10B2g    1.451267    10B3g    1.451267  
      13B3u    1.452995    13B2u    1.452995     6Au     1.521143  
      19B1u    1.521172    11B3g    1.572102    11B2g    1.572102  
      21Ag     1.575400    20B1u    1.589946    12B3g    1.600634  
      12B2g    1.600634     7B1g    1.630536    22Ag     1.630577  
      13B2g    1.696600    13B3g    1.696600    21B1u    1.980762  
      14B3u    1.982168    14B2u    1.982168    22B1u    2.110523  
       7Au     2.110527    23B1u    2.130892    23Ag     2.133367  
      14B3g    2.453049    14B2g    2.453049    24Ag     2.556617  
      24B1u    2.595990    25Ag     2.809081     8B1g    2.809092  
      15B2u    2.871602    15B3u    2.871602    25B1u    2.894642  
       8Au     2.894668    26Ag     3.035361    27Ag     3.187751  
      15B2g    3.249557    15B3g    3.249557    16B2u    3.308086  
      16B3u    3.308086     9B1g    3.321439    28Ag     3.321440  
      17B2u    3.410892    17B3u    3.410892    16B3g    3.473698  
      16B2g    3.473698    18B3u    3.508286    18B2u    3.508286  
      10B1g    3.537126    29Ag     3.537141    26B1u    3.541371  
      11B1g    3.577055    30Ag     3.577062     9Au     3.631934  
      27B1u    3.631962    28B1u    3.645524    10Au     3.645525  
      17B3g    3.691390    17B2g    3.691390    18B2g    3.775679  
      18B3g    3.775679    19B3u    3.827150    19B2u    3.827150  
      29B1u    3.919682    31Ag     3.995939    30B1u    4.084349  
      11Au     4.084351    19B2g    4.505216    19B3g    4.505216  
      31B1u    4.921305    20B3u    5.374954    20B2u    5.374954  
      20B3g    6.024114    20B2g    6.024114    32B1u    6.695997  
      32Ag     6.703030    12B1g    8.781948    33Ag     8.782017  
      12Au     8.851493    33B1u    8.851562    21B2u    8.876236  
      21B3u    8.876236    21B2g    9.215428    21B3g    9.215428  
      34Ag     9.228676    34B1u    9.334658    35Ag    17.756935  
      35B1u   20.366621  

    Final Occupation by Irrep:
             Ag   B1g   B2g   B3g    Au   B1u   B2u   B3u 
    DOCC [     5,    0,    1,    1,    0,    4,    2,    2 ]
    SOCC [     0,    0,    1,    1,    0,    0,    0,    0 ]

  @DF-UKS Final Energy:  -796.37077052618110

   => Energetics <=

    Nuclear Repulsion Energy =             71.4416912474791701
    One-Electron Energy =               -1241.4698431662925486
    Two-Electron Energy =                 413.0946396848480617
    DFT Exchange-Correlation Energy =     -39.5708436398248082
    Empirical Dispersion Energy =           0.0000000000000000
    VV10 Nonlocal Energy =                  0.1335853476089124
    Total Energy =                       -796.3707705261812180

  UHF NO Occupations:
  HONO-2 :    2B3u 1.9979313
  HONO-1 :    2B3g 1.0000000
  HONO-0 :    2B2g 1.0000000
  LUNO+0 :    3B3u 0.0020687
  LUNO+1 :    3B2u 0.0020687
  LUNO+2 :    5B1u 0.0002680
  LUNO+3 :    6 Ag 0.0002102


Computation Completed


Properties will be evaluated at   0.000000,   0.000000,   0.000000 [a0]

Properties computed using the SCF density matrix

  Nuclear Dipole Moment: [e a0]
     X:     0.0000      Y:     0.0000      Z:     0.0000

  Electronic Dipole Moment: [e a0]
     X:     0.0000      Y:     0.0000      Z:     0.0000

  Dipole Moment: [e a0]
     X:     0.0000      Y:     0.0000      Z:     0.0000     Total:     0.0000

  Dipole Moment: [D]
     X:     0.0000      Y:     0.0000      Z:     0.0000     Total:     0.0000


*** tstop() called on bp1-compute00081.data.bp.acrc.priv at Fri Apr 23 08:46:48 2021
Module time:
	user time   =     276.57 seconds =       4.61 minutes
	system time =      11.64 seconds =       0.19 minutes
	total time  =         12 seconds =       0.20 minutes
Total time:
	user time   =     844.35 seconds =      14.07 minutes
	system time =      42.02 seconds =       0.70 minutes
	total time  =         39 seconds =       0.65 minutes

         ----------------------------------------------------------
                                   FINDIF
                     R. A. King and Jonathon Misiewicz
         ---------------------------------------------------------

  Computing gradient from energies.
    Using 3-point formula.
    Energy without displacement: -796.3707582239
    Check energies below for precision!
    Forces are for mass-weighted, symmetry-adapted cartesians (in au).

     Coord      Energy(-1)        Energy(+1)            Force
        0   -796.3707454162   -796.3707705262     -0.0025109979


-------------------------------------------------------------
  ## New Matrix (Symmetry 0) ##
  Irrep: 1 Size: 2 x 3

                 1                   2                   3

    1     0.00000000000000     0.00000000000000    -0.01003960760911
    2     0.00000000000000     0.00000000000000     0.01003960760911




			-----------------------------------------
			 OPTKING 2.0: for geometry optimizations 
			  - R.A. King,  Bethel University        
			-----------------------------------------

	Internal coordinates to be generated automatically.
	Detected frag 1 with atoms:  1 2
	---Fragment 1 Bond Connectivity---
	 1 : 2
	 2 : 1

	---Fragment 1 Geometry and Gradient---
	 S           0.0000000000        0.0000000000       -1.7922961834
	 S           0.0000000000        0.0000000000        1.7922961834
	             0.0000000000        0.0000000000       -0.0100396076
	             0.0000000000        0.0000000000        0.0100396076

	Previous optimization step data not found.  Starting new optimization.

	---Fragment 1 Intrafragment Coordinates---
	 - Coordinate -           - BOHR/RAD -       - ANG/DEG -
	 R(1,2)           =         3.584592	       1.896885

	Current energy   :      -796.3707582239

	Generating empirical Hessian (Schlegel '84) for each fragment.
	Taking RFO optimization step.
	Going to follow RFO solution 1.
	Using RFO vector 1.
	Norm of target step-size    0.02019
	Projected energy change by RFO approximation:         0.0000010995

	Back-transformation to cartesian coordinates...
	Successfully converged to displaced geometry.

	--- Internal Coordinate Step in ANG or DEG, aJ/ANG or AJ/DEG ---
	 ---------------------------------------------------------------------------
	   Coordinate                Previous        Force       Change         New 
	   ----------                --------       ------       ------       ------
	    1 R(1,2)          =      1.896885    -0.082714    -0.010683     1.886201
	 ---------------------------------------------------------------------------
	Successfully symmetrized geometry.

  ==> Convergence Check <==

  Measures of convergence in internal coordinates in au.
  Criteria marked as inactive (o), active & met (*), and active & unmet ( ).
  --------------------------------------------------------------------------------------------- ~
   Step     Total Energy     Delta E     MAX Force     RMS Force      MAX Disp      RMS Disp    ~
  --------------------------------------------------------------------------------------------- ~
    Convergence Criteria    1.00e-06 *    3.00e-04 *             o    1.20e-03 *             o  ~
  --------------------------------------------------------------------------------------------- ~
      1    -796.37075822   -7.96e+02      1.00e-02      1.00e-02 o    2.02e-02      2.02e-02 o  ~
  ---------------------------------------------------------------------------------------------

	Writing optimization data to binary file.
	Structure for next step:
	Cartesian Geometry (in Angstrom)
	    S     0.0000000000   0.0000000000  -0.9431007285
	    S     0.0000000000   0.0000000000   0.9431007285
			--------------------------
			 OPTKING Finished Execution 
			--------------------------

    Structure for next step:
    Molecular point group: d2h
    Full point group: D_inf_h

    Geometry (in Angstrom), charge = 0, multiplicity = 3:

    S            0.000000000000     0.000000000000    -0.943100732159
    S            0.000000000000     0.000000000000     0.943100732159

gradient() will perform gradient computation by finite difference of analytic energies.

         ----------------------------------------------------------
                                   FINDIF
                     R. A. King and Jonathon Misiewicz
         ---------------------------------------------------------

  Using finite-differences of energies to determine gradients.
    Generating geometries for use with 3-point formula.
    Displacement size will be 5.00e-03.
    Number of atoms is 2.
    Number of symmetric SALCs is 1.
    Translations projected? 1. Rotations projected? 1.
    Number of geometries (including reference) is 3.

  //>>>>>>>>>>>>>>>>>>>>>>>>>>>>>>>>>>>//
  //    Loading displacement 1 of 3    //
  //<<<<<<<<<<<<<<<<<<<<<<<<<<<<<<<<<<<//

*** tstart() called on bp1-compute00081.data.bp.acrc.priv
*** at Fri Apr 23 08:46:48 2021

   => Loading Basis Set <=

    Name: AUG-CC-PV(Q+D)Z
    Role: ORBITAL
    Keyword: BASIS
    atoms 1-2 entry S          line  1148 file /work/zw18965/.conda/envs/p4env/share/psi4/basis/aug-cc-pv_qpd_z.gbs 


         ---------------------------------------------------------
                                   SCF
               by Justin Turney, Rob Parrish, Andy Simmonett
                          and Daniel G. A. Smith
                              UKS Reference
                       24 Threads, 137329 MiB Core
         ---------------------------------------------------------

  ==> Geometry <==

    Molecular point group: d2h
    Full point group: D_inf_h

    Geometry (in Angstrom), charge = 0, multiplicity = 3:

       Center              X                  Y                   Z               Mass       
    ------------   -----------------  -----------------  -----------------  -----------------
         S            0.000000000000     0.000000000000    -0.943100732159    31.972071174400
         S            0.000000000000     0.000000000000     0.943100732159    31.972071174400

  Running in d2h symmetry.

  Rotational constants: A = ************  B =      0.29640  C =      0.29640 [cm^-1]
  Rotational constants: A = ************  B =   8885.87641  C =   8885.87641 [MHz]
  Nuclear repulsion =   71.821260079702654

  Charge       = 0
  Multiplicity = 3
  Electrons    = 32
  Nalpha       = 17
  Nbeta        = 15

  ==> Algorithm <==

  SCF Algorithm Type is DF.
  DIIS enabled.
  MOM disabled.
  Fractional occupation disabled.
  Guess Type is READ.
  Energy threshold   = 1.00e-08
  Density threshold  = 1.00e-08
  Integral threshold = 0.00e+00

  ==> Primary Basis <==

  Basis Set: AUG-CC-PV(Q+D)Z
    Blend: AUG-CC-PV(Q+D)Z
    Number of shells: 46
    Number of basis function: 178
    Number of Cartesian functions: 230
    Spherical Harmonics?: true
    Max angular momentum: 4

  ==> DFT Potential <==

   => Composite Functional: WB97M-V <= 

    wB97M-V Hyb-GGA Exchange-Correlation Functional

    N. Mardirossian and M. Head-Gordon, J. Chem. Phys. 144, 214110 (2016)

    Deriv               =              1
    GGA                 =           TRUE
    Meta                =           TRUE

    Exchange Hybrid     =           TRUE
    MP2 Hybrid          =          FALSE

   => Exchange-Correlation Functionals <=

    1.0000   wB97M-V exchange-correlation functional

   => Exact (HF) Exchange <=

    0.8500            HF,LR [omega = 0.3000]
    0.1500               HF 

   => VV10 Non-Local Parameters <=

    VV10 B              =     6.0000E+00
    VV10 C              =     1.0000E-02

   => Molecular Quadrature <=

    Radial Scheme          =       TREUTLER
    Pruning Scheme         =           FLAT
    Nuclear Scheme         =       TREUTLER

    BS radius alpha        =              1
    Pruning alpha          =              1
    Radial Points          =             75
    Spherical Points       =            302
    Total Points           =          45300
    Total Blocks           =            426
    Max Points             =            254
    Max Functions          =            178

   => Loading Basis Set <=

    Name: (AUG-CC-PV(Q+D)Z AUX)
    Role: JKFIT
    Keyword: DF_BASIS_SCF
    atoms 1-2 entry S          line   810 file /work/zw18965/.conda/envs/p4env/share/psi4/basis/aug-cc-pvqz-jkfit.gbs 

   => Loading Basis Set <=

    Name: AUG-CC-PV(Q+D)Z
    Role: ORBITAL
    Keyword: BASIS
    atoms 1-2 entry S          line  1148 file /work/zw18965/.conda/envs/p4env/share/psi4/basis/aug-cc-pv_qpd_z.gbs 

  Reading orbitals from file 180, no projection.

  ==> Pre-Iterations <==

   -------------------------------------------------------
    Irrep   Nso     Nmo     Nalpha   Nbeta   Ndocc  Nsocc
   -------------------------------------------------------
     Ag        35      35       0       0       0       0
     B1g       12      12       0       0       0       0
     B2g       21      21       0       0       0       0
     B3g       21      21       0       0       0       0
     Au        12      12       0       0       0       0
     B1u       35      35       0       0       0       0
     B2u       21      21       0       0       0       0
     B3u       21      21       0       0       0       0
   -------------------------------------------------------
    Total     178     178      17      15      15       2
   -------------------------------------------------------

  ==> Integral Setup <==

  ==> DiskDFJK: Density-Fitted J/K Matrices <==

    J tasked:                  Yes
    K tasked:                  Yes
    wK tasked:                 Yes
    Omega:               3.000E-01
    OpenMP threads:             24
    Integrals threads:          24
    Memory [MiB]:           102461
    Algorithm:                Core
    Integral Cache:           NONE
    Schwarz Cutoff:          1E-12
    Fitting Condition:       1E-10

   => Auxiliary Basis Set <=

  Basis Set: (AUG-CC-PV(Q+D)Z AUX)
    Blend: AUG-CC-PVQZ-JKFIT
    Number of shells: 92
    Number of basis function: 368
    Number of Cartesian functions: 494
    Spherical Harmonics?: true
    Max angular momentum: 5

  Cached 100.0% of DFT collocation blocks in 0.523 [GiB].

  Minimum eigenvalue in the overlap matrix is 5.3292054098E-05.
  Using Symmetric Orthogonalization.

  SCF Guess: Orbitals guess was supplied from a previous computation.

  ==> Iterations <==

                           Total Energy        Delta E     RMS |[F,P]|

   @DF-UKS iter   0:  -796.37725158603348   -7.96377e+02   4.49271e-04 
   @DF-UKS iter   1:  -796.37088480771035    6.36678e-03   5.64973e-05 DIIS
   @DF-UKS iter   2:  -796.37089031952883   -5.51182e-06   4.08866e-05 DIIS
   @DF-UKS iter   3:  -796.37089281106012   -2.49153e-06   3.60728e-06 DIIS
   @DF-UKS iter   4:  -796.37089284929516   -3.82350e-08   7.36387e-07 DIIS
   @DF-UKS iter   5:  -796.37089285204115   -2.74599e-09   2.12537e-07 DIIS
   @DF-UKS iter   6:  -796.37089285221782   -1.76669e-10   3.49328e-08 DIIS
   @DF-UKS iter   7:  -796.37089285222839   -1.05729e-11   8.48511e-09 DIIS
  Energy and wave function converged.


  ==> Post-Iterations <==

   @Spin Contamination Metric:   9.253975260E-03
   @S^2 Expected:                2.000000000E+00
   @S^2 Observed:                2.009253975E+00
   @S   Expected:                1.000000000E+00
   @S   Observed:                1.000000000E+00

    Orbital Energies [Eh]
    ---------------------

    Alpha Occupied:                                                       

       1B1u  -89.260240     1Ag   -89.260238     2Ag    -8.171752  
       2B1u   -8.171583     1B3u   -6.081257     1B2u   -6.081257  
       1B2g   -6.081212     1B3g   -6.081212     3Ag    -6.079461  
       3B1u   -6.078670     4Ag    -0.961849     4B1u   -0.745472  
       5Ag    -0.496255     2B2u   -0.480023     2B3u   -0.480023  
       2B3g   -0.332377     2B2g   -0.332377  

    Alpha Virtual:                                                        

       5B1u    0.024810     6Ag     0.048210     3B2u    0.055831  
       3B3u    0.055831     7Ag     0.071948     3B3g    0.079343  
       3B2g    0.079343     6B1u    0.087317     8Ag     0.142453  
       1B1g    0.142453     7B1u    0.164376     4B2u    0.196201  
       4B3u    0.196201     9Ag     0.204181     1Au     0.224666  
       8B1u    0.224669     4B3g    0.245715     4B2g    0.245715  
       9B1u    0.257099     5B3u    0.332109     5B2u    0.332109  
      10Ag     0.360212     2B1g    0.385312    11Ag     0.385313  
       6B2u    0.388590     6B3u    0.388590    10B1u    0.420695  
      12Ag     0.422278     5B3g    0.447474     5B2g    0.447474  
       7B2u    0.466145     7B3u    0.466145     2Au     0.470856  
      11B1u    0.470860    13Ag     0.517561     6B3g    0.557332  
       6B2g    0.557332    14Ag     0.561416     3B1g    0.561417  
       7B3g    0.587444     7B2g    0.587444    12B1u    0.616787  
       8B2u    0.704634     8B3u    0.704634     3Au     0.716401  
      13B1u    0.716410    14B1u    0.757440    15Ag     0.809431  
       8B3g    0.838865     8B2g    0.838865    15B1u    0.949845  
       9B2u    1.087873     9B3u    1.087873    16Ag     1.105557  
       4B1g    1.105562    17Ag     1.181680    16B1u    1.202924  
       4Au     1.202925     9B3g    1.222257     9B2g    1.222257  
      17B1u    1.242660    18Ag     1.256714    10B3u    1.262189  
      10B2u    1.262189     5B1g    1.276350    19Ag     1.276353  
      20Ag     1.282456     6B1g    1.282477    11B3u    1.338655  
      11B2u    1.338655    12B3u    1.377253    12B2u    1.377253  
      10B3g    1.416810    10B2g    1.416810    13B3u    1.438022  
      13B2u    1.438022    18B1u    1.445076     5Au     1.445094  
       6Au     1.501378    19B1u    1.501400    11B3g    1.568764  
      11B2g    1.568764    21Ag     1.572197    20B1u    1.581781  
      12B3g    1.585818    12B2g    1.585818     7B1g    1.626719  
      22Ag     1.626752    13B2g    1.694826    13B3g    1.694826  
      21B1u    1.963679    14B3u    1.979178    14B2u    1.979178  
      23Ag     2.086619    22B1u    2.100669     7Au     2.100682  
      23B1u    2.119069    14B3g    2.416169    14B2g    2.416169  
      24Ag     2.550444    24B1u    2.558809    25Ag     2.752758  
       8B1g    2.752829    15B2u    2.840470    15B3u    2.840470  
      25B1u    2.840995     8Au     2.841081    26Ag     3.024328  
      27Ag     3.170764    15B3g    3.226959    15B2g    3.226959  
       9B1g    3.291268    28Ag     3.291284    16B3u    3.293727  
      16B2u    3.293727    17B2u    3.334139    17B3u    3.334139  
      16B3g    3.395623    16B2g    3.395623    18B3u    3.454247  
      18B2u    3.454247    10B1g    3.490476    29Ag     3.490505  
      30Ag     3.495874    11B1g    3.495897    26B1u    3.517484  
      27B1u    3.566633     9Au     3.566669    10Au     3.585357  
      28B1u    3.585424    17B3g    3.665568    17B2g    3.665568  
      18B3g    3.727572    18B2g    3.727572    19B2u    3.797950  
      19B3u    3.797950    29B1u    3.908038    31Ag     3.990932  
      11Au     4.057483    30B1u    4.057483    19B2g    4.497603  
      19B3g    4.497603    31B1u    4.899744    20B2u    5.323710  
      20B3u    5.323710    20B3g    5.975523    20B2g    5.975523  
      32Ag     6.704395    32B1u    6.734974    12B1g    8.749879  
      33Ag     8.749930    12Au     8.818979    33B1u    8.819028  
      21B3u    8.863801    21B2u    8.863801    21B2g    9.206167  
      21B3g    9.206167    34Ag     9.222440    34B1u    9.313548  
      35Ag    17.778567    35B1u   20.363835  

    Beta Occupied:                                                        

       1Ag   -89.254059     1B1u  -89.254058     2Ag    -8.165570  
       2B1u   -8.165328     3Ag    -6.075603     3B1u   -6.074810  
       1B3u   -6.067936     1B2u   -6.067936     1B2g   -6.067875  
       1B3g   -6.067875     4Ag    -0.936732     4B1u   -0.689678  
       5Ag    -0.470485     2B2u   -0.424610     2B3u   -0.424610  

    Beta Virtual:                                                         

       2B3g   -0.061557     2B2g   -0.061557     5B1u    0.024913  
       6Ag     0.047075     3B2u    0.055024     3B3u    0.055024  
       7Ag     0.073696     3B3g    0.079908     3B2g    0.079908  
       6B1u    0.099731     1B1g    0.146831     8Ag     0.146831  
       7B1u    0.167447     9Ag     0.205613     4B2u    0.206434  
       4B3u    0.206434     1Au     0.224962     8B1u    0.224966  
       4B3g    0.246030     4B2g    0.246030     9B1u    0.259186  
       5B2u    0.337844     5B3u    0.337844    10Ag     0.363024  
       2B1g    0.400684    11Ag     0.400685     6B2u    0.411581  
       6B3u    0.411581    10B1u    0.424450    12Ag     0.424665  
       5B3g    0.448921     5B2g    0.448921     7B2u    0.464926  
       7B3u    0.464926     2Au     0.501429    11B1u    0.501436  
      13Ag     0.526741     3B1g    0.563624    14Ag     0.563626  
       6B3g    0.565314     6B2g    0.565314     7B3g    0.579421  
       7B2g    0.579421    12B1u    0.623601     8B2u    0.703325  
       8B3u    0.703325     3Au     0.715672    13B1u    0.715682  
      14B1u    0.760780    15Ag     0.823805     8B3g    0.853075  
       8B2g    0.853075    15B1u    0.955351     9B2u    1.089801  
       9B3u    1.089801    16Ag     1.128329     4B1g    1.128337  
      17Ag     1.187271    16B1u    1.225965     4Au     1.225984  
       9B3g    1.252278     9B2g    1.252278    17B1u    1.259426  
      10B3u    1.264241    10B2u    1.264241    18Ag     1.264835  
      19Ag     1.286475     5B1g    1.286493    20Ag     1.295310  
       6B1g    1.295318    11B3u    1.384187    11B2u    1.384187  
      12B2u    1.405175    12B3u    1.405175    18B1u    1.451345  
       5Au     1.451373    10B3g    1.451823    10B2g    1.451823  
      13B3u    1.454610    13B2u    1.454610     6Au     1.521442  
      19B1u    1.521470    11B3g    1.575057    11B2g    1.575057  
      21Ag     1.578335    20B1u    1.592148    12B3g    1.604717  
      12B2g    1.604717     7B1g    1.633420    22Ag     1.633459  
      13B2g    1.699613    13B3g    1.699613    21B1u    1.981448  
      14B3u    1.989349    14B2u    1.989349    22B1u    2.115983  
       7Au     2.115986    23B1u    2.133682    23Ag     2.134999  
      14B3g    2.451755    14B2g    2.451755    24Ag     2.563688  
      24B1u    2.597277    25Ag     2.809301     8B1g    2.809309  
      15B2u    2.871485    15B3u    2.871485    25B1u    2.896206  
       8Au     2.896228    26Ag     3.037824    27Ag     3.186946  
      15B3g    3.258699    15B2g    3.258699    16B3u    3.306487  
      16B2u    3.306487    28Ag     3.314920     9B1g    3.314923  
      17B2u    3.410686    17B3u    3.410686    16B3g    3.474363  
      16B2g    3.474363    18B3u    3.505179    18B2u    3.505179  
      10B1g    3.541297    29Ag     3.541307    26B1u    3.543818  
      11B1g    3.576434    30Ag     3.576446     9Au     3.634541  
      27B1u    3.634562    10Au     3.646329    28B1u    3.646333  
      17B3g    3.692110    17B2g    3.692110    18B3g    3.780119  
      18B2g    3.780119    19B2u    3.835409    19B3u    3.835409  
      29B1u    3.931892    31Ag     4.010574    30B1u    4.094537  
      11Au     4.094541    19B2g    4.521651    19B3g    4.521651  
      31B1u    4.908582    20B2u    5.377369    20B3u    5.377369  
      20B3g    6.031233    20B2g    6.031233    32Ag     6.710559  
      32B1u    6.741941    12B1g    8.782546    33Ag     8.782616  
      12Au     8.852969    33B1u    8.853040    21B2u    8.880402  
      21B3u    8.880402    21B2g    9.225242    21B3g    9.225242  
      34Ag     9.238272    34B1u    9.329445    35Ag    17.792509  
      35B1u   20.373956  

    Final Occupation by Irrep:
             Ag   B1g   B2g   B3g    Au   B1u   B2u   B3u 
    DOCC [     5,    0,    1,    1,    0,    4,    2,    2 ]
    SOCC [     0,    0,    1,    1,    0,    0,    0,    0 ]

  @DF-UKS Final Energy:  -796.37089285222839

   => Energetics <=

    Nuclear Repulsion Energy =             71.8212600797026539
    One-Electron Energy =               -1242.2329197258479780
    Two-Electron Energy =                 413.4820491628864261
    DFT Exchange-Correlation Energy =     -39.5748541743402313
    Empirical Dispersion Energy =           0.0000000000000000
    VV10 Nonlocal Energy =                  0.1335718053708040
    Total Energy =                       -796.3708928522283941

  UHF NO Occupations:
  HONO-2 :    2B2u 1.9979514
  HONO-1 :    2B2g 1.0000000
  HONO-0 :    2B3g 1.0000000
  LUNO+0 :    3B2u 0.0020486
  LUNO+1 :    3B3u 0.0020486
  LUNO+2 :    5B1u 0.0002685
  LUNO+3 :    6 Ag 0.0002103


Computation Completed


Properties will be evaluated at   0.000000,   0.000000,   0.000000 [a0]

Properties computed using the SCF density matrix

  Nuclear Dipole Moment: [e a0]
     X:     0.0000      Y:     0.0000      Z:     0.0000

  Electronic Dipole Moment: [e a0]
     X:     0.0000      Y:     0.0000      Z:     0.0000

  Dipole Moment: [e a0]
     X:     0.0000      Y:     0.0000      Z:     0.0000     Total:     0.0000

  Dipole Moment: [D]
     X:     0.0000      Y:     0.0000      Z:     0.0000     Total:     0.0000


*** tstop() called on bp1-compute00081.data.bp.acrc.priv at Fri Apr 23 08:46:58 2021
Module time:
	user time   =     209.62 seconds =       3.49 minutes
	system time =      10.44 seconds =       0.17 minutes
	total time  =         10 seconds =       0.17 minutes
Total time:
	user time   =    1055.15 seconds =      17.59 minutes
	system time =      52.52 seconds =       0.88 minutes
	total time  =         49 seconds =       0.82 minutes

  //>>>>>>>>>>>>>>>>>>>>>>>>>>>>>>>>>>>//
  //    Loading displacement 2 of 3    //
  //<<<<<<<<<<<<<<<<<<<<<<<<<<<<<<<<<<<//

*** tstart() called on bp1-compute00081.data.bp.acrc.priv
*** at Fri Apr 23 08:46:58 2021

   => Loading Basis Set <=

    Name: AUG-CC-PV(Q+D)Z
    Role: ORBITAL
    Keyword: BASIS
    atoms 1-2 entry S          line  1148 file /work/zw18965/.conda/envs/p4env/share/psi4/basis/aug-cc-pv_qpd_z.gbs 


         ---------------------------------------------------------
                                   SCF
               by Justin Turney, Rob Parrish, Andy Simmonett
                          and Daniel G. A. Smith
                              UKS Reference
                       24 Threads, 137329 MiB Core
         ---------------------------------------------------------

  ==> Geometry <==

    Molecular point group: d2h
    Full point group: D_inf_h

    Geometry (in Angstrom), charge = 0, multiplicity = 3:

       Center              X                  Y                   Z               Mass       
    ------------   -----------------  -----------------  -----------------  -----------------
         S            0.000000000000     0.000000000000    -0.943431612339    31.972071174400
         S            0.000000000000     0.000000000000     0.943431612339    31.972071174400

  Running in d2h symmetry.

  Rotational constants: A = ************  B =      0.29619  C =      0.29619 [cm^-1]
  Rotational constants: A = ************  B =   8879.64460  C =   8879.64460 [MHz]
  Nuclear repulsion =   71.796070939150866

  Charge       = 0
  Multiplicity = 3
  Electrons    = 32
  Nalpha       = 17
  Nbeta        = 15

  ==> Algorithm <==

  SCF Algorithm Type is DF.
  DIIS enabled.
  MOM disabled.
  Fractional occupation disabled.
  Guess Type is READ.
  Energy threshold   = 1.00e-08
  Density threshold  = 1.00e-08
  Integral threshold = 0.00e+00

  ==> Primary Basis <==

  Basis Set: AUG-CC-PV(Q+D)Z
    Blend: AUG-CC-PV(Q+D)Z
    Number of shells: 46
    Number of basis function: 178
    Number of Cartesian functions: 230
    Spherical Harmonics?: true
    Max angular momentum: 4

  ==> DFT Potential <==

   => Composite Functional: WB97M-V <= 

    wB97M-V Hyb-GGA Exchange-Correlation Functional

    N. Mardirossian and M. Head-Gordon, J. Chem. Phys. 144, 214110 (2016)

    Deriv               =              1
    GGA                 =           TRUE
    Meta                =           TRUE

    Exchange Hybrid     =           TRUE
    MP2 Hybrid          =          FALSE

   => Exchange-Correlation Functionals <=

    1.0000   wB97M-V exchange-correlation functional

   => Exact (HF) Exchange <=

    0.8500            HF,LR [omega = 0.3000]
    0.1500               HF 

   => VV10 Non-Local Parameters <=

    VV10 B              =     6.0000E+00
    VV10 C              =     1.0000E-02

   => Molecular Quadrature <=

    Radial Scheme          =       TREUTLER
    Pruning Scheme         =           FLAT
    Nuclear Scheme         =       TREUTLER

    BS radius alpha        =              1
    Pruning alpha          =              1
    Radial Points          =             75
    Spherical Points       =            302
    Total Points           =          45300
    Total Blocks           =            426
    Max Points             =            254
    Max Functions          =            178

   => Loading Basis Set <=

    Name: (AUG-CC-PV(Q+D)Z AUX)
    Role: JKFIT
    Keyword: DF_BASIS_SCF
    atoms 1-2 entry S          line   810 file /work/zw18965/.conda/envs/p4env/share/psi4/basis/aug-cc-pvqz-jkfit.gbs 

   => Loading Basis Set <=

    Name: AUG-CC-PV(Q+D)Z
    Role: ORBITAL
    Keyword: BASIS
    atoms 1-2 entry S          line  1148 file /work/zw18965/.conda/envs/p4env/share/psi4/basis/aug-cc-pv_qpd_z.gbs 

  Reading orbitals from file 180, no projection.

  ==> Pre-Iterations <==

   -------------------------------------------------------
    Irrep   Nso     Nmo     Nalpha   Nbeta   Ndocc  Nsocc
   -------------------------------------------------------
     Ag        35      35       0       0       0       0
     B1g       12      12       0       0       0       0
     B2g       21      21       0       0       0       0
     B3g       21      21       0       0       0       0
     Au        12      12       0       0       0       0
     B1u       35      35       0       0       0       0
     B2u       21      21       0       0       0       0
     B3u       21      21       0       0       0       0
   -------------------------------------------------------
    Total     178     178      17      15      15       2
   -------------------------------------------------------

  ==> Integral Setup <==

  ==> DiskDFJK: Density-Fitted J/K Matrices <==

    J tasked:                  Yes
    K tasked:                  Yes
    wK tasked:                 Yes
    Omega:               3.000E-01
[...]
     B3u       21      21       0       0       0       0
   -------------------------------------------------------
    Total     178     178      17      15      15       2
   -------------------------------------------------------

  ==> Integral Setup <==

  ==> DiskDFJK: Density-Fitted J/K Matrices <==

    J tasked:                  Yes
    K tasked:                  Yes
    wK tasked:                 Yes
    Omega:               3.000E-01
    OpenMP threads:             24
    Integrals threads:          24
    Memory [MiB]:           102461
    Algorithm:                Core
    Integral Cache:           NONE
    Schwarz Cutoff:          1E-12
    Fitting Condition:       1E-10

   => Auxiliary Basis Set <=

  Basis Set: (AUG-CC-PV(Q+D)Z AUX)
    Blend: AUG-CC-PVQZ-JKFIT
    Number of shells: 92
    Number of basis function: 368
    Number of Cartesian functions: 494
    Spherical Harmonics?: true
    Max angular momentum: 5

  Cached 100.0% of DFT collocation blocks in 0.523 [GiB].

  Minimum eigenvalue in the overlap matrix is 5.2555856295E-05.
  Using Symmetric Orthogonalization.

  SCF Guess: Superposition of Atomic Densities via on-the-fly atomic UHF.

  ==> Iterations <==

                           Total Energy        Delta E     RMS |[F,P]|

   @DF-UKS iter SAD:  -796.04187902112085   -7.96042e+02   0.00000e+00 
   @DF-UKS iter   1:  -796.35411734295053   -3.12238e-01   3.80351e-03 DIIS
   @DF-UKS iter   2:  -796.36916327252868   -1.50459e-02   1.32408e-03 DIIS
   @DF-UKS iter   3:  -796.37075897863963   -1.59571e-03   1.43905e-04 DIIS
   @DF-UKS iter   4:  -796.37090099129455   -1.42013e-04   3.82055e-05 DIIS
   @DF-UKS iter   5:  -796.37090620280173   -5.21151e-06   1.92818e-05 DIIS
   @DF-UKS iter   6:  -796.37090741188763   -1.20909e-06   2.43019e-06 DIIS
   @DF-UKS iter   7:  -796.37090746129047   -4.94028e-08   5.40245e-07 DIIS
   @DF-UKS iter   8:  -796.37090746371996   -2.42949e-09   9.72102e-08 DIIS
   @DF-UKS iter   9:  -796.37090746379556   -7.56017e-11   1.56012e-08 DIIS
   @DF-UKS iter  10:  -796.37090746379670   -1.13687e-12   2.66733e-09 DIIS
   @DF-UKS iter  11:  -796.37090746379704   -3.41061e-13   4.23960e-10 DIIS
   @DF-UKS iter  12:  -796.37090746379658    4.54747e-13   6.16158e-11 DIIS
  Energy and wave function converged.


  ==> Post-Iterations <==

   @Spin Contamination Metric:   9.208940604E-03
   @S^2 Expected:                2.000000000E+00
   @S^2 Observed:                2.009208941E+00
   @S   Expected:                1.000000000E+00
   @S   Observed:                1.000000000E+00

    Orbital Energies [Eh]
    ---------------------

    Alpha Occupied:                                                       

       1B1u  -89.259718     1Ag   -89.259716     2Ag    -8.171402  
       2B1u   -8.171225     1B2u   -6.080897     1B3u   -6.080897  
       1B3g   -6.080849     1B2g   -6.080849     3Ag    -6.079103  
       3B1u   -6.078281     4Ag    -0.963307     4B1u   -0.744808  
       5Ag    -0.496614     2B2u   -0.480756     2B3u   -0.480756  
       2B2g   -0.331719     2B3g   -0.331719  

    Alpha Virtual:                                                        

       5B1u    0.025098     6Ag     0.048235     3B2u    0.055786  
       3B3u    0.055786     7Ag     0.071889     3B3g    0.079337  
       3B2g    0.079337     6B1u    0.088494     8Ag     0.142391  
       1B1g    0.142392     7B1u    0.164625     4B2u    0.196366  
       4B3u    0.196366     9Ag     0.203925     1Au     0.224759  
       8B1u    0.224762     4B3g    0.245666     4B2g    0.245666  
       9B1u    0.257655     5B2u    0.331686     5B3u    0.331686  
      10Ag     0.359923     2B1g    0.384991    11Ag     0.384992  
       6B3u    0.388793     6B2u    0.388793    10B1u    0.420564  
      12Ag     0.422093     5B3g    0.447722     5B2g    0.447722  
       7B3u    0.466118     7B2u    0.466118     2Au     0.471046  
      11B1u    0.471051    13Ag     0.518338     6B3g    0.558066  
       6B2g    0.558066    14Ag     0.561884     3B1g    0.561885  
       7B2g    0.587704     7B3g    0.587704    12B1u    0.617614  
       8B2u    0.704771     8B3u    0.704771     3Au     0.716762  
      13B1u    0.716771    14B1u    0.758774    15Ag     0.809481  
       8B3g    0.840094     8B2g    0.840094    15B1u    0.950683  
       9B3u    1.087493     9B2u    1.087493    16Ag     1.105178  
       4B1g    1.105183    17Ag     1.181961    16B1u    1.203661  
       4Au     1.203664     9B3g    1.220994     9B2g    1.220994  
      17B1u    1.244611    18Ag     1.255367    10B3u    1.262083  
      10B2u    1.262083     5B1g    1.277030    19Ag     1.277034  
      20Ag     1.282099     6B1g    1.282121    11B2u    1.338555  
      11B3u    1.338555    12B3u    1.377906    12B2u    1.377906  
      10B2g    1.417099    10B3g    1.417099    13B2u    1.439014  
      13B3u    1.439014    18B1u    1.445706     5Au     1.445724  
       6Au     1.501555    19B1u    1.501578    11B3g    1.569830  
      11B2g    1.569830    21Ag     1.573928    20B1u    1.583108  
      12B3g    1.588763    12B2g    1.588763     7B1g    1.628384  
      22Ag     1.628417    13B3g    1.696497    13B2g    1.696497  
      21B1u    1.963652    14B3u    1.983148    14B2u    1.983148  
      23Ag     2.087319    22B1u    2.103585     7Au     2.103598  
      23B1u    2.121085    14B3g    2.415233    14B2g    2.415233  
      24Ag     2.554477    24B1u    2.559442    25Ag     2.752902  
       8B1g    2.752969    15B2u    2.840363    15B3u    2.840363  
      25B1u    2.841971     8Au     2.842055    26Ag     3.025706  
      27Ag     3.170293    15B2g    3.232011    15B3g    3.232011  
       9B1g    3.287720    28Ag     3.287734    16B3u    3.292878  
      16B2u    3.292878    17B2u    3.334265    17B3u    3.334265  
      16B3g    3.396036    16B2g    3.396036    18B2u    3.452369  
      18B3u    3.452369    10B1g    3.492876    29Ag     3.492904  
      30Ag     3.495587    11B1g    3.495602    26B1u    3.519056  
      27B1u    3.567168     9Au     3.567197    10Au     3.586812  
      28B1u    3.586876    17B3g    3.666140    17B2g    3.666140  
      18B3g    3.730154    18B2g    3.730154    19B2u    3.802736  
      19B3u    3.802736    29B1u    3.914801    31Ag     3.999861  
      30B1u    4.063281    11Au     4.063282    19B3g    4.507015  
      19B2g    4.507015    31B1u    4.891653    20B2u    5.325187  
      20B3u    5.325187    20B3g    5.979482    20B2g    5.979482  
      32Ag     6.708354    32B1u    6.762576    12B1g    8.750255  
      33Ag     8.750307    12Au     8.819857    33B1u    8.819907  
      21B2u    8.866198    21B3u    8.866198    21B3g    9.211847  
      21B2g    9.211847    34Ag     9.227643    34B1u    9.310652  
      35Ag    17.799930    35B1u   20.366610  

    Beta Occupied:                                                        

       1Ag   -89.253542     1B1u  -89.253541     2Ag    -8.165224  
       2B1u   -8.164975     3Ag    -6.075248     3B1u   -6.074424  
       1B2u   -6.067586     1B3u   -6.067586     1B3g   -6.067522  
       1B2g   -6.067522     4Ag    -0.938323     4B1u   -0.688986  
       5Ag    -0.470781     2B2u   -0.425536     2B3u   -0.425536  

    Beta Virtual:                                                         

       2B2g   -0.060871     2B3g   -0.060871     5B1u    0.025091  
       6Ag     0.047071     3B2u    0.054939     3B3u    0.054939  
       7Ag     0.073612     3B3g    0.079894     3B2g    0.079894  
       6B1u    0.100809     1B1g    0.146746     8Ag     0.146746  
       7B1u    0.167778     9Ag     0.205344     4B2u    0.206573  
       4B3u    0.206573     1Au     0.224994     8B1u    0.224998  
       4B3g    0.245966     4B2g    0.245966     9B1u    0.259793  
       5B3u    0.337404     5B2u    0.337404    10Ag     0.362750  
       2B1g    0.400354    11Ag     0.400355     6B3u    0.411839  
       6B2u    0.411839    10B1u    0.424335    12Ag     0.424460  
       5B3g    0.449127     5B2g    0.449127     7B3u    0.464880  
       7B2u    0.464880     2Au     0.501585    11B1u    0.501591  
      13Ag     0.527462     3B1g    0.564048    14Ag     0.564049  
       6B3g    0.565954     6B2g    0.565954     7B2g    0.579639  
       7B3g    0.579639    12B1u    0.624334     8B3u    0.703491  
       8B2u    0.703491     3Au     0.716113    13B1u    0.716123  
      14B1u    0.762252    15Ag     0.823849     8B3g    0.854362  
       8B2g    0.854362    15B1u    0.956080     9B3u    1.089353  
       9B2u    1.089353    16Ag     1.127875     4B1g    1.127883  
      17Ag     1.187681    16B1u    1.226661     4Au     1.226680  
       9B3g    1.250961     9B2g    1.250961    17B1u    1.261413  
      18Ag     1.263472    10B3u    1.264288    10B2u    1.264288  
      19Ag     1.286121     5B1g    1.286138    20Ag     1.296139  
       6B1g    1.296148    11B2u    1.384119    11B3u    1.384119  
      12B3u    1.405716    12B2u    1.405716    18B1u    1.451991  
       5Au     1.452020    10B2g    1.452142    10B3g    1.452142  
      13B2u    1.455518    13B3u    1.455518     6Au     1.521607  
      19B1u    1.521635    11B3g    1.576653    11B2g    1.576653  
      21Ag     1.580021    20B1u    1.593447    12B3g    1.607187  
      12B2g    1.607187     7B1g    1.635084    22Ag     1.635122  
      13B3g    1.701350    13B2g    1.701350    21B1u    1.981587  
      14B3u    1.993528    14B2u    1.993528    22B1u    2.119115  
       7Au     2.119117    23B1u    2.135571    23Ag     2.135825  
      14B3g    2.450938    14B2g    2.450938    24Ag     2.567621  
      24B1u    2.598032    25Ag     2.809436     8B1g    2.809441  
      15B2u    2.871361    15B3u    2.871361    25B1u    2.897130  
       8Au     2.897150    26Ag     3.039162    27Ag     3.186809  
      15B2g    3.263975    15B3g    3.263975    16B3u    3.305703  
      16B2u    3.305703    28Ag     3.311195     9B1g    3.311200  
      17B2u    3.410536    17B3u    3.410536    16B3g    3.474748  
      16B2g    3.474748    18B2u    3.503396    18B3u    3.503396  
      10B1g    3.543756    29Ag     3.543763    26B1u    3.545238  
      11B1g    3.576064    30Ag     3.576078     9Au     3.636041  
      27B1u    3.636059    10Au     3.646800    28B1u    3.646807  
      17B3g    3.692558    17B2g    3.692558    18B3g    3.782712  
      18B2g    3.782712    19B2u    3.840176    19B3u    3.840176  
      29B1u    3.938881    31Ag     4.019255    30B1u    4.100431  
      11Au     4.100436    19B3g    4.531137    19B2g    4.531137  
      31B1u    4.900771    20B2u    5.378791    20B3u    5.378791  
      20B3g    6.035223    20B2g    6.035223    32Ag     6.714593  
      32B1u    6.769434    12B1g    8.782898    33Ag     8.782967  
      12Au     8.853829    33B1u    8.853900    21B2u    8.882813  
      21B3u    8.882813    21B3g    9.230964    21B2g    9.230964  
      34Ag     9.243580    34B1u    9.326488    35Ag    17.813785  
      35B1u   20.376779  

    Final Occupation by Irrep:
             Ag   B1g   B2g   B3g    Au   B1u   B2u   B3u 
    DOCC [     5,    0,    1,    1,    0,    4,    2,    2 ]
    SOCC [     0,    0,    1,    1,    0,    0,    0,    0 ]

  @DF-UKS Final Energy:  -796.37090746379658

   => Energetics <=

    Nuclear Repulsion Energy =             72.0407880441313040
    One-Electron Energy =               -1242.6741293817881342
    Two-Electron Energy =                 413.7060595198312285
    DFT Exchange-Correlation Energy =     -39.5771896987579481
    Empirical Dispersion Energy =           0.0000000000000000
    VV10 Nonlocal Energy =                  0.1335640527871384
    Total Energy =                       -796.3709074637964704

  UHF NO Occupations:
  HONO-2 :    2B3u 1.9979628
  HONO-1 :    2B3g 1.0000000
  HONO-0 :    2B2g 1.0000000
  LUNO+0 :    3B3u 0.0020372
  LUNO+1 :    3B2u 0.0020372
  LUNO+2 :    5B1u 0.0002688
  LUNO+3 :    6 Ag 0.0002104


Computation Completed


Properties will be evaluated at   0.000000,   0.000000,   0.000000 [a0]

Properties computed using the SCF density matrix

  Nuclear Dipole Moment: [e a0]
     X:     0.0000      Y:     0.0000      Z:     0.0000

  Electronic Dipole Moment: [e a0]
     X:     0.0000      Y:     0.0000      Z:     0.0000

  Dipole Moment: [e a0]
     X:     0.0000      Y:     0.0000      Z:     0.0000     Total:     0.0000

  Dipole Moment: [D]
     X:     0.0000      Y:     0.0000      Z:     0.0000     Total:     0.0000


*** tstop() called on bp1-compute00081.data.bp.acrc.priv at Fri Apr 23 08:49:00 2021
Module time:
	user time   =     315.52 seconds =       5.26 minutes
	system time =      12.55 seconds =       0.21 minutes
	total time  =         14 seconds =       0.23 minutes
Total time:
	user time   =    3802.33 seconds =      63.37 minutes
	system time =     165.55 seconds =       2.76 minutes
	total time  =        171 seconds =       2.85 minutes

         ----------------------------------------------------------
                                   FINDIF
                     R. A. King and Jonathon Misiewicz
         ---------------------------------------------------------

  Computing second-derivative from energies using projected, 
  symmetry-adapted, cartesian coordinates.

  3 energies passed in, including the reference geometry.
    Using 3-point formula.
    Energy without displacement: -796.3709078976
    Check energies below for precision!
    0: -1 :      -796.3709077737
    0: 1  :      -796.3709074638

-------------------------------------------------------------


  ==> Harmonic Vibrational Analysis <==

  non-mass-weighted Hessian:       Symmetric? True   Hermitian? True   Lin Dep Dim?  5 (0)
  projection of translations (True) and rotations (True) removed 5 degrees of freedom (5)
  total projector:                 Symmetric? True   Hermitian? True   Lin Dep Dim?  5 (5)
  mass-weighted Hessian:           Symmetric? True   Hermitian? True   Lin Dep Dim?  5 (0)
  pre-proj  low-frequency mode:    0.0000  [cm^-1]
  pre-proj  low-frequency mode:    0.0000  [cm^-1]
  pre-proj  low-frequency mode:    0.0000  [cm^-1]
  pre-proj  low-frequency mode:    0.0000  [cm^-1]
  pre-proj  low-frequency mode:    0.0000  [cm^-1]
  pre-proj  all modes:['0.0000' '0.0000' '0.0000' '0.0000' '0.0000' '767.7602']
  projected mass-weighted Hessian: Symmetric? True   Hermitian? True   Lin Dep Dim?  5 (5)
  post-proj low-frequency mode:    0.0000i [cm^-1] (TR)
  post-proj low-frequency mode:    0.0000  [cm^-1] (TR)
  post-proj low-frequency mode:    0.0000  [cm^-1] (TR)
  post-proj low-frequency mode:    0.0000  [cm^-1] (TR)
  post-proj low-frequency mode:    0.0000  [cm^-1] (TR)
  post-proj  all modes:['0.0000i' '0.0000' '0.0000' '0.0000' '0.0000' '767.7602']

  Vibration                       6           
  Freq [cm^-1]                 767.7602       
  Irrep                           Ag          
  Reduced mass [u]             31.9721        
  Force const [mDyne/A]        11.1038        
  Turning point v=0 [a0]        0.0700        
  RMS dev v=0 [a0 u^1/2]        0.2800        
  Char temp [K]               1104.6360       
  ----------------------------------------------------------------------------------
      1   S                0.00  0.00  0.71   
      2   S                0.00  0.00 -0.71   

  ==> Thermochemistry Components <==

  Entropy, S
    Electronic S            2.183 [cal/(mol K)]        9.134 [J/(mol K)]       0.00347910 [mEh/K] (multiplicity = 3)
    Translational S        38.385 [cal/(mol K)]      160.603 [J/(mol K)]       0.06117054 [mEh/K] (mol. weight = 63.9441 [u], P = 101325.00 [Pa])
    Rotational S           13.615 [cal/(mol K)]       56.965 [J/(mol K)]       0.02169676 [mEh/K] (symmetry no. = 2)
    Vibrational S           0.235 [cal/(mol K)]        0.984 [J/(mol K)]       0.00037480 [mEh/K]
  Total S                  54.418 [cal/(mol K)]      227.686 [J/(mol K)]       0.08672120 [mEh/K]
  Correction S              0.000 [cal/(mol K)]        0.000 [J/(mol K)]       0.00000000 [mEh/K]

  Constant volume heat capacity, Cv
    Electronic Cv           0.000 [cal/(mol K)]        0.000 [J/(mol K)]       0.00000000 [mEh/K]
    Translational Cv        2.981 [cal/(mol K)]       12.472 [J/(mol K)]       0.00475022 [mEh/K]
    Rotational Cv           1.987 [cal/(mol K)]        8.314 [J/(mol K)]       0.00316681 [mEh/K]
    Vibrational Cv          0.705 [cal/(mol K)]        2.951 [J/(mol K)]       0.00112403 [mEh/K]
  Total Cv                  5.673 [cal/(mol K)]       23.737 [J/(mol K)]       0.00904106 [mEh/K]
  Correction Cv             0.000 [cal/(mol K)]        0.000 [J/(mol K)]       0.00000000 [mEh/K]

  Constant pressure heat capacity, Cp
    Electronic Cp           0.000 [cal/(mol K)]        0.000 [J/(mol K)]       0.00000000 [mEh/K]
    Translational Cp        4.968 [cal/(mol K)]       20.786 [J/(mol K)]       0.00791703 [mEh/K]
    Rotational Cp           1.987 [cal/(mol K)]        8.314 [J/(mol K)]       0.00316681 [mEh/K]
    Vibrational Cp          0.705 [cal/(mol K)]        2.951 [J/(mol K)]       0.00112403 [mEh/K]
  Total Cp                  7.661 [cal/(mol K)]       32.052 [J/(mol K)]       0.01220787 [mEh/K]
  Correction Cp             0.000 [cal/(mol K)]        0.000 [J/(mol K)]       0.00000000 [mEh/K]

  ==> Thermochemistry Energy Analysis <==

  Raw electronic energy, E0
  Total E0, Electronic energy at well bottom at 0 [K]                 -796.37090790 [Eh]

  Zero-point energy, ZPE_vib = Sum_i nu_i / 2
    Electronic ZPE          0.000 [kcal/mol]        0.000 [kJ/mol]       0.00000000 [Eh]
    Translational ZPE       0.000 [kcal/mol]        0.000 [kJ/mol]       0.00000000 [Eh]
    Rotational ZPE          0.000 [kcal/mol]        0.000 [kJ/mol]       0.00000000 [Eh]
    Vibrational ZPE         1.098 [kcal/mol]        4.592 [kJ/mol]       0.00174909 [Eh]         383.880 [cm^-1]
  Correction ZPE            1.098 [kcal/mol]        4.592 [kJ/mol]       0.00174909 [Eh]         383.880 [cm^-1]
  Total ZPE, Electronic energy at 0 [K]                               -796.36915881 [Eh]

  Thermal Energy, E (includes ZPE)
    Electronic E            0.000 [kcal/mol]        0.000 [kJ/mol]       0.00000000 [Eh]
    Translational E         0.889 [kcal/mol]        3.718 [kJ/mol]       0.00141628 [Eh]
    Rotational E            0.592 [kcal/mol]        2.479 [kJ/mol]       0.00094418 [Eh]
    Vibrational E           1.153 [kcal/mol]        4.824 [kJ/mol]       0.00183732 [Eh]
  Correction E              2.634 [kcal/mol]       11.021 [kJ/mol]       0.00419778 [Eh]
  Total E, Electronic energy at  298.15 [K]                           -796.36671012 [Eh]

  Enthalpy, H_trans = E_trans + k_B * T
    Electronic H            0.000 [kcal/mol]        0.000 [kJ/mol]       0.00000000 [Eh]
    Translational H         1.481 [kcal/mol]        6.197 [kJ/mol]       0.00236046 [Eh]
    Rotational H            0.592 [kcal/mol]        2.479 [kJ/mol]       0.00094418 [Eh]
    Vibrational H           1.153 [kcal/mol]        4.824 [kJ/mol]       0.00183732 [Eh]
  Correction H              3.227 [kcal/mol]       13.500 [kJ/mol]       0.00514196 [Eh]
  Total H, Enthalpy at  298.15 [K]                                    -796.36576594 [Eh]

  Gibbs free energy, G = H - T * S
    Electronic G           -0.651 [kcal/mol]       -2.723 [kJ/mol]      -0.00103729 [Eh]
    Translational G        -9.963 [kcal/mol]      -41.686 [kJ/mol]      -0.01587754 [Eh]
    Rotational G           -3.467 [kcal/mol]      -14.505 [kJ/mol]      -0.00552471 [Eh]
    Vibrational G           1.083 [kcal/mol]        4.530 [kJ/mol]       0.00172557 [Eh]
  Correction G            -12.998 [kcal/mol]      -54.385 [kJ/mol]      -0.02071396 [Eh]
  Total G, Free enthalpy at  298.15 [K]                               -796.39162186 [Eh]

    Psi4 stopped on: Friday, 23 April 2021 08:49AM
    Psi4 wall time for execution: 0:02:51.21

*** Psi4 exiting successfully. Buy a developer a beer!
