
    -----------------------------------------------------------------------
          Psi4: An Open-Source Ab Initio Electronic Structure Package
                               Psi4 1.3.2 release

                         Git: Rev {HEAD} ecbda83 


    R. M. Parrish, L. A. Burns, D. G. A. Smith, A. C. Simmonett,
    A. E. DePrince III, E. G. Hohenstein, U. Bozkaya, A. Yu. Sokolov,
    R. Di Remigio, R. M. Richard, J. F. Gonthier, A. M. James,
    H. R. McAlexander, A. Kumar, M. Saitow, X. Wang, B. P. Pritchard,
    P. Verma, H. F. Schaefer III, K. Patkowski, R. A. King, E. F. Valeev,
    F. A. Evangelista, J. M. Turney, T. D. Crawford, and C. D. Sherrill,
    J. Chem. Theory Comput. 13(7) pp 3185--3197 (2017).
    (doi: 10.1021/acs.jctc.7b00174)


                         Additional Contributions by
    P. Kraus, H. Kruse, M. H. Lechner, M. C. Schieber, R. A. Shaw,
    A. Alenaizan, R. Galvelis, Z. L. Glick, S. Lehtola, and J. P. Misiewicz

    -----------------------------------------------------------------------


    Psi4 started on: Tuesday, 27 April 2021 04:56PM

    Process ID: 136355
    Host:       bp1-compute00066.data.bp.acrc.priv
    PSIDATADIR: /work/zw18965/.conda/envs/p4env/share/psi4
    Memory:     500.0 MiB
    Threads:    24
    
  ==> Input File <==

--------------------------------------------------------------------------
memory 144 GB

molecule {
0 1
B 0.0000000000 0.0000000000 0.0000000000
H 0.0000000000 0.0000000000 1.1899000000
H 1.0304836280 0.0000000000 -0.5949500000
H -1.0304836280 -0.0000000000 -0.5949500000
}

set dynamic_level 1
set basis cc-pV(Q+d)Z
 
optimize("wB97X-V")
frequencies("wB97X-V")
--------------------------------------------------------------------------

  Memory set to 134.110 GiB by Python driver.
gradient() will perform gradient computation by finite difference of analytic energies.

         ----------------------------------------------------------
                                   FINDIF
                     R. A. King and Jonathon Misiewicz
         ---------------------------------------------------------

  Using finite-differences of energies to determine gradients.
    Generating geometries for use with 3-point formula.
    Displacement size will be 5.00e-03.
    Number of atoms is 4.
    Number of symmetric SALCs is 3.
    Translations projected? 1. Rotations projected? 1.
    Number of geometries (including reference) is 7.

  //>>>>>>>>>>>>>>>>>>>>>>>>>>>>>>>>>>>//
  //    Loading displacement 1 of 7    //
  //<<<<<<<<<<<<<<<<<<<<<<<<<<<<<<<<<<<//

*** tstart() called on bp1-compute00066.data.bp.acrc.priv
*** at Tue Apr 27 16:56:52 2021

   => Loading Basis Set <=

    Name: CC-PV(Q+D)Z
    Role: ORBITAL
    Keyword: BASIS
    atoms 1   entry B          line   199 file /work/zw18965/.conda/envs/p4env/share/psi4/basis/cc-pv_qpd_z.gbs 
    atoms 2-4 entry H          line    32 file /work/zw18965/.conda/envs/p4env/share/psi4/basis/cc-pv_qpd_z.gbs 


         ---------------------------------------------------------
                                   SCF
               by Justin Turney, Rob Parrish, Andy Simmonett
                          and Daniel G. A. Smith
                              RKS Reference
                       24 Threads, 137329 MiB Core
         ---------------------------------------------------------

  ==> Geometry <==

    Molecular point group: c2v
    Full point group: D3h

    Geometry (in Angstrom), charge = 0, multiplicity = 1:

       Center              X                  Y                   Z               Mass       
    ------------   -----------------  -----------------  -----------------  -----------------
         B            0.000000000000     0.000000000000     0.000000000000    11.009305360000
         H            0.000000000000     0.000000000000     1.189900000000     1.007825032230
         H            1.030483628000     0.000000000000    -0.594950000000     1.007825032230
         H           -1.030483628000    -0.000000000000    -0.594950000000     1.007825032230

  Running in c2v symmetry.

  Rotational constants: A =      7.87588  B =      7.87588  C =      3.93794 [cm^-1]
  Rotational constants: A = 236112.98414  B = 236112.98413  C = 118056.49207 [MHz]
  Nuclear repulsion =    7.441146293788980

  Charge       = 0
  Multiplicity = 1
  Electrons    = 8
  Nalpha       = 4
  Nbeta        = 4

  ==> Algorithm <==

  SCF Algorithm Type is DF.
  DIIS enabled.
  MOM disabled.
  Fractional occupation disabled.
  Guess Type is SAD.
  Energy threshold   = 1.00e-08
  Density threshold  = 1.00e-08
  Integral threshold = 0.00e+00

  ==> Primary Basis <==

  Basis Set: CC-PV(Q+D)Z
    Blend: CC-PV(Q+D)Z
    Number of shells: 45
    Number of basis function: 145
    Number of Cartesian functions: 175
    Spherical Harmonics?: true
    Max angular momentum: 4

  ==> DFT Potential <==

   => Composite Functional: WB97X-V <= 

    wB97X-V Hyb-GGA Exchange-Correlation Functional

    N. Mardirossian and M. Head-Gordon, Phys. Chem. Chem. Phys. 16, 9904 (2014)

    Deriv               =              1
    GGA                 =           TRUE
    Meta                =          FALSE

    Exchange Hybrid     =           TRUE
    MP2 Hybrid          =          FALSE

   => Exchange-Correlation Functionals <=

    1.0000   wB97X-V range-separated functional

   => Exact (HF) Exchange <=

    0.8330            HF,LR [omega = 0.3000]
    0.1670               HF 

   => VV10 Non-Local Parameters <=

    VV10 B              =     6.0000E+00
    VV10 C              =     1.0000E-02

   => Molecular Quadrature <=

    Radial Scheme          =       TREUTLER
    Pruning Scheme         =           FLAT
    Nuclear Scheme         =       TREUTLER

    BS radius alpha        =              1
    Pruning alpha          =              1
    Radial Points          =             75
    Spherical Points       =            302
    Total Points           =          90296
    Total Blocks           =            756
    Max Points             =            256
    Max Functions          =            145

   => Loading Basis Set <=

    Name: (CC-PV(Q+D)Z AUX)
    Role: JKFIT
    Keyword: DF_BASIS_SCF
    atoms 1   entry B          line    79 file /work/zw18965/.conda/envs/p4env/share/psi4/basis/cc-pvqz-jkfit.gbs 
    atoms 2-4 entry H          line    51 file /work/zw18965/.conda/envs/p4env/share/psi4/basis/cc-pvqz-jkfit.gbs 

  ==> Pre-Iterations <==

   -------------------------------------------------------
    Irrep   Nso     Nmo     Nalpha   Nbeta   Ndocc  Nsocc
   -------------------------------------------------------
     A1        55      55       0       0       0       0
     A2        20      20       0       0       0       0
     B1        40      40       0       0       0       0
     B2        30      30       0       0       0       0
   -------------------------------------------------------
    Total     145     145       4       4       4       0
   -------------------------------------------------------

  ==> Integral Setup <==

  ==> DiskDFJK: Density-Fitted J/K Matrices <==

    J tasked:                  Yes
    K tasked:                  Yes
    wK tasked:                 Yes
    Omega:               3.000E-01
    OpenMP threads:             24
    Integrals threads:          24
    Memory [MiB]:           102651
    Algorithm:                Core
    Integral Cache:           NONE
    Schwarz Cutoff:          1E-12
    Fitting Condition:       1E-10

   => Auxiliary Basis Set <=

  Basis Set: (CC-PV(Q+D)Z AUX)
    Blend: CC-PVQZ-JKFIT
    Number of shells: 67
    Number of basis function: 259
    Number of Cartesian functions: 340
    Spherical Harmonics?: true
    Max angular momentum: 5

  Cached 100.0% of DFT collocation blocks in 0.337 [GiB].

  Minimum eigenvalue in the overlap matrix is 2.4174971149E-04.
  Using Symmetric Orthogonalization.

  SCF Guess: Superposition of Atomic Densities via on-the-fly atomic UHF.

  ==> Iterations <==

                           Total Energy        Delta E     RMS |[F,P]|

   @DF-RKS iter SAD:   -25.92010560018555   -2.59201e+01   0.00000e+00 
   @DF-RKS iter   1:   -26.59519859428514   -6.75093e-01   1.87536e-03 DIIS
   @DF-RKS iter   2:   -26.60639579628515   -1.11972e-02   5.65671e-04 DIIS
   @DF-RKS iter   3:   -26.60748095622126   -1.08516e-03   6.91400e-05 DIIS
   @DF-RKS iter   4:   -26.60751737007726   -3.64139e-05   1.12813e-05 DIIS
   @DF-RKS iter   5:   -26.60751876854780   -1.39847e-06   1.55348e-06 DIIS
   @DF-RKS iter   6:   -26.60751878805133   -1.95035e-08   1.64728e-07 DIIS
   @DF-RKS iter   7:   -26.60751878829329   -2.41965e-10   1.21433e-08 DIIS
   @DF-RKS iter   8:   -26.60751878829410   -8.13571e-13   8.93019e-10 DIIS
  Energy and wave function converged.


  ==> Post-Iterations <==

    Orbital Energies [Eh]
    ---------------------

    Doubly Occupied:                                                      

       1A1    -6.862748     2A1    -0.637366     3A1    -0.459876  
       1B1    -0.459875  

    Virtual:                                                              

       1B2     0.011062     4A1     0.157304     2B1     0.157305  
       5A1     0.159009     3B1     0.212644     6A1     0.212645  
       7A1     0.228486     2B2     0.230837     3B2     0.353793  
       1A2     0.353794     8A1     0.405395     4B1     0.405396  
       9A1     0.430596    10A1     0.523582    11A1     0.622532  
       5B1     0.622532     6B1     0.660805    12A1     0.750036  
       7B1     0.750038     2A2     0.801717     4B2     0.801718  
       5B2     0.811310    13A1     0.892844     6B2     0.919103  
      14A1     1.021107     8B1     1.021124     9B1     1.177813  
      15A1     1.177814     3A2     1.193438     7B2     1.193439  
      16A1     1.230592    17A1     1.284871    18A1     1.299791  
      10B1     1.299804     8B2     1.378238     4A2     1.434275  
       9B2     1.434277    11B1     1.499854    19A1     1.685598  
      20A1     1.722076    12B1     1.722076    13B1     1.814695  
      21A1     1.814696     5A2     2.070370    22A1     2.109091  
      23A1     2.366064    14B1     2.366067    10B2     2.393159  
       6A2     2.469104    11B2     2.469107    24A1     2.625036  
      15B1     2.625038    25A1     2.633029    16B1     2.633041  
       7A2     2.655757    12B2     2.655758    17B1     2.708225  
      13B2     2.717109    26A1     2.724013    27A1     2.899150  
       8A2     3.013913    14B2     3.013914    18B1     3.091788  
      28A1     3.094063    19B1     3.094079    29A1     3.477282  
      20B1     3.477295    15B2     3.564119    30A1     3.566584  
      16B2     3.629947     9A2     3.629949    31A1     3.739091  
      32A1     3.739917    21B1     3.739927    17B2     3.762785  
      10A2     3.762789    18B2     3.804400    11A2     4.050235  
      33A1     4.055296    22B1     4.055296    34A1     4.455434  
      35A1     4.496355    23B1     4.496365    36A1     4.526907  
      24B1     4.526913    37A1     4.663086    19B2     4.736144  
      12A2     4.736149    25B1     4.894128    20B2     4.944851  
      38A1     5.658618    26B1     5.658622    27B1     5.990683  
      13A2     6.013667    21B2     6.013667    28B1     6.235757  
      39A1     6.235764    22B2     6.301601    23B2     6.710186  
      14A2     6.710188    40A1     6.855190    29B1     6.855191  
      41A1     6.965999    42A1     7.238504    24B2     7.287966  
      15A2     7.287967    43A1     7.311511    30B1     7.311517  
      25B2     7.322784    44A1     7.488983    31B1     7.489003  
      32B1     7.730701    45A1     7.798976    33B1     7.851177  
      46A1     7.851177    16A2     7.917582    17A2     8.037193  
      34B1     8.215241    47A1     8.215258    18A2     8.349840  
      26B2     8.349842    48A1     8.545644    19A2     8.563865  
      27B2     8.563866    28B2     8.644857    35B1     8.792703  
      29B2     8.859157    20A2     8.859163    30B2     8.930867  
      49A1     9.064520    50A1     9.103480    36B1     9.103522  
      37B1     9.305795    51A1     9.305797    38B1     9.502429  
      52A1     9.749669    53A1     9.864378    39B1     9.864404  
      54A1    10.943476    40B1    10.943484    55A1    18.139413  

    Final Occupation by Irrep:
             A1    A2    B1    B2 
    DOCC [     3,    0,    1,    0 ]

  @DF-RKS Final Energy:   -26.60751878829410

   => Energetics <=

    Nuclear Repulsion Energy =              7.4411462937889796
    One-Electron Energy =                 -49.1108390053513162
    Two-Electron Energy =                  18.3521598934372925
    DFT Exchange-Correlation Energy =      -3.3238399832197736
    Empirical Dispersion Energy =           0.0000000000000000
    VV10 Nonlocal Energy =                  0.0338540130507088
    Total Energy =                        -26.6075187882941044

Computation Completed


Properties will be evaluated at   0.000000,   0.000000,   0.000000 [a0]

Properties computed using the SCF density matrix

  Nuclear Dipole Moment: [e a0]
     X:     0.0000      Y:     0.0000      Z:    -0.0000

  Electronic Dipole Moment: [e a0]
     X:     0.0000      Y:     0.0000      Z:     0.0000

  Dipole Moment: [e a0]
     X:     0.0000      Y:     0.0000      Z:     0.0000     Total:     0.0000

  Dipole Moment: [D]
     X:     0.0000      Y:     0.0000      Z:     0.0000     Total:     0.0000


*** tstop() called on bp1-compute00066.data.bp.acrc.priv at Tue Apr 27 16:56:56 2021
Module time:
	user time   =      87.29 seconds =       1.45 minutes
	system time =       4.00 seconds =       0.07 minutes
	total time  =          4 seconds =       0.07 minutes
Total time:
	user time   =      87.29 seconds =       1.45 minutes
	system time =       4.00 seconds =       0.07 minutes
	total time  =          4 seconds =       0.07 minutes

  //>>>>>>>>>>>>>>>>>>>>>>>>>>>>>>>>>>>//
  //    Loading displacement 2 of 7    //
  //<<<<<<<<<<<<<<<<<<<<<<<<<<<<<<<<<<<//

*** tstart() called on bp1-compute00066.data.bp.acrc.priv
*** at Tue Apr 27 16:56:56 2021

   => Loading Basis Set <=

    Name: CC-PV(Q+D)Z
    Role: ORBITAL
    Keyword: BASIS
    atoms 1   entry B          line   199 file /work/zw18965/.conda/envs/p4env/share/psi4/basis/cc-pv_qpd_z.gbs 
    atoms 2-4 entry H          line    32 file /work/zw18965/.conda/envs/p4env/share/psi4/basis/cc-pv_qpd_z.gbs 


         ---------------------------------------------------------
                                   SCF
               by Justin Turney, Rob Parrish, Andy Simmonett
                          and Daniel G. A. Smith
                              RKS Reference
                       24 Threads, 137329 MiB Core
         ---------------------------------------------------------

  ==> Geometry <==

    Molecular point group: c2v
    Full point group: C2v

    Geometry (in Angstrom), charge = 0, multiplicity = 1:

       Center              X                  Y                   Z               Mass       
    ------------   -----------------  -----------------  -----------------  -----------------
         B            0.000000000000     0.000000000000    -0.000370145531    11.009305360000
         H            0.000000000000     0.000000000000     1.191247801802     1.007825032230
         H            1.030483628000     0.000000000000    -0.593602198198     1.007825032230
         H           -1.030483628000    -0.000000000000    -0.593602198198     1.007825032230

  Running in c2v symmetry.

  Rotational constants: A =      7.87588  B =      7.87586  C =      3.93793 [cm^-1]
  Rotational constants: A = 236112.98413  B = 236112.21188  C = 118056.29900 [MHz]
  Nuclear repulsion =    7.441149757572817

  Charge       = 0
  Multiplicity = 1
  Electrons    = 8
  Nalpha       = 4
  Nbeta        = 4

  ==> Algorithm <==

  SCF Algorithm Type is DF.
  DIIS enabled.
  MOM disabled.
  Fractional occupation disabled.
  Guess Type is SAD.
  Energy threshold   = 1.00e-08
  Density threshold  = 1.00e-08
  Integral threshold = 0.00e+00

  ==> Primary Basis <==

  Basis Set: CC-PV(Q+D)Z
    Blend: CC-PV(Q+D)Z
    Number of shells: 45
    Number of basis function: 145
    Number of Cartesian functions: 175
    Spherical Harmonics?: true
    Max angular momentum: 4

  ==> DFT Potential <==

   => Composite Functional: WB97X-V <= 

    wB97X-V Hyb-GGA Exchange-Correlation Functional

    N. Mardirossian and M. Head-Gordon, Phys. Chem. Chem. Phys. 16, 9904 (2014)

    Deriv               =              1
    GGA                 =           TRUE
    Meta                =          FALSE

    Exchange Hybrid     =           TRUE
    MP2 Hybrid          =          FALSE

   => Exchange-Correlation Functionals <=

    1.0000   wB97X-V range-separated functional

   => Exact (HF) Exchange <=

    0.8330            HF,LR [omega = 0.3000]
    0.1670               HF 

   => VV10 Non-Local Parameters <=

    VV10 B              =     6.0000E+00
    VV10 C              =     1.0000E-02

   => Molecular Quadrature <=

    Radial Scheme          =       TREUTLER
    Pruning Scheme         =           FLAT
    Nuclear Scheme         =       TREUTLER

    BS radius alpha        =              1
    Pruning alpha          =              1
    Radial Points          =             75
    Spherical Points       =            302
    Total Points           =          90296
    Total Blocks           =            753
    Max Points             =            256
    Max Functions          =            145

   => Loading Basis Set <=

    Name: (CC-PV(Q+D)Z AUX)
    Role: JKFIT
    Keyword: DF_BASIS_SCF
    atoms 1   entry B          line    79 file /work/zw18965/.conda/envs/p4env/share/psi4/basis/cc-pvqz-jkfit.gbs 
    atoms 2-4 entry H          line    51 file /work/zw18965/.conda/envs/p4env/share/psi4/basis/cc-pvqz-jkfit.gbs 

  ==> Pre-Iterations <==

   -------------------------------------------------------
    Irrep   Nso     Nmo     Nalpha   Nbeta   Ndocc  Nsocc
   -------------------------------------------------------
     A1        55      55       0       0       0       0
     A2        20      20       0       0       0       0
     B1        40      40       0       0       0       0
     B2        30      30       0       0       0       0
   -------------------------------------------------------
    Total     145     145       4       4       4       0
   -------------------------------------------------------

  ==> Integral Setup <==

  ==> DiskDFJK: Density-Fitted J/K Matrices <==

    J tasked:                  Yes
    K tasked:                  Yes
    wK tasked:                 Yes
    Omega:               3.000E-01
    OpenMP threads:             24
    Integrals threads:          24
    Memory [MiB]:           102651
    Algorithm:                Core
    Integral Cache:           NONE
    Schwarz Cutoff:          1E-12
    Fitting Condition:       1E-10

   => Auxiliary Basis Set <=

  Basis Set: (CC-PV(Q+D)Z AUX)
    Blend: CC-PVQZ-JKFIT
    Number of shells: 67
    Number of basis function: 259
    Number of Cartesian functions: 340
    Spherical Harmonics?: true
    Max angular momentum: 5

  Cached 100.0% of DFT collocation blocks in 0.337 [GiB].

  Minimum eigenvalue in the overlap matrix is 2.4174579945E-04.
  Using Symmetric Orthogonalization.

  SCF Guess: Superposition of Atomic Densities via on-the-fly atomic UHF.

  ==> Iterations <==

                           Total Energy        Delta E     RMS |[F,P]|

   @DF-RKS iter SAD:   -25.92010393114698   -2.59201e+01   0.00000e+00 
   @DF-RKS iter   1:   -26.59519624850765   -6.75092e-01   1.87537e-03 DIIS
   @DF-RKS iter   2:   -26.60639357567241   -1.11973e-02   5.65675e-04 DIIS
   @DF-RKS iter   3:   -26.60747875684337   -1.08518e-03   6.91406e-05 DIIS
   @DF-RKS iter   4:   -26.60751517160993   -3.64148e-05   1.12815e-05 DIIS
   @DF-RKS iter   5:   -26.60751657013186   -1.39852e-06   1.55351e-06 DIIS
   @DF-RKS iter   6:   -26.60751658963643   -1.95046e-08   1.64731e-07 DIIS
   @DF-RKS iter   7:   -26.60751658987844   -2.42014e-10   1.21442e-08 DIIS
   @DF-RKS iter   8:   -26.60751658987930   -8.56204e-13   8.93579e-10 DIIS
  Energy and wave function converged.


  ==> Post-Iterations <==

    Orbital Energies [Eh]
    ---------------------

    Doubly Occupied:                                                      

       1A1    -6.862748     2A1    -0.637367     1B1    -0.460224  
       3A1    -0.459526  

    Virtual:                                                              

       1B2     0.011061     2B1     0.157271     4A1     0.157331  
       5A1     0.159014     6A1     0.212514     3B1     0.212776  
       7A1     0.228486     2B2     0.230837     1A2     0.353744  
       3B2     0.353842     8A1     0.405159     4B1     0.405631  
       9A1     0.430596    10A1     0.523581    11A1     0.622323  
       5B1     0.622741     6B1     0.660808     7B1     0.749665  
      12A1     0.750411     4B2     0.801397     2A2     0.802036  
       5B2     0.811310    13A1     0.892844     6B2     0.919103  
      14A1     1.020934     8B1     1.021294    15A1     1.177335  
       9B1     1.178286     3A2     1.193270     7B2     1.193606  
      16A1     1.230596    17A1     1.284867    10B1     1.299712  
      18A1     1.299887     8B2     1.378237     4A2     1.434234  
       9B2     1.434317    11B1     1.499854    19A1     1.685599  
      12B1     1.721986    20A1     1.722168    13B1     1.814408  
      21A1     1.814982     5A2     2.070372    22A1     2.109091  
      23A1     2.365424    14B1     2.366708    10B2     2.393157  
      11B2     2.468861     6A2     2.469351    24A1     2.624733  
      15B1     2.625329    25A1     2.632779    16B1     2.633300  
      12B2     2.655658     7A2     2.655855    17B1     2.708228  
      13B2     2.717113    26A1     2.724014    27A1     2.899147  
      14B2     3.013083     8A2     3.014739    18B1     3.091788  
      28A1     3.092913    19B1     3.095229    29A1     3.477066  
      20B1     3.477499    15B2     3.564125    30A1     3.566580  
      16B2     3.629940     9A2     3.629955    31A1     3.739071  
      21B1     3.739564    32A1     3.740301    10A2     3.762486  
      17B2     3.763090    18B2     3.804401    11A2     4.050236  
      33A1     4.054829    22B1     4.055759    34A1     4.455326  
      23B1     4.495009    35A1     4.497692    24B1     4.526784  
      36A1     4.527141    37A1     4.663116    19B2     4.735070  
      12A2     4.737172    25B1     4.894129    20B2     4.944898  
      38A1     5.658200    26B1     5.659022    27B1     5.990685  
      21B2     6.013249    13A2     6.014089    28B1     6.235530  
      39A1     6.235993    22B2     6.301602    14A2     6.709976  
      23B2     6.710396    40A1     6.853980    29B1     6.856356  
      41A1     6.966051    42A1     7.238492    24B2     7.287467  
      15A2     7.288448    30B1     7.310801    43A1     7.312231  
      25B2     7.322794    44A1     7.485995    31B1     7.491969  
      32B1     7.730704    45A1     7.798977    46A1     7.850343  
      33B1     7.852016    16A2     7.917586    17A2     8.037197  
      47A1     8.215091    34B1     8.215411    26B2     8.349818  
      18A2     8.349862    48A1     8.545642    27B2     8.562050  
      19A2     8.565609    28B2     8.644876    35B1     8.792703  
      29B2     8.858004    20A2     8.860250    30B2     8.931006  
      49A1     9.064424    36B1     9.103211    50A1     9.103824  
      37B1     9.305703    51A1     9.305924    38B1     9.502406  
      52A1     9.749661    39B1     9.862585    53A1     9.866256  
      54A1    10.937516    40B1    10.949463    55A1    18.139404  

    Final Occupation by Irrep:
             A1    A2    B1    B2 
    DOCC [     3,    0,    1,    0 ]

  @DF-RKS Final Energy:   -26.60751658987930

   => Energetics <=

    Nuclear Repulsion Energy =              7.4411497575728172
    One-Electron Energy =                 -49.1108400144110959
    Two-Electron Energy =                  18.3521598185524439
    DFT Exchange-Correlation Energy =      -3.3238401583220036
    Empirical Dispersion Energy =           0.0000000000000000
    VV10 Nonlocal Energy =                  0.0338540067285417
    Total Energy =                        -26.6075165898792960

Computation Completed


Properties will be evaluated at   0.000000,   0.000000,   0.000000 [a0]

Properties computed using the SCF density matrix

  Nuclear Dipole Moment: [e a0]
     X:     0.0000      Y:     0.0000      Z:     0.0041

  Electronic Dipole Moment: [e a0]
     X:     0.0000      Y:     0.0000      Z:    -0.0059

  Dipole Moment: [e a0]
     X:     0.0000      Y:     0.0000      Z:    -0.0017     Total:     0.0017

  Dipole Moment: [D]
     X:     0.0000      Y:     0.0000      Z:    -0.0044     Total:     0.0044


*** tstop() called on bp1-compute00066.data.bp.acrc.priv at Tue Apr 27 16:57:00 2021
Module time:
	user time   =      83.34 seconds =       1.39 minutes
	system time =       2.56 seconds =       0.04 minutes
	total time  =          4 seconds =       0.07 minutes
Total time:
	user time   =     170.78 seconds =       2.85 minutes
	system time =       6.57 seconds =       0.11 minutes
	total time  =          8 seconds =       0.13 minutes

  //>>>>>>>>>>>>>>>>>>>>>>>>>>>>>>>>>>>//
  //    Loading displacement 3 of 7    //
  //<<<<<<<<<<<<<<<<<<<<<<<<<<<<<<<<<<<//

*** tstart() called on bp1-compute00066.data.bp.acrc.priv
*** at Tue Apr 27 16:57:00 2021

   => Loading Basis Set <=

    Name: CC-PV(Q+D)Z
    Role: ORBITAL
    Keyword: BASIS
    atoms 1   entry B          line   199 file /work/zw18965/.conda/envs/p4env/share/psi4/basis/cc-pv_qpd_z.gbs 
    atoms 2-4 entry H          line    32 file /work/zw18965/.conda/envs/p4env/share/psi4/basis/cc-pv_qpd_z.gbs 


         ---------------------------------------------------------
                                   SCF
               by Justin Turney, Rob Parrish, Andy Simmonett
                          and Daniel G. A. Smith
                              RKS Reference
                       24 Threads, 137329 MiB Core
         ---------------------------------------------------------

  ==> Geometry <==

    Molecular point group: c2v
    Full point group: C2v

    Geometry (in Angstrom), charge = 0, multiplicity = 1:

       Center              X                  Y                   Z               Mass       
    ------------   -----------------  -----------------  -----------------  -----------------
         B            0.000000000000     0.000000000000     0.000370145531    11.009305360000
         H            0.000000000000     0.000000000000     1.188552198198     1.007825032230
         H            1.030483628000     0.000000000000    -0.596297801802     1.007825032230
         H           -1.030483628000    -0.000000000000    -0.596297801802     1.007825032230

  Running in c2v symmetry.

  Rotational constants: A =      7.87588  B =      7.87586  C =      3.93793 [cm^-1]
  Rotational constants: A = 236112.98413  B = 236112.21188  C = 118056.29900 [MHz]
  Nuclear repulsion =    7.441149782668525

  Charge       = 0
  Multiplicity = 1
  Electrons    = 8
  Nalpha       = 4
  Nbeta        = 4

  ==> Algorithm <==

  SCF Algorithm Type is DF.
  DIIS enabled.
  MOM disabled.
  Fractional occupation disabled.
  Guess Type is SAD.
  Energy threshold   = 1.00e-08
  Density threshold  = 1.00e-08
  Integral threshold = 0.00e+00

  ==> Primary Basis <==

  Basis Set: CC-PV(Q+D)Z
    Blend: CC-PV(Q+D)Z
    Number of shells: 45
    Number of basis function: 145
    Number of Cartesian functions: 175
    Spherical Harmonics?: true
    Max angular momentum: 4

  ==> DFT Potential <==

   => Composite Functional: WB97X-V <= 

    wB97X-V Hyb-GGA Exchange-Correlation Functional

    N. Mardirossian and M. Head-Gordon, Phys. Chem. Chem. Phys. 16, 9904 (2014)

    Deriv               =              1
    GGA                 =           TRUE
    Meta                =          FALSE

    Exchange Hybrid     =           TRUE
    MP2 Hybrid          =          FALSE

   => Exchange-Correlation Functionals <=

    1.0000   wB97X-V range-separated functional

   => Exact (HF) Exchange <=

    0.8330            HF,LR [omega = 0.3000]
    0.1670               HF 

   => VV10 Non-Local Parameters <=

    VV10 B              =     6.0000E+00
    VV10 C              =     1.0000E-02

   => Molecular Quadrature <=

    Radial Scheme          =       TREUTLER
    Pruning Scheme         =           FLAT
    Nuclear Scheme         =       TREUTLER

    BS radius alpha        =              1
    Pruning alpha          =              1
    Radial Points          =             75
    Spherical Points       =            302
    Total Points           =          90296
    Total Blocks           =            758
    Max Points             =            256
    Max Functions          =            145

   => Loading Basis Set <=

    Name: (CC-PV(Q+D)Z AUX)
    Role: JKFIT
    Keyword: DF_BASIS_SCF
    atoms 1   entry B          line    79 file /work/zw18965/.conda/envs/p4env/share/psi4/basis/cc-pvqz-jkfit.gbs 
    atoms 2-4 entry H          line    51 file /work/zw18965/.conda/envs/p4env/share/psi4/basis/cc-pvqz-jkfit.gbs 

  ==> Pre-Iterations <==

   -------------------------------------------------------
    Irrep   Nso     Nmo     Nalpha   Nbeta   Ndocc  Nsocc
   -------------------------------------------------------
     A1        55      55       0       0       0       0
     A2        20      20       0       0       0       0
     B1        40      40       0       0       0       0
     B2        30      30       0       0       0       0
   -------------------------------------------------------
    Total     145     145       4       4       4       0
   -------------------------------------------------------

  ==> Integral Setup <==

  ==> DiskDFJK: Density-Fitted J/K Matrices <==

    J tasked:                  Yes
    K tasked:                  Yes
    wK tasked:                 Yes
    Omega:               3.000E-01
    OpenMP threads:             24
    Integrals threads:          24
    Memory [MiB]:           102651
    Algorithm:                Core
    Integral Cache:           NONE
    Schwarz Cutoff:          1E-12
    Fitting Condition:       1E-10

   => Auxiliary Basis Set <=

  Basis Set: (CC-PV(Q+D)Z AUX)
    Blend: CC-PVQZ-JKFIT
    Number of shells: 67
    Number of basis function: 259
    Number of Cartesian functions: 340
    Spherical Harmonics?: true
    Max angular momentum: 5

  Cached 100.0% of DFT collocation blocks in 0.337 [GiB].

  Minimum eigenvalue in the overlap matrix is 2.4174576708E-04.
  Using Symmetric Orthogonalization.

  SCF Guess: Superposition of Atomic Densities via on-the-fly atomic UHF.

  ==> Iterations <==

                           Total Energy        Delta E     RMS |[F,P]|

   @DF-RKS iter SAD:   -25.92010389535682   -2.59201e+01   0.00000e+00 
   @DF-RKS iter   1:   -26.59519622626123   -6.75092e-01   1.87537e-03 DIIS
   @DF-RKS iter   2:   -26.60639355576507   -1.11973e-02   5.65675e-04 DIIS
   @DF-RKS iter   3:   -26.60747873722635   -1.08518e-03   6.91406e-05 DIIS
   @DF-RKS iter   4:   -26.60751515201686   -3.64148e-05   1.12815e-05 DIIS
   @DF-RKS iter   5:   -26.60751655053973   -1.39852e-06   1.55351e-06 DIIS
   @DF-RKS iter   6:   -26.60751657004426   -1.95045e-08   1.64731e-07 DIIS
   @DF-RKS iter   7:   -26.60751657028624   -2.41986e-10   1.21442e-08 DIIS
   @DF-RKS iter   8:   -26.60751657028710   -8.56204e-13   8.93588e-10 DIIS
  Energy and wave function converged.


  ==> Post-Iterations <==

    Orbital Energies [Eh]
    ---------------------

    Doubly Occupied:                                                      

       1A1    -6.862748     2A1    -0.637367     3A1    -0.460225  
       1B1    -0.459526  

    Virtual:                                                              

       1B2     0.011061     4A1     0.157266     2B1     0.157337  
       5A1     0.159014     3B1     0.212513     6A1     0.212776  
       7A1     0.228486     2B2     0.230837     3B2     0.353743  
       1A2     0.353843     4B1     0.405159     8A1     0.405631  
       9A1     0.430596    10A1     0.523581     5B1     0.622317  
      11A1     0.622746     6B1     0.660808    12A1     0.749662  
       7B1     0.750414     2A2     0.801398     4B2     0.802035  
       5B2     0.811310    13A1     0.892844     6B2     0.919103  
       8B1     1.020952    14A1     1.021277     9B1     1.177341  
      15A1     1.178280     7B2     1.193272     3A2     1.193604  
      16A1     1.230596    17A1     1.284867    18A1     1.299706  
      10B1     1.299894     8B2     1.378237     9B2     1.434239  
       4A2     1.434313    11B1     1.499853    19A1     1.685599  
      20A1     1.721985    12B1     1.722169    21A1     1.814407  
      13B1     1.814983     5A2     2.070372    22A1     2.109091  
      14B1     2.365426    23A1     2.366706    10B2     2.393157  
       6A2     2.468860    11B2     2.469352    15B1     2.624737  
      24A1     2.625325    16B1     2.632791    25A1     2.633287  
       7A2     2.655661    12B2     2.655853    17B1     2.708228  
      13B2     2.717113    26A1     2.724014    27A1     2.899148  
       8A2     3.013085    14B2     3.014737    18B1     3.091786  
      19B1     3.092935    28A1     3.095209    20B1     3.477082  
      29A1     3.477484    15B2     3.564125    30A1     3.566580  
       9A2     3.629939    16B2     3.629956    31A1     3.739054  
      32A1     3.739592    21B1     3.740291    17B2     3.762489  
      10A2     3.763087    18B2     3.804401    11A2     4.050236  
      22B1     4.054827    33A1     4.055762    34A1     4.455324  
      35A1     4.495100    23B1     4.497596    36A1     4.526777  
      24B1     4.527155    37A1     4.663117    12A2     4.735120  
      19B2     4.737122    25B1     4.894129    20B2     4.944899  
      26B1     5.658220    38A1     5.659003    27B1     5.990685  
      13A2     6.013248    21B2     6.014090    39A1     6.235524  
      28B1     6.235998    22B2     6.301602    23B2     6.709986  
      14A2     6.710386    29B1     6.854028    40A1     6.856307  
      41A1     6.966052    42A1     7.238491    15A2     7.287481  
      24B2     7.288435    43A1     7.310812    30B1     7.312221  
      25B2     7.322795    31B1     7.486026    44A1     7.491937  
      32B1     7.730703    45A1     7.798977    33B1     7.850341  
      46A1     7.852018    16A2     7.917585    17A2     8.037197  
      34B1     8.215075    47A1     8.215427    18A2     8.349822  
      26B2     8.349856    48A1     8.545643    19A2     8.562121  
      27B2     8.565537    28B2     8.644876    35B1     8.792703  
      20A2     8.858080    29B2     8.860170    30B2     8.931011  
      49A1     9.064418    50A1     9.103249    36B1     9.103793  
      51A1     9.305756    37B1     9.305870    38B1     9.502406  
      52A1     9.749661    53A1     9.862529    39B1     9.866312  
      40B1    10.937532    54A1    10.949447    55A1    18.139404  

    Final Occupation by Irrep:
             A1    A2    B1    B2 
    DOCC [     3,    0,    1,    0 ]

  @DF-RKS Final Energy:   -26.60751657028710

   => Energetics <=

    Nuclear Repulsion Energy =              7.4411497826685249
    One-Electron Energy =                 -49.1108400277951631
    Two-Electron Energy =                  18.3521598241047421
    DFT Exchange-Correlation Energy =      -3.3238401688614374
    Empirical Dispersion Energy =           0.0000000000000000
    VV10 Nonlocal Energy =                  0.0338540195962343
    Total Energy =                        -26.6075165702870997

Computation Completed


Properties will be evaluated at   0.000000,   0.000000,   0.000000 [a0]

Properties computed using the SCF density matrix

  Nuclear Dipole Moment: [e a0]
     X:     0.0000      Y:     0.0000      Z:    -0.0041

  Electronic Dipole Moment: [e a0]
     X:     0.0000      Y:     0.0000      Z:     0.0059

  Dipole Moment: [e a0]
     X:     0.0000      Y:     0.0000      Z:     0.0017     Total:     0.0017

  Dipole Moment: [D]
     X:     0.0000      Y:     0.0000      Z:     0.0044     Total:     0.0044


*** tstop() called on bp1-compute00066.data.bp.acrc.priv at Tue Apr 27 16:57:04 2021
Module time:
	user time   =      83.43 seconds =       1.39 minutes
	system time =       3.63 seconds =       0.06 minutes
	total time  =          4 seconds =       0.07 minutes
Total time:
	user time   =     254.34 seconds =       4.24 minutes
	system time =      10.20 seconds =       0.17 minutes
	total time  =         12 seconds =       0.20 minutes

  //>>>>>>>>>>>>>>>>>>>>>>>>>>>>>>>>>>>//
  //    Loading displacement 4 of 7    //
  //<<<<<<<<<<<<<<<<<<<<<<<<<<<<<<<<<<<//

*** tstart() called on bp1-compute00066.data.bp.acrc.priv
*** at Tue Apr 27 16:57:04 2021

   => Loading Basis Set <=

    Name: CC-PV(Q+D)Z
    Role: ORBITAL
    Keyword: BASIS
    atoms 1   entry B          line   199 file /work/zw18965/.conda/envs/p4env/share/psi4/basis/cc-pv_qpd_z.gbs 
    atoms 2-4 entry H          line    32 file /work/zw18965/.conda/envs/p4env/share/psi4/basis/cc-pv_qpd_z.gbs 


         ---------------------------------------------------------
                                   SCF
               by Justin Turney, Rob Parrish, Andy Simmonett
                          and Daniel G. A. Smith
                              RKS Reference
                       24 Threads, 137329 MiB Core
         ---------------------------------------------------------

  ==> Geometry <==

    Molecular point group: c2v
    Full point group: C2v

    Geometry (in Angstrom), charge = 0, multiplicity = 1:

       Center              X                  Y                   Z               Mass       
    ------------   -----------------  -----------------  -----------------  -----------------
         B            0.000000000000     0.000000000000     0.000000000000    11.009305360000
         H            0.000000000000     0.000000000000     1.187748046231     1.007825032230
         H            1.030483628000     0.000000000000    -0.593874023116     1.007825032230
         H           -1.030483628000    -0.000000000000    -0.593874023116     1.007825032230

  Running in c2v symmetry.

  Rotational constants: A =      7.90445  B =      7.87588  C =      3.94507 [cm^-1]
  Rotational constants: A = 236969.33498  B = 236112.98413  C = 118270.19225 [MHz]
  Nuclear repulsion =    7.447882629671120

  Charge       = 0
  Multiplicity = 1
  Electrons    = 8
  Nalpha       = 4
  Nbeta        = 4

  ==> Algorithm <==

  SCF Algorithm Type is DF.
  DIIS enabled.
  MOM disabled.
  Fractional occupation disabled.
  Guess Type is SAD.
  Energy threshold   = 1.00e-08
  Density threshold  = 1.00e-08
  Integral threshold = 0.00e+00

  ==> Primary Basis <==

  Basis Set: CC-PV(Q+D)Z
    Blend: CC-PV(Q+D)Z
    Number of shells: 45
    Number of basis function: 145
    Number of Cartesian functions: 175
    Spherical Harmonics?: true
    Max angular momentum: 4

  ==> DFT Potential <==

   => Composite Functional: WB97X-V <= 

    wB97X-V Hyb-GGA Exchange-Correlation Functional

    N. Mardirossian and M. Head-Gordon, Phys. Chem. Chem. Phys. 16, 9904 (2014)

    Deriv               =              1
    GGA                 =           TRUE
    Meta                =          FALSE

    Exchange Hybrid     =           TRUE
    MP2 Hybrid          =          FALSE

   => Exchange-Correlation Functionals <=

    1.0000   wB97X-V range-separated functional

   => Exact (HF) Exchange <=

    0.8330            HF,LR [omega = 0.3000]
    0.1670               HF 

   => VV10 Non-Local Parameters <=

    VV10 B              =     6.0000E+00
    VV10 C              =     1.0000E-02

   => Molecular Quadrature <=

    Radial Scheme          =       TREUTLER
    Pruning Scheme         =           FLAT
    Nuclear Scheme         =       TREUTLER

    BS radius alpha        =              1
    Pruning alpha          =              1
    Radial Points          =             75
    Spherical Points       =            302
    Total Points           =          90296
    Total Blocks           =            757
    Max Points             =            256
    Max Functions          =            145

   => Loading Basis Set <=

    Name: (CC-PV(Q+D)Z AUX)
    Role: JKFIT
    Keyword: DF_BASIS_SCF
    atoms 1   entry B          line    79 file /work/zw18965/.conda/envs/p4env/share/psi4/basis/cc-pvqz-jkfit.gbs 
    atoms 2-4 entry H          line    51 file /work/zw18965/.conda/envs/p4env/share/psi4/basis/cc-pvqz-jkfit.gbs 

  ==> Pre-Iterations <==

   -------------------------------------------------------
    Irrep   Nso     Nmo     Nalpha   Nbeta   Ndocc  Nsocc
   -------------------------------------------------------
     A1        55      55       0       0       0       0
     A2        20      20       0       0       0       0
     B1        40      40       0       0       0       0
     B2        30      30       0       0       0       0
   -------------------------------------------------------
    Total     145     145       4       4       4       0
   -------------------------------------------------------

  ==> Integral Setup <==

  ==> DiskDFJK: Density-Fitted J/K Matrices <==

    J tasked:                  Yes
    K tasked:                  Yes
    wK tasked:                 Yes
    Omega:               3.000E-01
    OpenMP threads:             24
    Integrals threads:          24
    Memory [MiB]:           102651
    Algorithm:                Core
    Integral Cache:           NONE
    Schwarz Cutoff:          1E-12
    Fitting Condition:       1E-10

   => Auxiliary Basis Set <=

  Basis Set: (CC-PV(Q+D)Z AUX)
    Blend: CC-PVQZ-JKFIT
    Number of shells: 67
    Number of basis function: 259
    Number of Cartesian functions: 340
    Spherical Harmonics?: true
    Max angular momentum: 5

  Cached 100.0% of DFT collocation blocks in 0.337 [GiB].

  Minimum eigenvalue in the overlap matrix is 2.4109481871E-04.
  Using Symmetric Orthogonalization.

  SCF Guess: Superposition of Atomic Densities via on-the-fly atomic UHF.

  ==> Iterations <==

                           Total Energy        Delta E     RMS |[F,P]|

   @DF-RKS iter SAD:   -25.92055979940332   -2.59206e+01   0.00000e+00 
   @DF-RKS iter   1:   -26.59512423496331   -6.74564e-01   1.88090e-03 DIIS
   @DF-RKS iter   2:   -26.60637982084386   -1.12556e-02   5.67191e-04 DIIS
   @DF-RKS iter   3:   -26.60746953634446   -1.08972e-03   6.91193e-05 DIIS
   @DF-RKS iter   4:   -26.60750591038337   -3.63740e-05   1.12827e-05 DIIS
   @DF-RKS iter   5:   -26.60750730803053   -1.39765e-06   1.55487e-06 DIIS
   @DF-RKS iter   6:   -26.60750732758098   -1.95504e-08   1.65216e-07 DIIS
   @DF-RKS iter   7:   -26.60750732782430   -2.43318e-10   1.21580e-08 DIIS
   @DF-RKS iter   8:   -26.60750732782520   -8.98837e-13   8.98855e-10 DIIS
  Energy and wave function converged.


  ==> Post-Iterations <==

    Orbital Energies [Eh]
    ---------------------

    Doubly Occupied:                                                      

       1A1    -6.862375     2A1    -0.637537     1B1    -0.460008  
       3A1    -0.459995  

    Virtual:                                                              

       1B2     0.011107     4A1     0.157221     2B1     0.157305  
       5A1     0.159151     3B1     0.212756     6A1     0.212820  
       7A1     0.228453     2B2     0.230864     1A2     0.353791  
       3B2     0.353840     8A1     0.405474     4B1     0.405545  
       9A1     0.430866    10A1     0.523956     5B1     0.622680  
      11A1     0.623140     6B1     0.661031    12A1     0.749829  
       7B1     0.749848     4B2     0.801764     2A2     0.801970  
       5B2     0.811722    13A1     0.892351     6B2     0.919019  
      14A1     1.021111     8B1     1.021328    15A1     1.178401  
       9B1     1.178675     3A2     1.193366     7B2     1.193421  
      16A1     1.230874    17A1     1.285145    10B1     1.299792  
      18A1     1.299909     8B2     1.378371     4A2     1.434304  
       9B2     1.434780    11B1     1.500001    19A1     1.685999  
      20A1     1.721901    12B1     1.721931    13B1     1.815015  
      21A1     1.816176     5A2     2.070849    22A1     2.109783  
      23A1     2.366724    14B1     2.366728    10B2     2.393570  
      11B2     2.469427     6A2     2.469958    24A1     2.624869  
      15B1     2.625494    16B1     2.633413    25A1     2.633664  
      12B2     2.655897     7A2     2.657485    17B1     2.709444  
      13B2     2.717262    26A1     2.725090    27A1     2.899017  
       8A2     3.014330    14B2     3.014525    18B1     3.091491  
      19B1     3.094966    28A1     3.096213    29A1     3.477672  
      20B1     3.478885    15B2     3.564915    30A1     3.567989  
      16B2     3.629988     9A2     3.630107    31A1     3.739444  
      32A1     3.740662    21B1     3.742099    17B2     3.762807  
      10A2     3.762868    18B2     3.804514    11A2     4.051953  
      33A1     4.055904    22B1     4.056038    34A1     4.456099  
      23B1     4.495024    35A1     4.497704    24B1     4.526866  
      36A1     4.529147    37A1     4.664846    12A2     4.736667  
      19B2     4.739769    25B1     4.897948    20B2     4.948085  
      38A1     5.660983    26B1     5.661180    27B1     5.991132  
      21B2     6.014262    13A2     6.014607    39A1     6.236274  
      28B1     6.238313    22B2     6.303657    23B2     6.711448  
      14A2     6.715439    29B1     6.857321    40A1     6.858950  
      41A1     6.966615    42A1     7.240827    15A2     7.289274  
      24B2     7.290424    43A1     7.314063    30B1     7.316001  
      25B2     7.323011    44A1     7.488942    31B1     7.490767  
      32B1     7.731372    45A1     7.800861    33B1     7.852232  
      46A1     7.853381    16A2     7.919558    17A2     8.040238  
      47A1     8.216138    34B1     8.216202    26B2     8.350074  
      18A2     8.351552    48A1     8.546971    19A2     8.565371  
      27B2     8.568901    28B2     8.645787    35B1     8.791355  
      20A2     8.859748    29B2     8.860278    30B2     8.936080  
      49A1     9.071966    36B1     9.105261    50A1     9.106331  
      51A1     9.307556    37B1     9.310016    38B1     9.512328  
      52A1     9.750392    39B1     9.866054    53A1     9.870276  
      40B1    10.947971    54A1    10.954798    55A1    18.153367  

    Final Occupation by Irrep:
             A1    A2    B1    B2 
    DOCC [     3,    0,    1,    0 ]

  @DF-RKS Final Energy:   -26.60750732782520

   => Energetics <=

    Nuclear Repulsion Energy =              7.4478826296711205
    One-Electron Energy =                 -49.1237362864109031
    Two-Electron Energy =                  18.3590355339329356
    DFT Exchange-Correlation Energy =      -3.3245440687316696
    Empirical Dispersion Energy =           0.0000000000000000
    VV10 Nonlocal Energy =                  0.0338548637133149
    Total Energy =                        -26.6075073278251999

Computation Completed


Properties will be evaluated at   0.000000,   0.000000,   0.000000 [a0]

Properties computed using the SCF density matrix

  Nuclear Dipole Moment: [e a0]
     X:     0.0000      Y:     0.0000      Z:     0.0000

  Electronic Dipole Moment: [e a0]
     X:     0.0000      Y:     0.0000      Z:     0.0006

  Dipole Moment: [e a0]
     X:     0.0000      Y:     0.0000      Z:     0.0006     Total:     0.0006

  Dipole Moment: [D]
     X:     0.0000      Y:     0.0000      Z:     0.0015     Total:     0.0015


*** tstop() called on bp1-compute00066.data.bp.acrc.priv at Tue Apr 27 16:57:08 2021
Module time:
	user time   =      83.39 seconds =       1.39 minutes
	system time =       2.44 seconds =       0.04 minutes
	total time  =          4 seconds =       0.07 minutes
Total time:
	user time   =     337.87 seconds =       5.63 minutes
	system time =      12.65 seconds =       0.21 minutes
	total time  =         16 seconds =       0.27 minutes

  //>>>>>>>>>>>>>>>>>>>>>>>>>>>>>>>>>>>//
  //    Loading displacement 5 of 7    //
  //<<<<<<<<<<<<<<<<<<<<<<<<<<<<<<<<<<<//

*** tstart() called on bp1-compute00066.data.bp.acrc.priv
*** at Tue Apr 27 16:57:08 2021

   => Loading Basis Set <=

    Name: CC-PV(Q+D)Z
    Role: ORBITAL
    Keyword: BASIS
    atoms 1   entry B          line   199 file /work/zw18965/.conda/envs/p4env/share/psi4/basis/cc-pv_qpd_z.gbs 
    atoms 2-4 entry H          line    32 file /work/zw18965/.conda/envs/p4env/share/psi4/basis/cc-pv_qpd_z.gbs 


         ---------------------------------------------------------
                                   SCF
               by Justin Turney, Rob Parrish, Andy Simmonett
                          and Daniel G. A. Smith
                              RKS Reference
                       24 Threads, 137329 MiB Core
         ---------------------------------------------------------

  ==> Geometry <==

    Molecular point group: c2v
    Full point group: C2v

    Geometry (in Angstrom), charge = 0, multiplicity = 1:

       Center              X                  Y                   Z               Mass       
    ------------   -----------------  -----------------  -----------------  -----------------
         B            0.000000000000     0.000000000000     0.000000000000    11.009305360000
         H            0.000000000000     0.000000000000     1.192051953769     1.007825032230
         H            1.030483628000     0.000000000000    -0.596025976884     1.007825032230
         H           -1.030483628000    -0.000000000000    -0.596025976884     1.007825032230

  Running in c2v symmetry.

  Rotational constants: A =      7.87588  B =      7.84747  C =      3.93083 [cm^-1]
  Rotational constants: A = 236112.98413  B = 235261.26691  C = 117843.17802 [MHz]
  Nuclear repulsion =    7.434425169199378

  Charge       = 0
  Multiplicity = 1
  Electrons    = 8
  Nalpha       = 4
  Nbeta        = 4

  ==> Algorithm <==

  SCF Algorithm Type is DF.
  DIIS enabled.
  MOM disabled.
  Fractional occupation disabled.
  Guess Type is SAD.
  Energy threshold   = 1.00e-08
  Density threshold  = 1.00e-08
  Integral threshold = 0.00e+00

  ==> Primary Basis <==

  Basis Set: CC-PV(Q+D)Z
    Blend: CC-PV(Q+D)Z
    Number of shells: 45
    Number of basis function: 145
    Number of Cartesian functions: 175
    Spherical Harmonics?: true
    Max angular momentum: 4

  ==> DFT Potential <==

   => Composite Functional: WB97X-V <= 

    wB97X-V Hyb-GGA Exchange-Correlation Functional

    N. Mardirossian and M. Head-Gordon, Phys. Chem. Chem. Phys. 16, 9904 (2014)

    Deriv               =              1
    GGA                 =           TRUE
    Meta                =          FALSE

    Exchange Hybrid     =           TRUE
    MP2 Hybrid          =          FALSE

   => Exchange-Correlation Functionals <=

    1.0000   wB97X-V range-separated functional

   => Exact (HF) Exchange <=

    0.8330            HF,LR [omega = 0.3000]
    0.1670               HF 

   => VV10 Non-Local Parameters <=

    VV10 B              =     6.0000E+00
    VV10 C              =     1.0000E-02

   => Molecular Quadrature <=

    Radial Scheme          =       TREUTLER
    Pruning Scheme         =           FLAT
    Nuclear Scheme         =       TREUTLER

    BS radius alpha        =              1
    Pruning alpha          =              1
    Radial Points          =             75
    Spherical Points       =            302
    Total Points           =          90296
    Total Blocks           =            752
    Max Points             =            256
    Max Functions          =            145

   => Loading Basis Set <=

    Name: (CC-PV(Q+D)Z AUX)
    Role: JKFIT
    Keyword: DF_BASIS_SCF
    atoms 1   entry B          line    79 file /work/zw18965/.conda/envs/p4env/share/psi4/basis/cc-pvqz-jkfit.gbs 
    atoms 2-4 entry H          line    51 file /work/zw18965/.conda/envs/p4env/share/psi4/basis/cc-pvqz-jkfit.gbs 

  ==> Pre-Iterations <==

   -------------------------------------------------------
    Irrep   Nso     Nmo     Nalpha   Nbeta   Ndocc  Nsocc
   -------------------------------------------------------
     A1        55      55       0       0       0       0
     A2        20      20       0       0       0       0
     B1        40      40       0       0       0       0
     B2        30      30       0       0       0       0
   -------------------------------------------------------
    Total     145     145       4       4       4       0
   -------------------------------------------------------

  ==> Integral Setup <==

  ==> DiskDFJK: Density-Fitted J/K Matrices <==

    J tasked:                  Yes
    K tasked:                  Yes
    wK tasked:                 Yes
    Omega:               3.000E-01
    OpenMP threads:             24
    Integrals threads:          24
    Memory [MiB]:           102651
    Algorithm:                Core
    Integral Cache:           NONE
    Schwarz Cutoff:          1E-12
    Fitting Condition:       1E-10

   => Auxiliary Basis Set <=

  Basis Set: (CC-PV(Q+D)Z AUX)
    Blend: CC-PVQZ-JKFIT
    Number of shells: 67
    Number of basis function: 259
    Number of Cartesian functions: 340
    Spherical Harmonics?: true
    Max angular momentum: 5

  Cached 100.0% of DFT collocation blocks in 0.337 [GiB].

  Minimum eigenvalue in the overlap matrix is 2.4240416138E-04.
  Using Symmetric Orthogonalization.

  SCF Guess: Superposition of Atomic Densities via on-the-fly atomic UHF.

  ==> Iterations <==

                           Total Energy        Delta E     RMS |[F,P]|

   @DF-RKS iter SAD:   -25.91964856685933   -2.59196e+01   0.00000e+00 
   @DF-RKS iter   1:   -26.59526733089747   -6.75619e-01   1.86986e-03 DIIS
   @DF-RKS iter   2:   -26.60640660991715   -1.11393e-02   5.64158e-04 DIIS
   @DF-RKS iter   3:   -26.60748725212348   -1.08064e-03   6.91613e-05 DIIS
   @DF-RKS iter   4:   -26.60752370622891   -3.64541e-05   1.12802e-05 DIIS
   @DF-RKS iter   5:   -26.60752510555390   -1.39932e-06   1.55216e-06 DIIS
   @DF-RKS iter   6:   -26.60752512501283   -1.94589e-08   1.64299e-07 DIIS
   @DF-RKS iter   7:   -26.60752512525359   -2.40760e-10   1.21342e-08 DIIS
   @DF-RKS iter   8:   -26.60752512525445   -8.52651e-13   8.96776e-10 DIIS
  Energy and wave function converged.


  ==> Post-Iterations <==

    Orbital Energies [Eh]
    ---------------------

    Doubly Occupied:                                                      

       1A1    -6.863120     2A1    -0.637196     3A1    -0.459756  
       1B1    -0.459741  

    Virtual:                                                              

       1B2     0.011016     2B1     0.157304     4A1     0.157379  
       5A1     0.158874     6A1     0.212467     3B1     0.212533  
       7A1     0.228522     2B2     0.230811     3B2     0.353745  
       1A2     0.353797     4B1     0.405247     8A1     0.405312  
       9A1     0.430329    10A1     0.523210    11A1     0.621927  
       5B1     0.622376     6B1     0.660589     7B1     0.750227  
      12A1     0.750243     2A2     0.801464     4B2     0.801654  
       5B2     0.810915    13A1     0.893336     6B2     0.919186  
       8B1     1.020917    14A1     1.021102     9B1     1.176951  
      15A1     1.177222     7B2     1.193457     3A2     1.193509  
      16A1     1.230311    17A1     1.284599    18A1     1.299674  
      10B1     1.299818     8B2     1.378106     9B2     1.433771  
       4A2     1.434245    11B1     1.499703    19A1     1.685196  
      12B1     1.722226    20A1     1.722245    21A1     1.813226  
      13B1     1.814382     5A2     2.069897    22A1     2.108393  
      23A1     2.365402    14B1     2.365406    10B2     2.392741  
       6A2     2.468243    11B2     2.468793    15B1     2.624539  
      24A1     2.625144    25A1     2.632444    16B1     2.632703  
       7A2     2.654038    12B2     2.655609    17B1     2.707013  
      13B2     2.716966    26A1     2.722927    27A1     2.899295  
      14B2     3.013296     8A2     3.013496    28A1     3.091919  
      18B1     3.092071    19B1     3.093215    20B1     3.475647  
      29A1     3.476877    15B2     3.563331    30A1     3.565172  
       9A2     3.629796    16B2     3.629907    21B1     3.737812  
      31A1     3.738156    32A1     3.739762    10A2     3.762709  
      17B2     3.762771    18B2     3.804288    11A2     4.048502  
      22B1     4.054559    33A1     4.054664    34A1     4.454749  
      35A1     4.495037    23B1     4.497629    36A1     4.524681  
      24B1     4.527014    37A1     4.661335    19B2     4.732502  
      12A2     4.735636    25B1     4.890326    20B2     4.941649  
      26B1     5.656058    38A1     5.656216    27B1     5.990244  
      13A2     6.012734    21B2     6.013075    28B1     6.233217  
      39A1     6.235254    22B2     6.299528    14A2     6.704961  
      23B2     6.708967    40A1     6.851431    29B1     6.853051  
      41A1     6.965352    42A1     7.236184    24B2     7.285485  
      15A2     7.286668    30B1     7.306959    43A1     7.308966  
      25B2     7.322558    31B1     7.487337    44A1     7.489022  
      32B1     7.730006    45A1     7.797119    46A1     7.849019  
      33B1     7.850133    16A2     7.915409    17A2     8.034294  
      34B1     8.214298    47A1     8.214390    18A2     8.348129  
      26B2     8.349601    48A1     8.544294    27B2     8.558776  
      19A2     8.562385    28B2     8.643944    35B1     8.794034  
      29B2     8.858043    20A2     8.858580    30B2     8.925725  
      49A1     9.057078    50A1     9.100599    36B1     9.101672  
      37B1     9.301639    51A1     9.304073    38B1     9.492585  
      52A1     9.748935    53A1     9.858538    39B1     9.862768  
      54A1    10.932138    40B1    10.938983    55A1    18.125455  

    Final Occupation by Irrep:
             A1    A2    B1    B2 
    DOCC [     3,    0,    1,    0 ]

  @DF-RKS Final Energy:   -26.60752512525445

   => Energetics <=

    Nuclear Repulsion Energy =              7.4344251691993781
    One-Electron Energy =                 -49.0979606386712746
    Two-Electron Energy =                  18.3452941920983932
    DFT Exchange-Correlation Energy =      -3.3231370109828626
    Empirical Dispersion Energy =           0.0000000000000000
    VV10 Nonlocal Energy =                  0.0338531631019156
    Total Energy =                        -26.6075251252544476

Computation Completed


Properties will be evaluated at   0.000000,   0.000000,   0.000000 [a0]

Properties computed using the SCF density matrix

  Nuclear Dipole Moment: [e a0]
     X:     0.0000      Y:     0.0000      Z:    -0.0000

  Electronic Dipole Moment: [e a0]
     X:     0.0000      Y:     0.0000      Z:    -0.0006

  Dipole Moment: [e a0]
     X:     0.0000      Y:     0.0000      Z:    -0.0006     Total:     0.0006

  Dipole Moment: [D]
     X:     0.0000      Y:     0.0000      Z:    -0.0014     Total:     0.0014


*** tstop() called on bp1-compute00066.data.bp.acrc.priv at Tue Apr 27 16:57:11 2021
Module time:
	user time   =      81.97 seconds =       1.37 minutes
	system time =       2.29 seconds =       0.04 minutes
	total time  =          3 seconds =       0.05 minutes
Total time:
	user time   =     419.97 seconds =       7.00 minutes
	system time =      14.95 seconds =       0.25 minutes
	total time  =         19 seconds =       0.32 minutes

  //>>>>>>>>>>>>>>>>>>>>>>>>>>>>>>>>>>>//
  //    Loading displacement 6 of 7    //
  //<<<<<<<<<<<<<<<<<<<<<<<<<<<<<<<<<<<//

*** tstart() called on bp1-compute00066.data.bp.acrc.priv
*** at Tue Apr 27 16:57:11 2021

   => Loading Basis Set <=

    Name: CC-PV(Q+D)Z
    Role: ORBITAL
    Keyword: BASIS
    atoms 1   entry B          line   199 file /work/zw18965/.conda/envs/p4env/share/psi4/basis/cc-pv_qpd_z.gbs 
    atoms 2-4 entry H          line    32 file /work/zw18965/.conda/envs/p4env/share/psi4/basis/cc-pv_qpd_z.gbs 


         ---------------------------------------------------------
                                   SCF
               by Justin Turney, Rob Parrish, Andy Simmonett
                          and Daniel G. A. Smith
                              RKS Reference
                       24 Threads, 137329 MiB Core
         ---------------------------------------------------------

  ==> Geometry <==

    Molecular point group: c2v
    Full point group: C2v

    Geometry (in Angstrom), charge = 0, multiplicity = 1:

       Center              X                  Y                   Z               Mass       
    ------------   -----------------  -----------------  -----------------  -----------------
         B            0.000000000000     0.000000000000     0.000000000000    11.009305360000
         H            0.000000000000     0.000000000000     1.189900000000     1.007825032230
         H            1.028619981368     0.000000000000    -0.594950000000     1.007825032230
         H           -1.028619981368    -0.000000000000    -0.594950000000     1.007825032230

  Running in c2v symmetry.

  Rotational constants: A =      7.90445  B =      7.87588  C =      3.94507 [cm^-1]
  Rotational constants: A = 236969.33496  B = 236112.98414  C = 118270.19225 [MHz]
  Nuclear repulsion =    7.447882624197644

  Charge       = 0
  Multiplicity = 1
  Electrons    = 8
  Nalpha       = 4
  Nbeta        = 4

  ==> Algorithm <==

  SCF Algorithm Type is DF.
  DIIS enabled.
  MOM disabled.
  Fractional occupation disabled.
  Guess Type is SAD.
  Energy threshold   = 1.00e-08
  Density threshold  = 1.00e-08
  Integral threshold = 0.00e+00

  ==> Primary Basis <==

  Basis Set: CC-PV(Q+D)Z
    Blend: CC-PV(Q+D)Z
    Number of shells: 45
    Number of basis function: 145
    Number of Cartesian functions: 175
    Spherical Harmonics?: true
    Max angular momentum: 4

  ==> DFT Potential <==

   => Composite Functional: WB97X-V <= 

    wB97X-V Hyb-GGA Exchange-Correlation Functional

    N. Mardirossian and M. Head-Gordon, Phys. Chem. Chem. Phys. 16, 9904 (2014)

    Deriv               =              1
    GGA                 =           TRUE
    Meta                =          FALSE

    Exchange Hybrid     =           TRUE
    MP2 Hybrid          =          FALSE

   => Exchange-Correlation Functionals <=

    1.0000   wB97X-V range-separated functional

   => Exact (HF) Exchange <=

    0.8330            HF,LR [omega = 0.3000]
    0.1670               HF 

   => VV10 Non-Local Parameters <=

    VV10 B              =     6.0000E+00
    VV10 C              =     1.0000E-02

   => Molecular Quadrature <=

    Radial Scheme          =       TREUTLER
    Pruning Scheme         =           FLAT
    Nuclear Scheme         =       TREUTLER

    BS radius alpha        =              1
    Pruning alpha          =              1
    Radial Points          =             75
    Spherical Points       =            302
    Total Points           =          90296
    Total Blocks           =            755
    Max Points             =            256
    Max Functions          =            145

   => Loading Basis Set <=

    Name: (CC-PV(Q+D)Z AUX)
    Role: JKFIT
    Keyword: DF_BASIS_SCF
    atoms 1   entry B          line    79 file /work/zw18965/.conda/envs/p4env/share/psi4/basis/cc-pvqz-jkfit.gbs 
    atoms 2-4 entry H          line    51 file /work/zw18965/.conda/envs/p4env/share/psi4/basis/cc-pvqz-jkfit.gbs 

  ==> Pre-Iterations <==

   -------------------------------------------------------
    Irrep   Nso     Nmo     Nalpha   Nbeta   Ndocc  Nsocc
   -------------------------------------------------------
     A1        55      55       0       0       0       0
     A2        20      20       0       0       0       0
     B1        40      40       0       0       0       0
     B2        30      30       0       0       0       0
   -------------------------------------------------------
    Total     145     145       4       4       4       0
   -------------------------------------------------------

  ==> Integral Setup <==

  ==> DiskDFJK: Density-Fitted J/K Matrices <==

    J tasked:                  Yes
    K tasked:                  Yes
    wK tasked:                 Yes
    Omega:               3.000E-01
    OpenMP threads:             24
    Integrals threads:          24
    Memory [MiB]:           102651
    Algorithm:                Core
    Integral Cache:           NONE
    Schwarz Cutoff:          1E-12
    Fitting Condition:       1E-10

   => Auxiliary Basis Set <=

  Basis Set: (CC-PV(Q+D)Z AUX)
    Blend: CC-PVQZ-JKFIT
    Number of shells: 67
    Number of basis function: 259
    Number of Cartesian functions: 340
    Spherical Harmonics?: true
    Max angular momentum: 5

  Cached 100.0% of DFT collocation blocks in 0.337 [GiB].

  Minimum eigenvalue in the overlap matrix is 2.4109483055E-04.
  Using Symmetric Orthogonalization.

  SCF Guess: Superposition of Atomic Densities via on-the-fly atomic UHF.

  ==> Iterations <==

                           Total Energy        Delta E     RMS |[F,P]|

   @DF-RKS iter SAD:   -25.92055980281586   -2.59206e+01   0.00000e+00 
   @DF-RKS iter   1:   -26.59512424093942   -6.74564e-01   1.88090e-03 DIIS
   @DF-RKS iter   2:   -26.60637982606701   -1.12556e-02   5.67191e-04 DIIS
   @DF-RKS iter   3:   -26.60746954157806   -1.08972e-03   6.91193e-05 DIIS
   @DF-RKS iter   4:   -26.60750591562571   -3.63740e-05   1.12827e-05 DIIS
   @DF-RKS iter   5:   -26.60750731327344   -1.39765e-06   1.55487e-06 DIIS
   @DF-RKS iter   6:   -26.60750733282394   -1.95505e-08   1.65216e-07 DIIS
   @DF-RKS iter   7:   -26.60750733306723   -2.43286e-10   1.21580e-08 DIIS
   @DF-RKS iter   8:   -26.60750733306813   -8.98837e-13   8.98883e-10 DIIS
  Energy and wave function converged.


  ==> Post-Iterations <==

    Orbital Energies [Eh]
    ---------------------

    Doubly Occupied:                                                      

       1A1    -6.862375     2A1    -0.637537     3A1    -0.460010  
       1B1    -0.459994  

    Virtual:                                                              

       1B2     0.011107     2B1     0.157225     4A1     0.157301  
       5A1     0.159151     6A1     0.212755     3B1     0.212821  
       7A1     0.228453     2B2     0.230864     3B2     0.353789  
       1A2     0.353841     4B1     0.405477     8A1     0.405542  
       9A1     0.430866    10A1     0.523956    11A1     0.622685  
       5B1     0.623135     6B1     0.661031     7B1     0.749831  
      12A1     0.749845     2A2     0.801771     4B2     0.801962  
       5B2     0.811722    13A1     0.892351     6B2     0.919019  
       8B1     1.021129    14A1     1.021310     9B1     1.178401  
      15A1     1.178675     7B2     1.193367     3A2     1.193420  
      16A1     1.230874    17A1     1.285145    18A1     1.299779  
      10B1     1.299922     8B2     1.378371     9B2     1.434306  
       4A2     1.434778    11B1     1.500001    19A1     1.686000  
      12B1     1.721904    20A1     1.721928    21A1     1.815014  
      13B1     1.816176     5A2     2.070849    22A1     2.109783  
      23A1     2.366725    14B1     2.366727    10B2     2.393570  
       6A2     2.469422    11B2     2.469963    15B1     2.624876  
      24A1     2.625487    25A1     2.633405    16B1     2.633672  
       7A2     2.655899    12B2     2.657484    17B1     2.709444  
      13B2     2.717262    26A1     2.725090    27A1     2.899017  
      14B2     3.014330     8A2     3.014525    18B1     3.091492  
      28A1     3.094948    19B1     3.096230    20B1     3.477686  
      29A1     3.478871    15B2     3.564915    30A1     3.567989  
       9A2     3.629989    16B2     3.630106    31A1     3.739686  
      21B1     3.740296    32A1     3.742223    10A2     3.762809  
      17B2     3.762865    18B2     3.804514    11A2     4.051953  
      22B1     4.055905    33A1     4.056037    34A1     4.456098  
      35A1     4.495035    23B1     4.497694    36A1     4.526859  
      24B1     4.529154    37A1     4.664846    19B2     4.736642  
      12A2     4.739794    25B1     4.897948    20B2     4.948085  
      26B1     5.660990    38A1     5.661173    27B1     5.991132  
      13A2     6.014263    21B2     6.014607    28B1     6.236270  
      39A1     6.238316    22B2     6.303658    14A2     6.711429  
      23B2     6.715458    40A1     6.857307    29B1     6.858964  
      41A1     6.966615    42A1     7.240827    24B2     7.289270  
      15A2     7.290428    30B1     7.314051    43A1     7.316014  
      25B2     7.323011    31B1     7.488929    44A1     7.490780  
      32B1     7.731372    45A1     7.800860    46A1     7.852231  
      33B1     7.853382    16A2     7.919557    17A2     8.040238  
      34B1     8.216122    47A1     8.216217    18A2     8.350076  
      26B2     8.351548    48A1     8.546972    27B2     8.565341  
      19A2     8.568931    28B2     8.645787    35B1     8.791355  
      29B2     8.859729    20A2     8.860298    30B2     8.936079  
      49A1     9.071966    50A1     9.105256    36B1     9.106335  
      37B1     9.307534    51A1     9.310036    38B1     9.512328  
      52A1     9.750392    53A1     9.866014    39B1     9.870316  
      54A1    10.947962    40B1    10.954807    55A1    18.153366  

    Final Occupation by Irrep:
             A1    A2    B1    B2 
    DOCC [     3,    0,    1,    0 ]

  @DF-RKS Final Energy:   -26.60750733306813

   => Energetics <=

    Nuclear Repulsion Energy =              7.4478826241976437
    One-Electron Energy =                 -49.1237362895623164
    Two-Electron Energy =                  18.3590355423692486
    DFT Exchange-Correlation Energy =      -3.3245440713881038
    Empirical Dispersion Energy =           0.0000000000000000
    VV10 Nonlocal Energy =                  0.0338548613153984
    Total Energy =                        -26.6075073330681278

Computation Completed


Properties will be evaluated at   0.000000,   0.000000,   0.000000 [a0]

Properties computed using the SCF density matrix

  Nuclear Dipole Moment: [e a0]
     X:     0.0000      Y:     0.0000      Z:    -0.0000

  Electronic Dipole Moment: [e a0]
     X:     0.0000      Y:     0.0000      Z:    -0.0006

  Dipole Moment: [e a0]
     X:     0.0000      Y:     0.0000      Z:    -0.0006     Total:     0.0006

  Dipole Moment: [D]
     X:     0.0000      Y:     0.0000      Z:    -0.0014     Total:     0.0014


*** tstop() called on bp1-compute00066.data.bp.acrc.priv at Tue Apr 27 16:57:15 2021
Module time:
	user time   =      82.79 seconds =       1.38 minutes
	system time =       2.35 seconds =       0.04 minutes
	total time  =          4 seconds =       0.07 minutes
Total time:
	user time   =     502.90 seconds =       8.38 minutes
	system time =      17.31 seconds =       0.29 minutes
	total time  =         23 seconds =       0.38 minutes

  //>>>>>>>>>>>>>>>>>>>>>>>>>>>>>>>>>>>//
  //    Loading displacement 7 of 7    //
  //<<<<<<<<<<<<<<<<<<<<<<<<<<<<<<<<<<<//

*** tstart() called on bp1-compute00066.data.bp.acrc.priv
*** at Tue Apr 27 16:57:15 2021

   => Loading Basis Set <=

    Name: CC-PV(Q+D)Z
    Role: ORBITAL
    Keyword: BASIS
    atoms 1   entry B          line   199 file /work/zw18965/.conda/envs/p4env/share/psi4/basis/cc-pv_qpd_z.gbs 
    atoms 2-4 entry H          line    32 file /work/zw18965/.conda/envs/p4env/share/psi4/basis/cc-pv_qpd_z.gbs 


         ---------------------------------------------------------
                                   SCF
               by Justin Turney, Rob Parrish, Andy Simmonett
                          and Daniel G. A. Smith
                              RKS Reference
                       24 Threads, 137329 MiB Core
         ---------------------------------------------------------

  ==> Geometry <==

    Molecular point group: c2v
    Full point group: C2v

    Geometry (in Angstrom), charge = 0, multiplicity = 1:

       Center              X                  Y                   Z               Mass       
    ------------   -----------------  -----------------  -----------------  -----------------
         B            0.000000000000    -0.000000000000     0.000000000000    11.009305360000
         H            0.000000000000    -0.000000000000     1.189900000000     1.007825032230
         H            1.032347274632     0.000000000000    -0.594950000000     1.007825032230
         H           -1.032347274632    -0.000000000000    -0.594950000000     1.007825032230

  Running in c2v symmetry.

  Rotational constants: A =      7.87588  B =      7.84747  C =      3.93083 [cm^-1]
  Rotational constants: A = 236112.98414  B = 235261.26689  C = 117843.17802 [MHz]
  Nuclear repulsion =    7.434425174633400

  Charge       = 0
  Multiplicity = 1
  Electrons    = 8
  Nalpha       = 4
  Nbeta        = 4

  ==> Algorithm <==

  SCF Algorithm Type is DF.
  DIIS enabled.
  MOM disabled.
  Fractional occupation disabled.
  Guess Type is SAD.
  Energy threshold   = 1.00e-08
  Density threshold  = 1.00e-08
  Integral threshold = 0.00e+00

  ==> Primary Basis <==

  Basis Set: CC-PV(Q+D)Z
    Blend: CC-PV(Q+D)Z
    Number of shells: 45
    Number of basis function: 145
    Number of Cartesian functions: 175
    Spherical Harmonics?: true
    Max angular momentum: 4

  ==> DFT Potential <==

   => Composite Functional: WB97X-V <= 

    wB97X-V Hyb-GGA Exchange-Correlation Functional

    N. Mardirossian and M. Head-Gordon, Phys. Chem. Chem. Phys. 16, 9904 (2014)

    Deriv               =              1
    GGA                 =           TRUE
    Meta                =          FALSE

    Exchange Hybrid     =           TRUE
    MP2 Hybrid          =          FALSE

   => Exchange-Correlation Functionals <=

    1.0000   wB97X-V range-separated functional

   => Exact (HF) Exchange <=

    0.8330            HF,LR [omega = 0.3000]
    0.1670               HF 

   => VV10 Non-Local Parameters <=

    VV10 B              =     6.0000E+00
    VV10 C              =     1.0000E-02

   => Molecular Quadrature <=

    Radial Scheme          =       TREUTLER
    Pruning Scheme         =           FLAT
    Nuclear Scheme         =       TREUTLER

    BS radius alpha        =              1
    Pruning alpha          =              1
    Radial Points          =             75
    Spherical Points       =            302
    Total Points           =          90296
    Total Blocks           =            755
    Max Points             =            256
    Max Functions          =            145

   => Loading Basis Set <=

    Name: (CC-PV(Q+D)Z AUX)
    Role: JKFIT
    Keyword: DF_BASIS_SCF
    atoms 1   entry B          line    79 file /work/zw18965/.conda/envs/p4env/share/psi4/basis/cc-pvqz-jkfit.gbs 
    atoms 2-4 entry H          line    51 file /work/zw18965/.conda/envs/p4env/share/psi4/basis/cc-pvqz-jkfit.gbs 

  ==> Pre-Iterations <==

   -------------------------------------------------------
    Irrep   Nso     Nmo     Nalpha   Nbeta   Ndocc  Nsocc
   -------------------------------------------------------
     A1        55      55       0       0       0       0
     A2        20      20       0       0       0       0
     B1        40      40       0       0       0       0
     B2        30      30       0       0       0       0
   -------------------------------------------------------
    Total     145     145       4       4       4       0
   -------------------------------------------------------

  ==> Integral Setup <==

  ==> DiskDFJK: Density-Fitted J/K Matrices <==

    J tasked:                  Yes
    K tasked:                  Yes
    wK tasked:                 Yes
    Omega:               3.000E-01
    OpenMP threads:             24
    Integrals threads:          24
    Memory [MiB]:           102651
    Algorithm:                Core
    Integral Cache:           NONE
    Schwarz Cutoff:          1E-12
    Fitting Condition:       1E-10

   => Auxiliary Basis Set <=

  Basis Set: (CC-PV(Q+D)Z AUX)
    Blend: CC-PVQZ-JKFIT
    Number of shells: 67
    Number of basis function: 259
    Number of Cartesian functions: 340
    Spherical Harmonics?: true
    Max angular momentum: 5

  Cached 100.0% of DFT collocation blocks in 0.337 [GiB].

  Minimum eigenvalue in the overlap matrix is 2.4240414969E-04.
  Using Symmetric Orthogonalization.

  SCF Guess: Superposition of Atomic Densities via on-the-fly atomic UHF.

  ==> Iterations <==

                           Total Energy        Delta E     RMS |[F,P]|

   @DF-RKS iter SAD:   -25.91964856337055   -2.59196e+01   0.00000e+00 
   @DF-RKS iter   1:   -26.59526732485022   -6.75619e-01   1.86986e-03 DIIS
   @DF-RKS iter   2:   -26.60640660459435   -1.11393e-02   5.64158e-04 DIIS
   @DF-RKS iter   3:   -26.60748724678271   -1.08064e-03   6.91613e-05 DIIS
   @DF-RKS iter   4:   -26.60752370087923   -3.64541e-05   1.12802e-05 DIIS
   @DF-RKS iter   5:   -26.60752510020329   -1.39932e-06   1.55216e-06 DIIS
   @DF-RKS iter   6:   -26.60752511966236   -1.94591e-08   1.64298e-07 DIIS
   @DF-RKS iter   7:   -26.60752511990315   -2.40789e-10   1.21341e-08 DIIS
   @DF-RKS iter   8:   -26.60752511990397   -8.20677e-13   8.96750e-10 DIIS
  Energy and wave function converged.


  ==> Post-Iterations <==

    Orbital Energies [Eh]
    ---------------------

    Doubly Occupied:                                                      

       1A1    -6.863120     2A1    -0.637196     1B1    -0.459755  
       3A1    -0.459742  

    Virtual:                                                              

       1B2     0.011016     4A1     0.157299     2B1     0.157385  
       5A1     0.158874     3B1     0.212468     6A1     0.212532  
       7A1     0.228522     2B2     0.230811     1A2     0.353746  
       3B2     0.353795     8A1     0.405244     4B1     0.405314  
       9A1     0.430329    10A1     0.523210     5B1     0.621922  
      11A1     0.622381     6B1     0.660589    12A1     0.750224  
       7B1     0.750246     4B2     0.801456     2A2     0.801662  
       5B2     0.810915    13A1     0.893336     6B2     0.919186  
      14A1     1.020898     8B1     1.021120    15A1     1.176951  
       9B1     1.177222     3A2     1.193456     7B2     1.193510  
      16A1     1.230311    17A1     1.284599    10B1     1.299687  
      18A1     1.299805     8B2     1.378106     4A2     1.433769  
       9B2     1.434247    11B1     1.499703    19A1     1.685196  
      20A1     1.722223    12B1     1.722248    13B1     1.813226  
      21A1     1.814381     5A2     2.069897    22A1     2.108393  
      23A1     2.365403    14B1     2.365404    10B2     2.392741  
      11B2     2.468248     6A2     2.468788    24A1     2.624534  
      15B1     2.625149    16B1     2.632454    25A1     2.632693  
      12B2     2.654036     7A2     2.655611    17B1     2.707013  
      13B2     2.716966    26A1     2.722927    27A1     2.899295  
       8A2     3.013296    14B2     3.013496    18B1     3.091857  
      19B1     3.092161    28A1     3.093186    29A1     3.475632  
      20B1     3.476892    15B2     3.563331    30A1     3.565172  
      16B2     3.629795     9A2     3.629909    31A1     3.737474  
      32A1     3.738701    21B1     3.739555    17B2     3.762706  
      10A2     3.762774    18B2     3.804288    11A2     4.048502  
      33A1     4.054558    22B1     4.054666    34A1     4.454749  
      23B1     4.495027    35A1     4.497639    24B1     4.524689  
      36A1     4.527006    37A1     4.661335    12A2     4.732526  
      19B2     4.735611    25B1     4.890326    20B2     4.941649  
      38A1     5.656051    26B1     5.656223    27B1     5.990244  
[...]

       Center              X                  Y                   Z               Mass       
    ------------   -----------------  -----------------  -----------------  -----------------
         B            0.000000000000    -0.000370145531    -0.000000667042    11.009305360000
         H            0.000000000000     0.001347794806     1.192938326067     1.007825032230
         H            1.033112962243     0.001347805300    -0.596465519710     1.007825032230
         H           -1.033112962243     0.001347805300    -0.596465519710     1.007825032230

  Running in cs symmetry.

  Rotational constants: A =      7.83582  B =      7.83582  C =      3.91792 [cm^-1]
  Rotational constants: A = 234911.98316  B = 234911.90576  C = 117456.35445 [MHz]
  Nuclear repulsion =    7.422201843222237

  Charge       = 0
  Multiplicity = 1
  Electrons    = 8
  Nalpha       = 4
  Nbeta        = 4

  ==> Algorithm <==

  SCF Algorithm Type is DF.
  DIIS enabled.
  MOM disabled.
  Fractional occupation disabled.
  Guess Type is SAD.
  Energy threshold   = 1.00e-10
  Density threshold  = 1.00e-10
  Integral threshold = 0.00e+00

  ==> Primary Basis <==

  Basis Set: CC-PV(Q+D)Z
    Blend: CC-PV(Q+D)Z
    Number of shells: 45
    Number of basis function: 145
    Number of Cartesian functions: 175
    Spherical Harmonics?: true
    Max angular momentum: 4

  ==> DFT Potential <==

   => Composite Functional: WB97X-V <= 

    wB97X-V Hyb-GGA Exchange-Correlation Functional

    N. Mardirossian and M. Head-Gordon, Phys. Chem. Chem. Phys. 16, 9904 (2014)

    Deriv               =              1
    GGA                 =           TRUE
    Meta                =          FALSE

    Exchange Hybrid     =           TRUE
    MP2 Hybrid          =          FALSE

   => Exchange-Correlation Functionals <=

    1.0000   wB97X-V range-separated functional

   => Exact (HF) Exchange <=

    0.8330            HF,LR [omega = 0.3000]
    0.1670               HF 

   => VV10 Non-Local Parameters <=

    VV10 B              =     6.0000E+00
    VV10 C              =     1.0000E-02

   => Molecular Quadrature <=

    Radial Scheme          =       TREUTLER
    Pruning Scheme         =           FLAT
    Nuclear Scheme         =       TREUTLER

    BS radius alpha        =              1
    Pruning alpha          =              1
    Radial Points          =             75
    Spherical Points       =            302
    Total Points           =          90296
    Total Blocks           =            752
    Max Points             =            256
    Max Functions          =            145

   => Loading Basis Set <=

    Name: (CC-PV(Q+D)Z AUX)
    Role: JKFIT
    Keyword: DF_BASIS_SCF
    atoms 1   entry B          line    79 file /work/zw18965/.conda/envs/p4env/share/psi4/basis/cc-pvqz-jkfit.gbs 
    atoms 2-4 entry H          line    51 file /work/zw18965/.conda/envs/p4env/share/psi4/basis/cc-pvqz-jkfit.gbs 

  ==> Pre-Iterations <==

   -------------------------------------------------------
    Irrep   Nso     Nmo     Nalpha   Nbeta   Ndocc  Nsocc
   -------------------------------------------------------
     A'        85      85       0       0       0       0
     A"        60      60       0       0       0       0
   -------------------------------------------------------
    Total     145     145       4       4       4       0
   -------------------------------------------------------

  ==> Integral Setup <==

  ==> DiskDFJK: Density-Fitted J/K Matrices <==

    J tasked:                  Yes
    K tasked:                  Yes
    wK tasked:                 Yes
    Omega:               3.000E-01
    OpenMP threads:             24
    Integrals threads:          24
    Memory [MiB]:           102651
    Algorithm:                Core
    Integral Cache:           NONE
    Schwarz Cutoff:          1E-12
    Fitting Condition:       1E-10

   => Auxiliary Basis Set <=

  Basis Set: (CC-PV(Q+D)Z AUX)
    Blend: CC-PVQZ-JKFIT
    Number of shells: 67
    Number of basis function: 259
    Number of Cartesian functions: 340
    Spherical Harmonics?: true
    Max angular momentum: 5

  Cached 100.0% of DFT collocation blocks in 0.337 [GiB].

  Minimum eigenvalue in the overlap matrix is 2.4360523195E-04.
  Using Symmetric Orthogonalization.

  SCF Guess: Superposition of Atomic Densities via on-the-fly atomic UHF.

  ==> Iterations <==

                           Total Energy        Delta E     RMS |[F,P]|

   @DF-RKS iter SAD:   -25.91881276697115   -2.59188e+01   0.00000e+00 
   @DF-RKS iter   1:   -26.59538601245724   -6.76573e-01   1.37596e-03 DIIS
   @DF-RKS iter   2:   -26.60642034781253   -1.10343e-02   4.15344e-04 DIIS
   @DF-RKS iter   3:   -26.60749278051015   -1.07243e-03   5.11970e-05 DIIS
   @DF-RKS iter   4:   -26.60752930902125   -3.65285e-05   8.34410e-06 DIIS
   @DF-RKS iter   5:   -26.60753070996714   -1.40095e-06   1.14669e-06 DIIS
   @DF-RKS iter   6:   -26.60753072934967   -1.93825e-08   1.21055e-07 DIIS
   @DF-RKS iter   7:   -26.60753072958840   -2.38735e-10   8.99748e-09 DIIS
   @DF-RKS iter   8:   -26.60753072958932   -9.20153e-13   7.01625e-10 DIIS
   @DF-RKS iter   9:   -26.60753072958929    3.19744e-14   9.25761e-11 DIIS
  Energy and wave function converged.


  ==> Post-Iterations <==

    Orbital Energies [Eh]
    ---------------------

    Doubly Occupied:                                                      

       1Ap    -6.863799     2Ap    -0.636887     1App   -0.459518  
       3Ap    -0.459518  

    Virtual:                                                              

       4Ap     0.010933     5Ap     0.157415     2App    0.157416  
       6Ap     0.158614     7Ap     0.212239     3App    0.212239  
       8Ap     0.228579     9Ap     0.230766    10Ap     0.353729  
       4App    0.353730    11Ap     0.405069     5App    0.405071  
      12Ap     0.429835    13Ap     0.522537    14Ap     0.621462  
       6App    0.621463     7App    0.660185    15Ap     0.750597  
       8App    0.750597    16Ap     0.801281     9App    0.801281  
      17Ap     0.810172    18Ap     0.894220    19Ap     0.919344  
      20Ap     1.020803    10App    1.020821    21Ap     1.175735  
      11App    1.175736    12App    1.193597    22Ap     1.193600  
      23Ap     1.229796    24Ap     1.284106    25Ap     1.299643  
      13App    1.299656    26Ap     1.377864    14App    1.433520  
      27Ap     1.433521    15App    1.499435    28Ap     1.684469  
      16App    1.722515    29Ap     1.722515    17App    1.812185  
      30Ap     1.812187    18App    2.069033    31Ap     2.107123  
      32Ap     2.364183    19App    2.364188    33Ap     2.391988  
      20App    2.467442    34Ap     2.467444    35Ap     2.624363  
      21App    2.624364    36Ap     2.631846    22App    2.631861  
      23App    2.653130    37Ap     2.653131    24App    2.704795  
      38Ap     2.716687    39Ap     2.720926    40Ap     2.899589  
      41Ap     3.012445    25App    3.012447    42Ap     3.089794  
      26App    3.089814    27App    3.092637    43Ap     3.474359  
      28App    3.474373    44Ap     3.560376    45Ap     3.564109  
      46Ap     3.629684    29App    3.629687    47Ap     3.736434  
      30App    3.736443    48Ap     3.737046    49Ap     3.762665  
      31App    3.762667    50Ap     3.804094    32App    4.045351  
      51Ap     4.053349    33App    4.053351    52Ap     4.453533  
      53Ap     4.496285    34App    4.496289    54Ap     4.523909  
      35App    4.523913    55Ap     4.658153    56Ap     4.730314  
      36App    4.730322    37App    4.883368    57Ap     4.935782  
      58Ap     5.651605    38App    5.651611    39App    5.989441  
      59Ap     6.011528    40App    6.011529    41App    6.231472  
      60Ap     6.231480    61Ap     6.295794    62Ap     6.701056  
      42App    6.701057    63Ap     6.846961    43App    6.846966  
      64Ap     6.964030    65Ap     7.232058    66Ap     7.282631  
      44App    7.282634    67Ap     7.301385    45App    7.301389  
      68Ap     7.322112    69Ap     7.486741    46App    7.486770  
      47App    7.728696    70Ap     7.793777    71Ap     7.846686  
      48App    7.846689    49App    7.911011    50App    8.029463  
      51App    8.212702    72Ap     8.212719    52App    8.347086  
      73Ap     8.347089    74Ap     8.541797    75Ap     8.554593  
      53App    8.554598    76Ap     8.642289    54App    8.796420  
      77Ap     8.856813    55App    8.856823    78Ap     8.916286  
      79Ap     9.043680    80Ap     9.096904    56App    9.096945  
      57App    9.297424    81Ap     9.297425    58App    9.474754  
      82Ap     9.747587    83Ap     9.853752    59App    9.853770  
      84Ap    10.921084    60App   10.921112    85Ap    18.099982  

    Final Occupation by Irrep:
             Ap   App 
    DOCC [     3,    1 ]

  @DF-RKS Final Energy:   -26.60753072958929

   => Energetics <=

    Nuclear Repulsion Energy =              7.4222018432222372
    One-Electron Energy =                 -49.0745289953722192
    Two-Electron Energy =                  18.3328027111363738
    DFT Exchange-Correlation Energy =      -3.3218579061682045
    Empirical Dispersion Energy =           0.0000000000000000
    VV10 Nonlocal Energy =                  0.0338516175925192
    Total Energy =                        -26.6075307295892927

Computation Completed


Properties will be evaluated at   0.000000,   0.000000,   0.000000 [a0]

Properties computed using the SCF density matrix

  Nuclear Dipole Moment: [e a0]
     X:     0.0000      Y:     0.0041      Z:     0.0000

  Electronic Dipole Moment: [e a0]
     X:     0.0000      Y:    -0.0056      Z:    -0.0000

  Dipole Moment: [e a0]
     X:     0.0000      Y:    -0.0014      Z:     0.0000     Total:     0.0014

  Dipole Moment: [D]
     X:     0.0000      Y:    -0.0037      Z:     0.0000     Total:     0.0037


*** tstop() called on bp1-compute00066.data.bp.acrc.priv at Tue Apr 27 16:59:15 2021
Module time:
	user time   =      87.36 seconds =       1.46 minutes
	system time =       2.29 seconds =       0.04 minutes
	total time  =          4 seconds =       0.07 minutes
Total time:
	user time   =    3188.76 seconds =      53.15 minutes
	system time =      98.79 seconds =       1.65 minutes
	total time  =        143 seconds =       2.38 minutes

         ----------------------------------------------------------
                                   FINDIF
                     R. A. King and Jonathon Misiewicz
         ---------------------------------------------------------

  Computing second-derivative from energies using projected, 
  symmetry-adapted, cartesian coordinates.

  18 energies passed in, including the reference geometry.
    Using 3-point formula.
    Energy without displacement:  -26.6075313607
    Check energies below for precision!
    0: -1        :       -26.6075291808
    0: 1         :       -26.6075291767
    1: -1        :       -26.6075287834
    1: 1         :       -26.6075288809
    2: -1        :       -26.6075287821
    2: 1         :       -26.6075288821
    0: 1, 1: 1   :       -26.6075286287
    0: -1, 1: -1 :       -26.6075285412
    0: 1, 2: 1   :       -26.6075247783
    0: -1, 2: -1 :       -26.6075246518
    1: 1, 2: 1   :       -26.6075252418
    1: -1, 2: -1 :       -26.6075250278
    3: -1        :       -26.6075291788
    4: -1        :       -26.6075295260
    3: 1, 4: 1   :       -26.6075246072
    3: -1, 4: -1 :       -26.6075246072
    5: -1        :       -26.6075307296

-------------------------------------------------------------


  ==> Harmonic Vibrational Analysis <==

  non-mass-weighted Hessian:       Symmetric? True   Hermitian? True   Lin Dep Dim?  6 (0)
  projection of translations (True) and rotations (True) removed 6 degrees of freedom (6)
  total projector:                 Symmetric? True   Hermitian? True   Lin Dep Dim?  6 (6)
  mass-weighted Hessian:           Symmetric? True   Hermitian? True   Lin Dep Dim?  6 (0)
  pre-proj  low-frequency mode:    0.0000i [cm^-1]
  pre-proj  low-frequency mode:    0.0000i [cm^-1]
  pre-proj  low-frequency mode:    0.0000i [cm^-1]
  pre-proj  low-frequency mode:    0.0000  [cm^-1]
  pre-proj  low-frequency mode:    0.0000  [cm^-1]
  pre-proj  low-frequency mode:    0.0000  [cm^-1]
  pre-proj  all modes:['0.0000i' '0.0000i' '0.0000i' '0.0000' '0.0000' '0.0000' '1153.0123'
 '1155.0352' '1207.4777' '2565.2863' '2676.0972' '2695.2694']
  projected mass-weighted Hessian: Symmetric? True   Hermitian? True   Lin Dep Dim?  6 (6)
  post-proj low-frequency mode:    0.0000i [cm^-1] (TR)
  post-proj low-frequency mode:    0.0000i [cm^-1] (TR)
  post-proj low-frequency mode:    0.0000i [cm^-1] (TR)
  post-proj low-frequency mode:    0.0000i [cm^-1] (TR)
  post-proj low-frequency mode:    0.0000  [cm^-1] (TR)
  post-proj low-frequency mode:    0.0000  [cm^-1] (TR)
  post-proj  all modes:['0.0000i' '0.0000i' '0.0000i' '0.0000i' '0.0000' '0.0000' '1153.0123'
 '1155.0352' '1207.4777' '2565.2863' '2676.0972' '2695.2694']

  Vibration                       7                   8                   9           
  Freq [cm^-1]                1153.0123           1155.0352           1207.4777       
  Irrep                           B1                  B2                  A1          
  Reduced mass [u]              1.1021              1.2531              1.1068        
  Force const [mDyne/A]         0.8633              0.9850              0.9507        
  Turning point v=0 [a0]        0.3078              0.2884              0.3002        
  RMS dev v=0 [a0 u^1/2]        0.2285              0.2283              0.2233        
  Char temp [K]               1658.9279           1661.8385           1737.2915       
  ----------------------------------------------------------------------------------
      1   B               -0.10 -0.00  0.00    0.00 -0.16  0.00    0.00 -0.00 -0.10   
      2   H                0.81  0.00  0.00   -0.00  0.57  0.00   -0.00  0.00 -0.08   
      3   H                0.13  0.00  0.39   -0.00  0.57 -0.00    0.39  0.00  0.59   
      4   H                0.13  0.00 -0.39   -0.00  0.57  0.00   -0.39  0.00  0.59   

  Vibration                       10                  11                  12          
  Freq [cm^-1]                2565.2863           2676.0972           2695.2694       
  Irrep                           A1                  B1                  A1          
  Reduced mass [u]              1.0078              1.1326              1.1277        
  Force const [mDyne/A]         3.9076              4.7790              4.8269        
  Turning point v=0 [a0]        0.2158              0.1993              0.1990        
  RMS dev v=0 [a0 u^1/2]        0.1532              0.1500              0.1495        
  Char temp [K]               3690.8759           3850.3081           3877.8926       
  ----------------------------------------------------------------------------------
      1   B               -0.00 -0.00 -0.00   -0.11 -0.00  0.00   -0.00  0.00 -0.11   
      2   H               -0.00  0.00  0.58    0.00  0.00 -0.00   -0.00  0.00  0.81   
      3   H                0.50  0.00 -0.29    0.61  0.00 -0.35   -0.36  0.00  0.19   
      4   H               -0.50 -0.00 -0.29    0.61  0.00  0.35    0.36  0.00  0.19   

  ==> Thermochemistry Components <==

  Entropy, S
    Electronic S            0.000 [cal/(mol K)]        0.000 [J/(mol K)]       0.00000000 [mEh/K] (multiplicity = 1)
    Translational S        33.864 [cal/(mol K)]      141.688 [J/(mol K)]       0.05396630 [mEh/K] (mol. weight = 14.0328 [u], P = 101325.00 [Pa])
    Rotational S           13.192 [cal/(mol K)]       55.195 [J/(mol K)]       0.02102266 [mEh/K] (symmetry no. = 2)
    Vibrational S           0.140 [cal/(mol K)]        0.587 [J/(mol K)]       0.00022354 [mEh/K]
  Total S                  47.197 [cal/(mol K)]      197.470 [J/(mol K)]       0.07521250 [mEh/K]
  Correction S              0.000 [cal/(mol K)]        0.000 [J/(mol K)]       0.00000000 [mEh/K]

  Constant volume heat capacity, Cv
    Electronic Cv           0.000 [cal/(mol K)]        0.000 [J/(mol K)]       0.00000000 [mEh/K]
    Translational Cv        2.981 [cal/(mol K)]       12.472 [J/(mol K)]       0.00475022 [mEh/K]
    Rotational Cv           2.981 [cal/(mol K)]       12.472 [J/(mol K)]       0.00475022 [mEh/K]
    Vibrational Cv          0.677 [cal/(mol K)]        2.831 [J/(mol K)]       0.00107832 [mEh/K]
  Total Cv                  6.638 [cal/(mol K)]       27.775 [J/(mol K)]       0.01057875 [mEh/K]
  Correction Cv             0.000 [cal/(mol K)]        0.000 [J/(mol K)]       0.00000000 [mEh/K]

  Constant pressure heat capacity, Cp
    Electronic Cp           0.000 [cal/(mol K)]        0.000 [J/(mol K)]       0.00000000 [mEh/K]
    Translational Cp        4.968 [cal/(mol K)]       20.786 [J/(mol K)]       0.00791703 [mEh/K]
    Rotational Cp           2.981 [cal/(mol K)]       12.472 [J/(mol K)]       0.00475022 [mEh/K]
    Vibrational Cp          0.677 [cal/(mol K)]        2.831 [J/(mol K)]       0.00107832 [mEh/K]
  Total Cp                  8.625 [cal/(mol K)]       36.089 [J/(mol K)]       0.01374556 [mEh/K]
  Correction Cp             0.000 [cal/(mol K)]        0.000 [J/(mol K)]       0.00000000 [mEh/K]

  ==> Thermochemistry Energy Analysis <==

  Raw electronic energy, E0
  Total E0, Electronic energy at well bottom at 0 [K]                  -26.60753136 [Eh]

  Zero-point energy, ZPE_vib = Sum_i nu_i / 2
    Electronic ZPE          0.000 [kcal/mol]        0.000 [kJ/mol]       0.00000000 [Eh]
    Translational ZPE       0.000 [kcal/mol]        0.000 [kJ/mol]       0.00000000 [Eh]
    Rotational ZPE          0.000 [kcal/mol]        0.000 [kJ/mol]       0.00000000 [Eh]
    Vibrational ZPE        16.372 [kcal/mol]       68.499 [kJ/mol]       0.02608998 [Eh]        5726.089 [cm^-1]
  Correction ZPE           16.372 [kcal/mol]       68.499 [kJ/mol]       0.02608998 [Eh]        5726.089 [cm^-1]
  Total ZPE, Electronic energy at 0 [K]                                -26.58144138 [Eh]

  Thermal Energy, E (includes ZPE)
    Electronic E            0.000 [kcal/mol]        0.000 [kJ/mol]       0.00000000 [Eh]
    Translational E         0.889 [kcal/mol]        3.718 [kJ/mol]       0.00141628 [Eh]
    Rotational E            0.889 [kcal/mol]        3.718 [kJ/mol]       0.00141628 [Eh]
    Vibrational E          16.407 [kcal/mol]       68.648 [kJ/mol]       0.02614662 [Eh]
  Correction E             18.185 [kcal/mol]       76.085 [kJ/mol]       0.02897917 [Eh]
  Total E, Electronic energy at  298.15 [K]                            -26.57855219 [Eh]

  Enthalpy, H_trans = E_trans + k_B * T
    Electronic H            0.000 [kcal/mol]        0.000 [kJ/mol]       0.00000000 [Eh]
    Translational H         1.481 [kcal/mol]        6.197 [kJ/mol]       0.00236046 [Eh]
    Rotational H            0.889 [kcal/mol]        3.718 [kJ/mol]       0.00141628 [Eh]
    Vibrational H          16.407 [kcal/mol]       68.648 [kJ/mol]       0.02614662 [Eh]
  Correction H             18.777 [kcal/mol]       78.564 [kJ/mol]       0.02992336 [Eh]
  Total H, Enthalpy at  298.15 [K]                                     -26.57760800 [Eh]

  Gibbs free energy, G = H - T * S
    Electronic G            0.000 [kcal/mol]        0.000 [kJ/mol]       0.00000000 [Eh]
    Translational G        -8.615 [kcal/mol]      -36.047 [kJ/mol]      -0.01372959 [Eh]
    Rotational G           -3.044 [kcal/mol]      -12.738 [kJ/mol]      -0.00485163 [Eh]
    Vibrational G          16.365 [kcal/mol]       68.473 [kJ/mol]       0.02607997 [Eh]
  Correction G              4.706 [kcal/mol]       19.688 [kJ/mol]       0.00749875 [Eh]
  Total G, Free enthalpy at  298.15 [K]                                -26.60003261 [Eh]

    Psi4 stopped on: Tuesday, 27 April 2021 04:59PM
    Psi4 wall time for execution: 0:02:23.01

*** Psi4 exiting successfully. Buy a developer a beer!
