
    -----------------------------------------------------------------------
          Psi4: An Open-Source Ab Initio Electronic Structure Package
                               Psi4 1.3.2 release

                         Git: Rev {HEAD} ecbda83 


    R. M. Parrish, L. A. Burns, D. G. A. Smith, A. C. Simmonett,
    A. E. DePrince III, E. G. Hohenstein, U. Bozkaya, A. Yu. Sokolov,
    R. Di Remigio, R. M. Richard, J. F. Gonthier, A. M. James,
    H. R. McAlexander, A. Kumar, M. Saitow, X. Wang, B. P. Pritchard,
    P. Verma, H. F. Schaefer III, K. Patkowski, R. A. King, E. F. Valeev,
    F. A. Evangelista, J. M. Turney, T. D. Crawford, and C. D. Sherrill,
    J. Chem. Theory Comput. 13(7) pp 3185--3197 (2017).
    (doi: 10.1021/acs.jctc.7b00174)


                         Additional Contributions by
    P. Kraus, H. Kruse, M. H. Lechner, M. C. Schieber, R. A. Shaw,
    A. Alenaizan, R. Galvelis, Z. L. Glick, S. Lehtola, and J. P. Misiewicz

    -----------------------------------------------------------------------


    Psi4 started on: Tuesday, 27 April 2021 04:56PM

    Process ID: 65091
    Host:       bp1-compute00065.data.bp.acrc.priv
    PSIDATADIR: /work/zw18965/.conda/envs/p4env/share/psi4
    Memory:     500.0 MiB
    Threads:    24
    
  ==> Input File <==

--------------------------------------------------------------------------
memory 144 GB

molecule {
0 1
C 0.0000000000 0.0000000000 0.0000000000
C 0.0000000000 0.0000000000 1.2065000000
H 0.0000000000 -0.0000000000 2.2699000000
H -0.0000000000 -0.0000000000 -1.0634000000
}

set dynamic_level 1
set basis cc-pV(Q+d)Z
 
optimize("wB97X-V")
frequencies("wB97X-V")
--------------------------------------------------------------------------

  Memory set to 134.110 GiB by Python driver.
gradient() will perform gradient computation by finite difference of analytic energies.

         ----------------------------------------------------------
                                   FINDIF
                     R. A. King and Jonathon Misiewicz
         ---------------------------------------------------------

  Using finite-differences of energies to determine gradients.
    Generating geometries for use with 3-point formula.
    Displacement size will be 5.00e-03.
    Number of atoms is 4.
    Number of symmetric SALCs is 2.
    Translations projected? 1. Rotations projected? 1.
    Number of geometries (including reference) is 5.

  //>>>>>>>>>>>>>>>>>>>>>>>>>>>>>>>>>>>//
  //    Loading displacement 1 of 5    //
  //<<<<<<<<<<<<<<<<<<<<<<<<<<<<<<<<<<<//

*** tstart() called on bp1-compute00065.data.bp.acrc.priv
*** at Tue Apr 27 16:56:51 2021

   => Loading Basis Set <=

    Name: CC-PV(Q+D)Z
    Role: ORBITAL
    Keyword: BASIS
    atoms 1-2 entry C          line   249 file /work/zw18965/.conda/envs/p4env/share/psi4/basis/cc-pv_qpd_z.gbs 
    atoms 3-4 entry H          line    32 file /work/zw18965/.conda/envs/p4env/share/psi4/basis/cc-pv_qpd_z.gbs 


         ---------------------------------------------------------
                                   SCF
               by Justin Turney, Rob Parrish, Andy Simmonett
                          and Daniel G. A. Smith
                              RKS Reference
                       24 Threads, 137329 MiB Core
         ---------------------------------------------------------

  ==> Geometry <==

    Molecular point group: d2h
    Full point group: D_inf_h

    Geometry (in Angstrom), charge = 0, multiplicity = 1:

       Center              X                  Y                   Z               Mass       
    ------------   -----------------  -----------------  -----------------  -----------------
         C            0.000000000000     0.000000000000    -0.603250000000    12.000000000000
         C            0.000000000000     0.000000000000     0.603250000000    12.000000000000
         H            0.000000000000     0.000000000000     1.666650000000     1.007825032230
         H            0.000000000000     0.000000000000    -1.666650000000     1.007825032230

  Running in d2h symmetry.

  Rotational constants: A = ************  B =      1.17616  C =      1.17616 [cm^-1]
  Rotational constants: A = ************  B =  35260.38772  C =  35260.38772 [MHz]
  Nuclear repulsion =   24.717610292828144

  Charge       = 0
  Multiplicity = 1
  Electrons    = 14
  Nalpha       = 7
  Nbeta        = 7

  ==> Algorithm <==

  SCF Algorithm Type is DF.
  DIIS enabled.
  MOM disabled.
  Fractional occupation disabled.
  Guess Type is SAD.
  Energy threshold   = 1.00e-08
  Density threshold  = 1.00e-08
  Integral threshold = 0.00e+00

  ==> Primary Basis <==

  Basis Set: CC-PV(Q+D)Z
    Blend: CC-PV(Q+D)Z
    Number of shells: 50
    Number of basis function: 170
    Number of Cartesian functions: 210
    Spherical Harmonics?: true
    Max angular momentum: 4

  ==> DFT Potential <==

   => Composite Functional: WB97X-V <= 

    wB97X-V Hyb-GGA Exchange-Correlation Functional

    N. Mardirossian and M. Head-Gordon, Phys. Chem. Chem. Phys. 16, 9904 (2014)

    Deriv               =              1
    GGA                 =           TRUE
    Meta                =          FALSE

    Exchange Hybrid     =           TRUE
    MP2 Hybrid          =          FALSE

   => Exchange-Correlation Functionals <=

    1.0000   wB97X-V range-separated functional

   => Exact (HF) Exchange <=

    0.8330            HF,LR [omega = 0.3000]
    0.1670               HF 

   => VV10 Non-Local Parameters <=

    VV10 B              =     6.0000E+00
    VV10 C              =     1.0000E-02

   => Molecular Quadrature <=

    Radial Scheme          =       TREUTLER
    Pruning Scheme         =           FLAT
    Nuclear Scheme         =       TREUTLER

    BS radius alpha        =              1
    Pruning alpha          =              1
    Radial Points          =             75
    Spherical Points       =            302
    Total Points           =          88848
    Total Blocks           =            716
    Max Points             =            256
    Max Functions          =            169

   => Loading Basis Set <=

    Name: (CC-PV(Q+D)Z AUX)
    Role: JKFIT
    Keyword: DF_BASIS_SCF
    atoms 1-2 entry C          line   137 file /work/zw18965/.conda/envs/p4env/share/psi4/basis/cc-pvqz-jkfit.gbs 
    atoms 3-4 entry H          line    51 file /work/zw18965/.conda/envs/p4env/share/psi4/basis/cc-pvqz-jkfit.gbs 

  ==> Pre-Iterations <==

   -------------------------------------------------------
    Irrep   Nso     Nmo     Nalpha   Nbeta   Ndocc  Nsocc
   -------------------------------------------------------
     Ag        35      35       0       0       0       0
     B1g       10      10       0       0       0       0
     B2g       20      20       0       0       0       0
     B3g       20      20       0       0       0       0
     Au        10      10       0       0       0       0
     B1u       35      35       0       0       0       0
     B2u       20      20       0       0       0       0
     B3u       20      20       0       0       0       0
   -------------------------------------------------------
    Total     170     170       7       7       7       0
   -------------------------------------------------------

  ==> Integral Setup <==

  ==> DiskDFJK: Density-Fitted J/K Matrices <==

    J tasked:                  Yes
    K tasked:                  Yes
    wK tasked:                 Yes
    Omega:               3.000E-01
    OpenMP threads:             24
    Integrals threads:          24
    Memory [MiB]:           102620
    Algorithm:                Core
    Integral Cache:           NONE
    Schwarz Cutoff:          1E-12
    Fitting Condition:       1E-10

   => Auxiliary Basis Set <=

  Basis Set: (CC-PV(Q+D)Z AUX)
    Blend: CC-PVQZ-JKFIT
    Number of shells: 82
    Number of basis function: 314
    Number of Cartesian functions: 416
    Spherical Harmonics?: true
    Max angular momentum: 5

  Cached 100.0% of DFT collocation blocks in 0.367 [GiB].

  Minimum eigenvalue in the overlap matrix is 1.5875051664E-05.
  Using Symmetric Orthogonalization.

  SCF Guess: Superposition of Atomic Densities via on-the-fly atomic UHF.

  ==> Iterations <==

                           Total Energy        Delta E     RMS |[F,P]|

   @DF-RKS iter SAD:   -76.47689432690618   -7.64769e+01   0.00000e+00 
   @DF-RKS iter   1:   -77.24633920365713   -7.69445e-01   6.85940e-03 DIIS
   @DF-RKS iter   2:   -77.30677071843306   -6.04315e-02   3.82604e-03 DIIS
   @DF-RKS iter   3:   -77.33537044719095   -2.85997e-02   1.26557e-04 DIIS
   @DF-RKS iter   4:   -77.33542315194883   -5.27048e-05   1.46208e-05 DIIS
   @DF-RKS iter   5:   -77.33542429280628   -1.14086e-06   1.87737e-06 DIIS
   @DF-RKS iter   6:   -77.33542431482934   -2.20231e-08   4.22013e-07 DIIS
   @DF-RKS iter   7:   -77.33542431580092   -9.71582e-10   4.51235e-08 DIIS
   @DF-RKS iter   8:   -77.33542431580977   -8.85336e-12   5.97980e-09 DIIS
  Energy and wave function converged.


  ==> Post-Iterations <==

    Orbital Energies [Eh]
    ---------------------

    Doubly Occupied:                                                      

       1Ag   -10.279573     1B1u  -10.277133     2Ag    -0.884136  
       2B1u   -0.687574     3Ag    -0.609040     1B3u   -0.398504  
       1B2u   -0.398504  

    Virtual:                                                              

       1B3g    0.111653     1B2g    0.111653     3B1u    0.118877  
       4Ag     0.129733     5Ag     0.206107     2B3u    0.293152  
       2B2u    0.293152     4B1u    0.315367     5B1u    0.341317  
       2B2g    0.376921     2B3g    0.376921     6Ag     0.435251  
       1B1g    0.522892     7Ag     0.522893     3B3u    0.582396  
       3B2u    0.582396     8Ag     0.602497     6B1u    0.687389  
       1Au     0.757553     7B1u    0.757554     9Ag     0.764691  
       3B2g    0.782192     3B3g    0.782192     8B1u    0.818225  
       4B2g    1.060520     4B3g    1.060520     9B1u    1.077691  
      10Ag     1.094694     4B3u    1.102041     4B2u    1.102041  
      10B1u    1.343935     5B2u    1.379209     5B3u    1.379209  
      11B1u    1.517686    11Ag     1.528129     6B3u    1.677501  
       6B2u    1.677501    12Ag     1.706860     2B1g    1.706861  
       5B2g    1.763574     5B3g    1.763574    13Ag     1.782796  
       7B2u    1.805187     7B3u    1.805187     3B1g    1.856538  
      14Ag     1.856540     6B2g    1.948799     6B3g    1.948799  
       2Au     1.997414    12B1u    1.997419     7B3g    2.045720  
       7B2g    2.045720    15Ag     2.078619    13B1u    2.163935  
       3Au     2.215277    14B1u    2.215279     8B3u    2.260358  
       8B2u    2.260358    15B1u    2.513043    16Ag     2.520597  
       8B2g    2.576968     8B3g    2.576968     4B1g    2.613555  
      17Ag     2.613562    16B1u    2.633355     9B3u    2.912203  
       9B2u    2.912203     4Au     3.163255    17B1u    3.163258  
      18Ag     3.190058    18B1u    3.475743     9B3g    3.506718  
       9B2g    3.506718    19Ag     3.740167    10B2g    3.772923  
      10B3g    3.772923    19B1u    4.101588    10B3u    4.271252  
      10B2u    4.271252    20B1u    4.303484    20Ag     4.480571  
      11B2u    4.530238    11B3u    4.530238     5B1g    4.756771  
      21Ag     4.756772     5Au     5.129892    21B1u    5.129893  
       6B1g    5.204484    22Ag     5.204486    12B2u    5.226047  
      12B3u    5.226047    23Ag     5.278699    11B2g    5.422768  
      11B3g    5.422768    13B2u    5.472898    13B3u    5.472898  
       6Au     5.648174    22B1u    5.648178     7B1g    5.665307  
      24Ag     5.665307    14B3u    5.727530    14B2u    5.727530  
      12B3g    5.796659    12B2g    5.796659    25Ag     5.882966  
      15B3u    5.923550    15B2u    5.923550    23B1u    6.011706  
      13B3g    6.016730    13B2g    6.016730     8B1g    6.091257  
      26Ag     6.091267    14B2g    6.132751    14B3g    6.132751  
      16B3u    6.174906    16B2u    6.174906     7Au     6.318232  
      24B1u    6.318240    15B2g    6.561882    15B3g    6.561882  
      27Ag     6.885280    25B1u    7.049178    26B1u    7.049632  
       8Au     7.049632    16B3g    7.056778    16B2g    7.056778  
      27B1u    7.308287    28Ag     7.555467    17B2g    7.700068  
      17B3g    7.700068    17B3u    7.709480    17B2u    7.709480  
       9B1g    7.800374    29Ag     7.800389    18B3u    7.887035  
      18B2u    7.887035     9Au     8.002806    28B1u    8.002832  
      30Ag     8.121924    10B1g    8.178959    31Ag     8.178966  
      29B1u    8.216557    30B1u    8.551013    18B2g    8.584108  
      18B3g    8.584108    10Au     9.068144    31B1u    9.068144  
      19B3u    9.170867    19B2u    9.170867    32B1u    9.187048  
      32Ag     9.220242    19B2g    9.914340    19B3g    9.914340  
      33B1u   10.453478    20B3g   11.405492    20B2g   11.405492  
      33Ag    11.434993    20B3u   11.490327    20B2u   11.490327  
      34Ag    12.116280    34B1u   13.795751    35Ag    23.295045  
      35B1u   26.451711  

    Final Occupation by Irrep:
             Ag   B1g   B2g   B3g    Au   B1u   B2u   B3u 
    DOCC [     3,    0,    0,    0,    0,    2,    1,    1 ]

  @DF-RKS Final Energy:   -77.33542431580977

   => Energetics <=

    Nuclear Repulsion Energy =             24.7176102928281445
    One-Electron Energy =                -151.8026951421817046
    Two-Electron Energy =                  57.5786558158053694
    DFT Exchange-Correlation Energy =      -7.8867230688980907
    Empirical Dispersion Energy =           0.0000000000000000
    VV10 Nonlocal Energy =                  0.0577277866365052
    Total Energy =                        -77.3354243158097745

Computation Completed


Properties will be evaluated at   0.000000,   0.000000,   0.000000 [a0]

Properties computed using the SCF density matrix

  Nuclear Dipole Moment: [e a0]
     X:     0.0000      Y:     0.0000      Z:    -0.0000

  Electronic Dipole Moment: [e a0]
     X:     0.0000      Y:     0.0000      Z:     0.0000

  Dipole Moment: [e a0]
     X:     0.0000      Y:     0.0000      Z:    -0.0000     Total:     0.0000

  Dipole Moment: [D]
     X:     0.0000      Y:     0.0000      Z:    -0.0000     Total:     0.0000


*** tstop() called on bp1-compute00065.data.bp.acrc.priv at Tue Apr 27 16:56:56 2021
Module time:
	user time   =      90.27 seconds =       1.50 minutes
	system time =       5.76 seconds =       0.10 minutes
	total time  =          5 seconds =       0.08 minutes
Total time:
	user time   =      90.27 seconds =       1.50 minutes
	system time =       5.76 seconds =       0.10 minutes
	total time  =          5 seconds =       0.08 minutes

  //>>>>>>>>>>>>>>>>>>>>>>>>>>>>>>>>>>>//
  //    Loading displacement 2 of 5    //
  //<<<<<<<<<<<<<<<<<<<<<<<<<<<<<<<<<<<//

*** tstart() called on bp1-compute00065.data.bp.acrc.priv
*** at Tue Apr 27 16:56:56 2021

   => Loading Basis Set <=

    Name: CC-PV(Q+D)Z
    Role: ORBITAL
    Keyword: BASIS
    atoms 1-2 entry C          line   249 file /work/zw18965/.conda/envs/p4env/share/psi4/basis/cc-pv_qpd_z.gbs 
    atoms 3-4 entry H          line    32 file /work/zw18965/.conda/envs/p4env/share/psi4/basis/cc-pv_qpd_z.gbs 


         ---------------------------------------------------------
                                   SCF
               by Justin Turney, Rob Parrish, Andy Simmonett
                          and Daniel G. A. Smith
                              RKS Reference
                       24 Threads, 137329 MiB Core
         ---------------------------------------------------------

  ==> Geometry <==

    Molecular point group: d2h
    Full point group: D_inf_h

    Geometry (in Angstrom), charge = 0, multiplicity = 1:

       Center              X                  Y                   Z               Mass       
    ------------   -----------------  -----------------  -----------------  -----------------
         C            0.000000000000     0.000000000000    -0.603790089229    12.000000000000
         C            0.000000000000     0.000000000000     0.603790089229    12.000000000000
         H            0.000000000000     0.000000000000     1.666650000000     1.007825032230
         H            0.000000000000     0.000000000000    -1.666650000000     1.007825032230

  Running in d2h symmetry.

  Rotational constants: A = ************  B =      1.17488  C =      1.17488 [cm^-1]
  Rotational constants: A = ************  B =  35221.93903  C =  35221.93903 [MHz]
  Nuclear repulsion =   24.705855296097269

  Charge       = 0
  Multiplicity = 1
  Electrons    = 14
  Nalpha       = 7
  Nbeta        = 7

  ==> Algorithm <==

  SCF Algorithm Type is DF.
  DIIS enabled.
  MOM disabled.
  Fractional occupation disabled.
  Guess Type is SAD.
  Energy threshold   = 1.00e-08
  Density threshold  = 1.00e-08
  Integral threshold = 0.00e+00

  ==> Primary Basis <==

  Basis Set: CC-PV(Q+D)Z
    Blend: CC-PV(Q+D)Z
    Number of shells: 50
    Number of basis function: 170
    Number of Cartesian functions: 210
    Spherical Harmonics?: true
    Max angular momentum: 4

  ==> DFT Potential <==

   => Composite Functional: WB97X-V <= 

    wB97X-V Hyb-GGA Exchange-Correlation Functional

    N. Mardirossian and M. Head-Gordon, Phys. Chem. Chem. Phys. 16, 9904 (2014)

    Deriv               =              1
    GGA                 =           TRUE
    Meta                =          FALSE

    Exchange Hybrid     =           TRUE
    MP2 Hybrid          =          FALSE

   => Exchange-Correlation Functionals <=

    1.0000   wB97X-V range-separated functional

   => Exact (HF) Exchange <=

    0.8330            HF,LR [omega = 0.3000]
    0.1670               HF 

   => VV10 Non-Local Parameters <=

    VV10 B              =     6.0000E+00
    VV10 C              =     1.0000E-02

   => Molecular Quadrature <=

    Radial Scheme          =       TREUTLER
    Pruning Scheme         =           FLAT
    Nuclear Scheme         =       TREUTLER

    BS radius alpha        =              1
    Pruning alpha          =              1
    Radial Points          =             75
    Spherical Points       =            302
    Total Points           =          88848
    Total Blocks           =            716
    Max Points             =            256
    Max Functions          =            169

   => Loading Basis Set <=

    Name: (CC-PV(Q+D)Z AUX)
    Role: JKFIT
    Keyword: DF_BASIS_SCF
    atoms 1-2 entry C          line   137 file /work/zw18965/.conda/envs/p4env/share/psi4/basis/cc-pvqz-jkfit.gbs 
    atoms 3-4 entry H          line    51 file /work/zw18965/.conda/envs/p4env/share/psi4/basis/cc-pvqz-jkfit.gbs 

  ==> Pre-Iterations <==

   -------------------------------------------------------
    Irrep   Nso     Nmo     Nalpha   Nbeta   Ndocc  Nsocc
   -------------------------------------------------------
     Ag        35      35       0       0       0       0
     B1g       10      10       0       0       0       0
     B2g       20      20       0       0       0       0
     B3g       20      20       0       0       0       0
     Au        10      10       0       0       0       0
     B1u       35      35       0       0       0       0
     B2u       20      20       0       0       0       0
     B3u       20      20       0       0       0       0
   -------------------------------------------------------
    Total     170     170       7       7       7       0
   -------------------------------------------------------

  ==> Integral Setup <==

  ==> DiskDFJK: Density-Fitted J/K Matrices <==

    J tasked:                  Yes
    K tasked:                  Yes
    wK tasked:                 Yes
    Omega:               3.000E-01
    OpenMP threads:             24
    Integrals threads:          24
    Memory [MiB]:           102620
    Algorithm:                Core
    Integral Cache:           NONE
    Schwarz Cutoff:          1E-12
    Fitting Condition:       1E-10

   => Auxiliary Basis Set <=

  Basis Set: (CC-PV(Q+D)Z AUX)
    Blend: CC-PVQZ-JKFIT
    Number of shells: 82
    Number of basis function: 314
    Number of Cartesian functions: 416
    Spherical Harmonics?: true
    Max angular momentum: 5

  Cached 100.0% of DFT collocation blocks in 0.367 [GiB].

  Minimum eigenvalue in the overlap matrix is 1.5948560822E-05.
  Using Symmetric Orthogonalization.

  SCF Guess: Superposition of Atomic Densities via on-the-fly atomic UHF.

  ==> Iterations <==

                           Total Energy        Delta E     RMS |[F,P]|

   @DF-RKS iter SAD:   -76.47604379149639   -7.64760e+01   0.00000e+00 
   @DF-RKS iter   1:   -77.24666049633184   -7.70617e-01   6.84262e-03 DIIS
   @DF-RKS iter   2:   -77.30689713458771   -6.02366e-02   3.81369e-03 DIIS
   @DF-RKS iter   3:   -77.33531585301613   -2.84187e-02   1.26154e-04 DIIS
   @DF-RKS iter   4:   -77.33536846233714   -5.26093e-05   1.46316e-05 DIIS
   @DF-RKS iter   5:   -77.33536960835357   -1.14602e-06   1.87450e-06 DIIS
   @DF-RKS iter   6:   -77.33536963042575   -2.20722e-08   4.19610e-07 DIIS
   @DF-RKS iter   7:   -77.33536963137901   -9.53264e-10   4.43661e-08 DIIS
   @DF-RKS iter   8:   -77.33536963138741   -8.39862e-12   5.94159e-09 DIIS
  Energy and wave function converged.


  ==> Post-Iterations <==

    Orbital Energies [Eh]
    ---------------------

    Doubly Occupied:                                                      

       1Ag   -10.279845     1B1u  -10.277426     2Ag    -0.883976  
       2B1u   -0.687883     3Ag    -0.609163     1B2u   -0.398340  
       1B3u   -0.398340  

    Virtual:                                                              

       1B3g    0.111370     1B2g    0.111370     3B1u    0.118858  
       4Ag     0.129721     5Ag     0.206166     2B2u    0.293202  
       2B3u    0.293202     4B1u    0.315153     5B1u    0.341469  
       2B2g    0.376824     2B3g    0.376824     6Ag     0.435369  
       1B1g    0.522844     7Ag     0.522844     3B3u    0.582330  
       3B2u    0.582330     8Ag     0.602539     6B1u    0.687287  
       1Au     0.757422     7B1u    0.757423     9Ag     0.764723  
       3B3g    0.782115     3B2g    0.782115     8B1u    0.817634  
       4B3g    1.060787     4B2g    1.060787     9B1u    1.077555  
      10Ag     1.094921     4B3u    1.101754     4B2u    1.101754  
      10B1u    1.342545     5B3u    1.379428     5B2u    1.379428  
      11B1u    1.518120    11Ag     1.527999     6B3u    1.677505  
       6B2u    1.677505    12Ag     1.706706     2B1g    1.706707  
       5B3g    1.763423     5B2g    1.763423    13Ag     1.783061  
       7B3u    1.804992     7B2u    1.804992     3B1g    1.856520  
      14Ag     1.856522     6B3g    1.948099     6B2g    1.948099  
       2Au     1.997486    12B1u    1.997491     7B2g    2.045343  
       7B3g    2.045343    15Ag     2.078421    13B1u    2.163783  
       3Au     2.215111    14B1u    2.215113     8B3u    2.259769  
       8B2u    2.259769    15B1u    2.511590    16Ag     2.520974  
       8B3g    2.576932     8B2g    2.576932     4B1g    2.613440  
      17Ag     2.613446    16B1u    2.632968     9B3u    2.912061  
       9B2u    2.912061     4Au     3.162861    17B1u    3.162863  
      18Ag     3.189601    18B1u    3.476346     9B3g    3.506672  
       9B2g    3.506672    19Ag     3.740860    10B3g    3.773332  
      10B2g    3.773332    19B1u    4.100396    10B3u    4.271239  
      10B2u    4.271239    20B1u    4.302683    20Ag     4.480394  
      11B3u    4.529733    11B2u    4.529733     5B1g    4.757185  
      21Ag     4.757186     5Au     5.129165    21B1u    5.129166  
       6B1g    5.203697    22Ag     5.203699    12B3u    5.226168  
      12B2u    5.226168    23Ag     5.279825    11B3g    5.421637  
      11B2g    5.421637    13B3u    5.471642    13B2u    5.471642  
       6Au     5.649210    22B1u    5.649214     7B1g    5.665308  
      24Ag     5.665308    14B3u    5.727825    14B2u    5.727825  
      12B2g    5.795924    12B3g    5.795924    25Ag     5.881464  
      15B2u    5.923733    15B3u    5.923733    23B1u    6.011509  
      13B3g    6.017072    13B2g    6.017072     8B1g    6.090923  
      26Ag     6.090933    14B3g    6.132512    14B2g    6.132512  
      16B3u    6.175308    16B2u    6.175308     7Au     6.317361  
      24B1u    6.317369    15B2g    6.561438    15B3g    6.561438  
      27Ag     6.886870    25B1u    7.048029    26B1u    7.049015  
       8Au     7.049015    16B3g    7.055042    16B2g    7.055042  
      27B1u    7.306741    28Ag     7.557063    17B2g    7.699397  
      17B3g    7.699397    17B2u    7.708734    17B3u    7.708734  
       9B1g    7.800267    29Ag     7.800281    18B3u    7.886347  
      18B2u    7.886347     9Au     8.002035    28B1u    8.002061  
      30Ag     8.123119    10B1g    8.179506    31Ag     8.179513  
      29B1u    8.214408    30B1u    8.546964    18B3g    8.583940  
      18B2g    8.583940    10Au     9.067936    31B1u    9.067936  
      19B3u    9.171001    19B2u    9.171001    32B1u    9.185678  
      32Ag     9.221201    19B3g    9.913468    19B2g    9.913468  
      33B1u   10.453737    20B2g   11.409017    20B3g   11.409017  
      33Ag    11.434970    20B3u   11.490795    20B2u   11.490795  
      34Ag    12.132087    34B1u   13.794994    35Ag    23.299248  
      35B1u   26.441774  

    Final Occupation by Irrep:
             Ag   B1g   B2g   B3g    Au   B1u   B2u   B3u 
    DOCC [     3,    0,    0,    0,    0,    2,    1,    1 ]

  @DF-RKS Final Energy:   -77.33536963138741

   => Energetics <=

    Nuclear Repulsion Energy =             24.7058552960972690
    One-Electron Energy =                -151.7783671641078627
    Two-Electron Energy =                  57.5656343818819636
    DFT Exchange-Correlation Energy =      -7.8862197804270071
    Empirical Dispersion Energy =           0.0000000000000000
    VV10 Nonlocal Energy =                  0.0577276351682249
    Total Energy =                        -77.3353696313874224

Computation Completed


Properties will be evaluated at   0.000000,   0.000000,   0.000000 [a0]

Properties computed using the SCF density matrix

  Nuclear Dipole Moment: [e a0]
     X:     0.0000      Y:     0.0000      Z:     0.0000

  Electronic Dipole Moment: [e a0]
     X:     0.0000      Y:     0.0000      Z:     0.0000

  Dipole Moment: [e a0]
     X:     0.0000      Y:     0.0000      Z:     0.0000     Total:     0.0000

  Dipole Moment: [D]
     X:     0.0000      Y:     0.0000      Z:     0.0000     Total:     0.0000


*** tstop() called on bp1-compute00065.data.bp.acrc.priv at Tue Apr 27 16:57:00 2021
Module time:
	user time   =      94.60 seconds =       1.58 minutes
	system time =       3.73 seconds =       0.06 minutes
	total time  =          4 seconds =       0.07 minutes
Total time:
	user time   =     185.05 seconds =       3.08 minutes
	system time =       9.50 seconds =       0.16 minutes
	total time  =          9 seconds =       0.15 minutes

  //>>>>>>>>>>>>>>>>>>>>>>>>>>>>>>>>>>>//
  //    Loading displacement 3 of 5    //
  //<<<<<<<<<<<<<<<<<<<<<<<<<<<<<<<<<<<//

*** tstart() called on bp1-compute00065.data.bp.acrc.priv
*** at Tue Apr 27 16:57:00 2021

   => Loading Basis Set <=

    Name: CC-PV(Q+D)Z
    Role: ORBITAL
    Keyword: BASIS
    atoms 1-2 entry C          line   249 file /work/zw18965/.conda/envs/p4env/share/psi4/basis/cc-pv_qpd_z.gbs 
    atoms 3-4 entry H          line    32 file /work/zw18965/.conda/envs/p4env/share/psi4/basis/cc-pv_qpd_z.gbs 


         ---------------------------------------------------------
                                   SCF
               by Justin Turney, Rob Parrish, Andy Simmonett
                          and Daniel G. A. Smith
                              RKS Reference
                       24 Threads, 137329 MiB Core
         ---------------------------------------------------------

  ==> Geometry <==

    Molecular point group: d2h
    Full point group: D_inf_h

    Geometry (in Angstrom), charge = 0, multiplicity = 1:

       Center              X                  Y                   Z               Mass       
    ------------   -----------------  -----------------  -----------------  -----------------
         C            0.000000000000     0.000000000000    -0.602709910771    12.000000000000
         C            0.000000000000     0.000000000000     0.602709910771    12.000000000000
         H            0.000000000000     0.000000000000     1.666650000000     1.007825032230
         H            0.000000000000     0.000000000000    -1.666650000000     1.007825032230

  Running in d2h symmetry.

  Rotational constants: A = ************  B =      1.17744  C =      1.17744 [cm^-1]
  Rotational constants: A = ************  B =  35298.88593  C =  35298.88593 [MHz]
  Nuclear repulsion =   24.729394000008451

  Charge       = 0
  Multiplicity = 1
  Electrons    = 14
  Nalpha       = 7
  Nbeta        = 7

  ==> Algorithm <==

  SCF Algorithm Type is DF.
  DIIS enabled.
  MOM disabled.
  Fractional occupation disabled.
  Guess Type is SAD.
  Energy threshold   = 1.00e-08
  Density threshold  = 1.00e-08
  Integral threshold = 0.00e+00

  ==> Primary Basis <==

  Basis Set: CC-PV(Q+D)Z
    Blend: CC-PV(Q+D)Z
    Number of shells: 50
    Number of basis function: 170
    Number of Cartesian functions: 210
    Spherical Harmonics?: true
    Max angular momentum: 4

  ==> DFT Potential <==

   => Composite Functional: WB97X-V <= 

    wB97X-V Hyb-GGA Exchange-Correlation Functional

    N. Mardirossian and M. Head-Gordon, Phys. Chem. Chem. Phys. 16, 9904 (2014)

    Deriv               =              1
    GGA                 =           TRUE
    Meta                =          FALSE

    Exchange Hybrid     =           TRUE
    MP2 Hybrid          =          FALSE

   => Exchange-Correlation Functionals <=

    1.0000   wB97X-V range-separated functional

   => Exact (HF) Exchange <=

    0.8330            HF,LR [omega = 0.3000]
    0.1670               HF 

   => VV10 Non-Local Parameters <=

    VV10 B              =     6.0000E+00
    VV10 C              =     1.0000E-02

   => Molecular Quadrature <=

    Radial Scheme          =       TREUTLER
    Pruning Scheme         =           FLAT
    Nuclear Scheme         =       TREUTLER

    BS radius alpha        =              1
    Pruning alpha          =              1
    Radial Points          =             75
    Spherical Points       =            302
    Total Points           =          88848
    Total Blocks           =            716
    Max Points             =            256
    Max Functions          =            169

   => Loading Basis Set <=

    Name: (CC-PV(Q+D)Z AUX)
    Role: JKFIT
    Keyword: DF_BASIS_SCF
    atoms 1-2 entry C          line   137 file /work/zw18965/.conda/envs/p4env/share/psi4/basis/cc-pvqz-jkfit.gbs 
    atoms 3-4 entry H          line    51 file /work/zw18965/.conda/envs/p4env/share/psi4/basis/cc-pvqz-jkfit.gbs 

  ==> Pre-Iterations <==

   -------------------------------------------------------
    Irrep   Nso     Nmo     Nalpha   Nbeta   Ndocc  Nsocc
   -------------------------------------------------------
     Ag        35      35       0       0       0       0
     B1g       10      10       0       0       0       0
     B2g       20      20       0       0       0       0
     B3g       20      20       0       0       0       0
     Au        10      10       0       0       0       0
     B1u       35      35       0       0       0       0
     B2u       20      20       0       0       0       0
     B3u       20      20       0       0       0       0
   -------------------------------------------------------
    Total     170     170       7       7       7       0
   -------------------------------------------------------

  ==> Integral Setup <==

  ==> DiskDFJK: Density-Fitted J/K Matrices <==

    J tasked:                  Yes
    K tasked:                  Yes
    wK tasked:                 Yes
    Omega:               3.000E-01
    OpenMP threads:             24
    Integrals threads:          24
    Memory [MiB]:           102620
    Algorithm:                Core
    Integral Cache:           NONE
    Schwarz Cutoff:          1E-12
    Fitting Condition:       1E-10

   => Auxiliary Basis Set <=

  Basis Set: (CC-PV(Q+D)Z AUX)
    Blend: CC-PVQZ-JKFIT
    Number of shells: 82
    Number of basis function: 314
    Number of Cartesian functions: 416
    Spherical Harmonics?: true
    Max angular momentum: 5

  Cached 100.0% of DFT collocation blocks in 0.367 [GiB].

  Minimum eigenvalue in the overlap matrix is 1.5801909493E-05.
  Using Symmetric Orthogonalization.

  SCF Guess: Superposition of Atomic Densities via on-the-fly atomic UHF.

  ==> Iterations <==

                           Total Energy        Delta E     RMS |[F,P]|

   @DF-RKS iter SAD:   -76.47774278338348   -7.64777e+01   0.00000e+00 
   @DF-RKS iter   1:   -77.24601052645788   -7.68268e-01   6.87623e-03 DIIS
   @DF-RKS iter   2:   -77.30663761989409   -6.06271e-02   3.83845e-03 DIIS
   @DF-RKS iter   3:   -77.33541963138624   -2.87820e-02   1.26965e-04 DIIS
   @DF-RKS iter   4:   -77.33547243578435   -5.28044e-05   1.46107e-05 DIIS
   @DF-RKS iter   5:   -77.33547357151140   -1.13573e-06   1.88027e-06 DIIS
   @DF-RKS iter   6:   -77.33547359348461   -2.19732e-08   4.24278e-07 DIIS
   @DF-RKS iter   7:   -77.33547359447432   -9.89715e-10   4.58681e-08 DIIS
   @DF-RKS iter   8:   -77.33547359448337   -9.05231e-12   6.01496e-09 DIIS
  Energy and wave function converged.


  ==> Post-Iterations <==

    Orbital Energies [Eh]
    ---------------------

    Doubly Occupied:                                                      

       1Ag   -10.279300     1B1u  -10.276840     2Ag    -0.884296  
       2B1u   -0.687264     3Ag    -0.608916     1B2u   -0.398669  
       1B3u   -0.398669  

    Virtual:                                                              

       1B2g    0.111936     1B3g    0.111936     3B1u    0.118897  
       4Ag     0.129746     5Ag     0.206048     2B3u    0.293102  
       2B2u    0.293102     4B1u    0.315580     5B1u    0.341166  
       2B3g    0.377018     2B2g    0.377018     6Ag     0.435133  
       1B1g    0.522941     7Ag     0.522941     3B3u    0.582462  
       3B2u    0.582462     8Ag     0.602455     6B1u    0.687489  
       1Au     0.757685     7B1u    0.757685     9Ag     0.764659  
       3B2g    0.782268     3B3g    0.782268     8B1u    0.818820  
       4B2g    1.060252     4B3g    1.060252     9B1u    1.077827  
      10Ag     1.094467     4B3u    1.102327     4B2u    1.102327  
      10B1u    1.345329     5B3u    1.378990     5B2u    1.378990  
      11B1u    1.517253    11Ag     1.528259     6B3u    1.677497  
       6B2u    1.677497    12Ag     1.707014     2B1g    1.707015  
       5B2g    1.763726     5B3g    1.763726    13Ag     1.782525  
       7B2u    1.805382     7B3u    1.805382     3B1g    1.856556  
      14Ag     1.856559     6B2g    1.949498     6B3g    1.949498  
       2Au     1.997342    12B1u    1.997347     7B3g    2.046097  
       7B2g    2.046097    15Ag     2.078817    13B1u    2.164087  
       3Au     2.215443    14B1u    2.215445     8B3u    2.260948  
       8B2u    2.260948    15B1u    2.514497    16Ag     2.520220  
       8B2g    2.577004     8B3g    2.577004     4B1g    2.613671  
      17Ag     2.613677    16B1u    2.633744     9B3u    2.912344  
       9B2u    2.912344     4Au     3.163650    17B1u    3.163652  
      18Ag     3.190508    18B1u    3.475138     9B2g    3.506764  
       9B3g    3.506764    19Ag     3.739471    10B2g    3.772517  
      10B3g    3.772517    19B1u    4.102775    10B3u    4.271259  
      10B2u    4.271259    20B1u    4.304296    20Ag     4.480710  
      11B2u    4.530747    11B3u    4.530747     5B1g    4.756357  
      21Ag     4.756358     5Au     5.130621    21B1u    5.130622  
       6B1g    5.205271    22Ag     5.205273    12B3u    5.225913  
      12B2u    5.225913    23Ag     5.277565    11B2g    5.423898  
      11B3g    5.423898    13B3u    5.474170    13B2u    5.474170  
       6Au     5.647135    22B1u    5.647139     7B1g    5.665306  
      24Ag     5.665306    14B2u    5.727235    14B3u    5.727235  
      12B2g    5.797393    12B3g    5.797393    25Ag     5.884465  
      15B3u    5.923366    15B2u    5.923366    23B1u    6.011896  
      13B2g    6.016401    13B3g    6.016401     8B1g    6.091593  
      26Ag     6.091603    14B2g    6.132988    14B3g    6.132988  
      16B3u    6.174507    16B2u    6.174507     7Au     6.319104  
      24B1u    6.319112    15B2g    6.562332    15B3g    6.562332  
      27Ag     6.883663    25B1u    7.050238     8Au     7.050238  
      26B1u    7.050286    16B2g    7.058516    16B3g    7.058516  
      27B1u    7.309848    28Ag     7.553864    17B2g    7.700737  
      17B3g    7.700737    17B3u    7.710218    17B2u    7.710218  
       9B1g    7.800481    29Ag     7.800496    18B3u    7.887731  
      18B2u    7.887731     9Au     8.003579    28B1u    8.003605  
      30Ag     8.120736    10B1g    8.178414    31Ag     8.178421  
      29B1u    8.218720    30B1u    8.555064    18B2g    8.584278  
      18B3g    8.584278    10Au     9.068363    31B1u    9.068363  
      19B3u    9.170731    19B2u    9.170731    32B1u    9.188444  
      32Ag     9.219269    19B2g    9.915206    19B3g    9.915206  
      33B1u   10.453229    20B2g   11.402001    20B3g   11.402001  
      33Ag    11.435021    20B3u   11.489856    20B2u   11.489856  
      34Ag    12.100465    34B1u   13.796497    35Ag    23.290836  
      35B1u   26.461728  

    Final Occupation by Irrep:
             Ag   B1g   B2g   B3g    Au   B1u   B2u   B3u 
    DOCC [     3,    0,    0,    0,    0,    2,    1,    1 ]

  @DF-RKS Final Energy:   -77.33547359448337

   => Energetics <=

    Nuclear Repulsion Energy =             24.7293940000084511
    One-Electron Energy =                -151.8270686152600604
    Two-Electron Energy =                  57.5917013352365359
    DFT Exchange-Correlation Energy =      -7.8872282560988243
    Empirical Dispersion Energy =           0.0000000000000000
    VV10 Nonlocal Energy =                  0.0577279416305084
    Total Energy =                        -77.3354735944833891

Computation Completed


Properties will be evaluated at   0.000000,   0.000000,   0.000000 [a0]

Properties computed using the SCF density matrix

  Nuclear Dipole Moment: [e a0]
     X:     0.0000      Y:     0.0000      Z:     0.0000

  Electronic Dipole Moment: [e a0]
     X:     0.0000      Y:     0.0000      Z:     0.0000

  Dipole Moment: [e a0]
     X:     0.0000      Y:     0.0000      Z:     0.0000     Total:     0.0000

  Dipole Moment: [D]
     X:     0.0000      Y:     0.0000      Z:     0.0000     Total:     0.0000


*** tstop() called on bp1-compute00065.data.bp.acrc.priv at Tue Apr 27 16:57:04 2021
Module time:
	user time   =      90.06 seconds =       1.50 minutes
	system time =       2.51 seconds =       0.04 minutes
	total time  =          4 seconds =       0.07 minutes
Total time:
	user time   =     275.27 seconds =       4.59 minutes
	system time =      12.02 seconds =       0.20 minutes
	total time  =         13 seconds =       0.22 minutes

  //>>>>>>>>>>>>>>>>>>>>>>>>>>>>>>>>>>>//
  //    Loading displacement 4 of 5    //
  //<<<<<<<<<<<<<<<<<<<<<<<<<<<<<<<<<<<//

*** tstart() called on bp1-compute00065.data.bp.acrc.priv
*** at Tue Apr 27 16:57:04 2021

   => Loading Basis Set <=

    Name: CC-PV(Q+D)Z
    Role: ORBITAL
    Keyword: BASIS
    atoms 1-2 entry C          line   249 file /work/zw18965/.conda/envs/p4env/share/psi4/basis/cc-pv_qpd_z.gbs 
    atoms 3-4 entry H          line    32 file /work/zw18965/.conda/envs/p4env/share/psi4/basis/cc-pv_qpd_z.gbs 


         ---------------------------------------------------------
                                   SCF
               by Justin Turney, Rob Parrish, Andy Simmonett
                          and Daniel G. A. Smith
                              RKS Reference
                       24 Threads, 137329 MiB Core
         ---------------------------------------------------------

  ==> Geometry <==

    Molecular point group: d2h
    Full point group: D_inf_h

    Geometry (in Angstrom), charge = 0, multiplicity = 1:

       Center              X                  Y                   Z               Mass       
    ------------   -----------------  -----------------  -----------------  -----------------
         C            0.000000000000     0.000000000000    -0.603250000000    12.000000000000
         C            0.000000000000     0.000000000000     0.603250000000    12.000000000000
         H            0.000000000000     0.000000000000     1.664786353368     1.007825032230
         H            0.000000000000     0.000000000000    -1.664786353368     1.007825032230

  Running in d2h symmetry.

  Rotational constants: A = ************  B =      1.17719  C =      1.17719 [cm^-1]
  Rotational constants: A = ************  B =  35291.20161  C =  35291.20161 [MHz]
  Nuclear repulsion =   24.730570443607064

  Charge       = 0
  Multiplicity = 1
  Electrons    = 14
  Nalpha       = 7
  Nbeta        = 7

  ==> Algorithm <==

  SCF Algorithm Type is DF.
  DIIS enabled.
  MOM disabled.
  Fractional occupation disabled.
  Guess Type is SAD.
  Energy threshold   = 1.00e-08
  Density threshold  = 1.00e-08
  Integral threshold = 0.00e+00

  ==> Primary Basis <==

  Basis Set: CC-PV(Q+D)Z
    Blend: CC-PV(Q+D)Z
    Number of shells: 50
    Number of basis function: 170
    Number of Cartesian functions: 210
    Spherical Harmonics?: true
    Max angular momentum: 4

  ==> DFT Potential <==

   => Composite Functional: WB97X-V <= 

    wB97X-V Hyb-GGA Exchange-Correlation Functional

    N. Mardirossian and M. Head-Gordon, Phys. Chem. Chem. Phys. 16, 9904 (2014)

    Deriv               =              1
    GGA                 =           TRUE
    Meta                =          FALSE

    Exchange Hybrid     =           TRUE
    MP2 Hybrid          =          FALSE

   => Exchange-Correlation Functionals <=

    1.0000   wB97X-V range-separated functional

   => Exact (HF) Exchange <=

    0.8330            HF,LR [omega = 0.3000]
    0.1670               HF 

   => VV10 Non-Local Parameters <=

    VV10 B              =     6.0000E+00
    VV10 C              =     1.0000E-02

   => Molecular Quadrature <=

    Radial Scheme          =       TREUTLER
    Pruning Scheme         =           FLAT
    Nuclear Scheme         =       TREUTLER

    BS radius alpha        =              1
    Pruning alpha          =              1
    Radial Points          =             75
    Spherical Points       =            302
    Total Points           =          88848
    Total Blocks           =            716
    Max Points             =            256
    Max Functions          =            169

   => Loading Basis Set <=

    Name: (CC-PV(Q+D)Z AUX)
    Role: JKFIT
    Keyword: DF_BASIS_SCF
    atoms 1-2 entry C          line   137 file /work/zw18965/.conda/envs/p4env/share/psi4/basis/cc-pvqz-jkfit.gbs 
    atoms 3-4 entry H          line    51 file /work/zw18965/.conda/envs/p4env/share/psi4/basis/cc-pvqz-jkfit.gbs 

  ==> Pre-Iterations <==

   -------------------------------------------------------
    Irrep   Nso     Nmo     Nalpha   Nbeta   Ndocc  Nsocc
   -------------------------------------------------------
     Ag        35      35       0       0       0       0
     B1g       10      10       0       0       0       0
     B2g       20      20       0       0       0       0
     B3g       20      20       0       0       0       0
     Au        10      10       0       0       0       0
     B1u       35      35       0       0       0       0
     B2u       20      20       0       0       0       0
     B3u       20      20       0       0       0       0
   -------------------------------------------------------
    Total     170     170       7       7       7       0
   -------------------------------------------------------

  ==> Integral Setup <==

  ==> DiskDFJK: Density-Fitted J/K Matrices <==

    J tasked:                  Yes
    K tasked:                  Yes
    wK tasked:                 Yes
    Omega:               3.000E-01
    OpenMP threads:             24
    Integrals threads:          24
    Memory [MiB]:           102620
    Algorithm:                Core
    Integral Cache:           NONE
    Schwarz Cutoff:          1E-12
    Fitting Condition:       1E-10

   => Auxiliary Basis Set <=

  Basis Set: (CC-PV(Q+D)Z AUX)
    Blend: CC-PVQZ-JKFIT
    Number of shells: 82
    Number of basis function: 314
    Number of Cartesian functions: 416
    Spherical Harmonics?: true
    Max angular momentum: 5

  Cached 100.0% of DFT collocation blocks in 0.367 [GiB].

  Minimum eigenvalue in the overlap matrix is 1.5846518053E-05.
  Using Symmetric Orthogonalization.

  SCF Guess: Superposition of Atomic Densities via on-the-fly atomic UHF.

  ==> Iterations <==

                           Total Energy        Delta E     RMS |[F,P]|

   @DF-RKS iter SAD:   -76.47764626024568   -7.64776e+01   0.00000e+00 
   @DF-RKS iter   1:   -77.24640326475179   -7.68757e-01   6.85767e-03 DIIS
   @DF-RKS iter   2:   -77.30685343762038   -6.04502e-02   3.82096e-03 DIIS
   @DF-RKS iter   3:   -77.33535298019993   -2.84995e-02   1.26376e-04 DIIS
   @DF-RKS iter   4:   -77.33540568546634   -5.27053e-05   1.46404e-05 DIIS
   @DF-RKS iter   5:   -77.33540683230197   -1.14684e-06   1.86962e-06 DIIS
   @DF-RKS iter   6:   -77.33540685432796   -2.20260e-08   4.18658e-07 DIIS
   @DF-RKS iter   7:   -77.33540685527259   -9.44638e-10   4.39817e-08 DIIS
   @DF-RKS iter   8:   -77.33540685528092   -8.32756e-12   5.89791e-09 DIIS
  Energy and wave function converged.


  ==> Post-Iterations <==

    Orbital Energies [Eh]
    ---------------------

    Doubly Occupied:                                                      

       1Ag   -10.279421     1B1u  -10.276982     2Ag    -0.884224  
       2B1u   -0.688135     3Ag    -0.609502     1B3u   -0.398534  
       1B2u   -0.398534  

    Virtual:                                                              

       1B2g    0.111619     1B3g    0.111619     3B1u    0.119036  
       4Ag     0.129736     5Ag     0.206267     2B3u    0.293145  
       2B2u    0.293145     4B1u    0.315883     5B1u    0.341477  
       2B3g    0.376860     2B2g    0.376860     6Ag     0.435717  
       1B1g    0.522859     7Ag     0.522859     3B3u    0.582653  
       3B2u    0.582653     8Ag     0.602965     6B1u    0.687601  
       1Au     0.757532     7B1u    0.757533     9Ag     0.764561  
       3B2g    0.782569     3B3g    0.782569     8B1u    0.818362  
       4B3g    1.060491     4B2g    1.060491     9B1u    1.077844  
      10Ag     1.095562     4B2u    1.102413     4B3u    1.102413  
      10B1u    1.344273     5B2u    1.379330     5B3u    1.379330  
      11B1u    1.518761    11Ag     1.528221     6B2u    1.677463  
       6B3u    1.677463    12Ag     1.707067     2B1g    1.707068  
       5B2g    1.763068     5B3g    1.763068    13Ag     1.783533  
       7B2u    1.804960     7B3u    1.804960     3B1g    1.856512  
      14Ag     1.856515     6B2g    1.949465     6B3g    1.949465  
       2Au     1.997510    12B1u    1.997515     7B2g    2.045684  
       7B3g    2.045684    15Ag     2.077878    13B1u    2.165216  
       3Au     2.216261    14B1u    2.216263     8B3u    2.260204  
       8B2u    2.260204    15B1u    2.512266    16Ag     2.522473  
       8B3g    2.577258     8B2g    2.577258     4B1g    2.615262  
      17Ag     2.615268    16B1u    2.633821     9B2u    2.914355  
       9B3u    2.914355     4Au     3.165018    17B1u    3.165020  
      18Ag     3.190012    18B1u    3.477305     9B3g    3.509672  
       9B2g    3.509672    19Ag     3.742404    10B2g    3.772183  
      10B3g    3.772183    19B1u    4.102925    10B2u    4.274132  
      10B3u    4.274132    20B1u    4.306253    20Ag     4.482275  
      11B3u    4.530102    11B2u    4.530102     5B1g    4.756741  
      21Ag     4.756742     5Au     5.129860    21B1u    5.129861  
       6B1g    5.205125    22Ag     5.205127    12B2u    5.225969  
      12B3u    5.225969    23Ag     5.279133    11B3g    5.422066  
      11B2g    5.422066    13B2u    5.472257    13B3u    5.472257  
       6Au     5.648699    22B1u    5.648703     7B1g    5.665898  
      24Ag     5.665898    14B2u    5.728643    14B3u    5.728643  
      12B3g    5.797716    12B2g    5.797716    25Ag     5.879993  
      15B3u    5.923002    15B2u    5.923002    23B1u    6.011062  
      13B3g    6.019293    13B2g    6.019293     8B1g    6.091952  
      26Ag     6.091962    14B2g    6.132989    14B3g    6.132989  
      16B3u    6.177406    16B2u    6.177406     7Au     6.318479  
      24B1u    6.318487    15B2g    6.565253    15B3g    6.565253  
      27Ag     6.885488    25B1u    7.051511    26B1u    7.055285  
       8Au     7.055285    16B3g    7.056621    16B2g    7.056621  
      27B1u    7.310623    28Ag     7.559287    17B3g    7.698045  
      17B2g    7.698045    17B2u    7.707445    17B3u    7.707445  
       9B1g    7.804266    29Ag     7.804282    18B2u    7.895379  
      18B3u    7.895379     9Au     8.001633    28B1u    8.001659  
      30Ag     8.127682    10B1g    8.184225    31Ag     8.184232  
      29B1u    8.217150    30B1u    8.540379    18B3g    8.587121  
      18B2g    8.587121    10Au     9.077666    31B1u    9.077667  
      19B2u    9.176265    19B3u    9.176265    32B1u    9.190112  
      32Ag     9.223397    19B2g    9.926324    19B3g    9.926324  
      33B1u   10.462207    20B3g   11.407347    20B2g   11.407347  
      33Ag    11.450580    20B2u   11.506713    20B3u   11.506713  
      34Ag    12.103748    34B1u   13.818375    35Ag    23.312657  
      35B1u   26.465077  

    Final Occupation by Irrep:
             Ag   B1g   B2g   B3g    Au   B1u   B2u   B3u 
    DOCC [     3,    0,    0,    0,    0,    2,    1,    1 ]

  @DF-RKS Final Energy:   -77.33540685528092

   => Energetics <=

    Nuclear Repulsion Energy =             24.7305704436070641
    One-Electron Energy =                -151.8261393796154834
    Two-Electron Energy =                  57.5902353947627148
    DFT Exchange-Correlation Energy =      -7.8878030263017518
    Empirical Dispersion Energy =           0.0000000000000000
    VV10 Nonlocal Energy =                  0.0577297122665339
    Total Energy =                        -77.3354068552809224

Computation Completed


Properties will be evaluated at   0.000000,   0.000000,   0.000000 [a0]

Properties computed using the SCF density matrix

  Nuclear Dipole Moment: [e a0]
     X:     0.0000      Y:     0.0000      Z:    -0.0000

  Electronic Dipole Moment: [e a0]
     X:     0.0000      Y:     0.0000      Z:     0.0000

  Dipole Moment: [e a0]
     X:     0.0000      Y:     0.0000      Z:    -0.0000     Total:     0.0000

  Dipole Moment: [D]
     X:     0.0000      Y:     0.0000      Z:    -0.0000     Total:     0.0000


*** tstop() called on bp1-compute00065.data.bp.acrc.priv at Tue Apr 27 16:57:08 2021
Module time:
	user time   =      88.81 seconds =       1.48 minutes
	system time =       2.65 seconds =       0.04 minutes
	total time  =          4 seconds =       0.07 minutes
Total time:
	user time   =     364.21 seconds =       6.07 minutes
	system time =      14.68 seconds =       0.24 minutes
	total time  =         17 seconds =       0.28 minutes

  //>>>>>>>>>>>>>>>>>>>>>>>>>>>>>>>>>>>//
  //    Loading displacement 5 of 5    //
  //<<<<<<<<<<<<<<<<<<<<<<<<<<<<<<<<<<<//

*** tstart() called on bp1-compute00065.data.bp.acrc.priv
*** at Tue Apr 27 16:57:08 2021

   => Loading Basis Set <=

    Name: CC-PV(Q+D)Z
    Role: ORBITAL
    Keyword: BASIS
    atoms 1-2 entry C          line   249 file /work/zw18965/.conda/envs/p4env/share/psi4/basis/cc-pv_qpd_z.gbs 
    atoms 3-4 entry H          line    32 file /work/zw18965/.conda/envs/p4env/share/psi4/basis/cc-pv_qpd_z.gbs 


         ---------------------------------------------------------
                                   SCF
               by Justin Turney, Rob Parrish, Andy Simmonett
                          and Daniel G. A. Smith
                              RKS Reference
                       24 Threads, 137329 MiB Core
         ---------------------------------------------------------

  ==> Geometry <==

    Molecular point group: d2h
    Full point group: D_inf_h

    Geometry (in Angstrom), charge = 0, multiplicity = 1:

       Center              X                  Y                   Z               Mass       
    ------------   -----------------  -----------------  -----------------  -----------------
         C            0.000000000000     0.000000000000    -0.603250000000    12.000000000000
         C            0.000000000000     0.000000000000     0.603250000000    12.000000000000
         H            0.000000000000     0.000000000000     1.668513646632     1.007825032230
         H            0.000000000000     0.000000000000    -1.668513646632     1.007825032230

  Running in d2h symmetry.

  Rotational constants: A = ************  B =      1.17513  C =      1.17513 [cm^-1]
  Rotational constants: A = ************  B =  35229.59320  C =  35229.59320 [MHz]
  Nuclear repulsion =   24.704690992421998

  Charge       = 0
  Multiplicity = 1
  Electrons    = 14
  Nalpha       = 7
  Nbeta        = 7

  ==> Algorithm <==

  SCF Algorithm Type is DF.
  DIIS enabled.
  MOM disabled.
  Fractional occupation disabled.
  Guess Type is SAD.
  Energy threshold   = 1.00e-08
  Density threshold  = 1.00e-08
  Integral threshold = 0.00e+00

  ==> Primary Basis <==

  Basis Set: CC-PV(Q+D)Z
    Blend: CC-PV(Q+D)Z
    Number of shells: 50
    Number of basis function: 170
    Number of Cartesian functions: 210
    Spherical Harmonics?: true
    Max angular momentum: 4

  ==> DFT Potential <==

   => Composite Functional: WB97X-V <= 

    wB97X-V Hyb-GGA Exchange-Correlation Functional

    N. Mardirossian and M. Head-Gordon, Phys. Chem. Chem. Phys. 16, 9904 (2014)

    Deriv               =              1
    GGA                 =           TRUE
    Meta                =          FALSE

    Exchange Hybrid     =           TRUE
    MP2 Hybrid          =          FALSE

   => Exchange-Correlation Functionals <=

    1.0000   wB97X-V range-separated functional

   => Exact (HF) Exchange <=

    0.8330            HF,LR [omega = 0.3000]
    0.1670               HF 

   => VV10 Non-Local Parameters <=

    VV10 B              =     6.0000E+00
    VV10 C              =     1.0000E-02

   => Molecular Quadrature <=

    Radial Scheme          =       TREUTLER
    Pruning Scheme         =           FLAT
    Nuclear Scheme         =       TREUTLER

    BS radius alpha        =              1
    Pruning alpha          =              1
    Radial Points          =             75
    Spherical Points       =            302
    Total Points           =          88848
    Total Blocks           =            714
    Max Points             =            256
    Max Functions          =            169

   => Loading Basis Set <=

    Name: (CC-PV(Q+D)Z AUX)
    Role: JKFIT
    Keyword: DF_BASIS_SCF
    atoms 1-2 entry C          line   137 file /work/zw18965/.conda/envs/p4env/share/psi4/basis/cc-pvqz-jkfit.gbs 
    atoms 3-4 entry H          line    51 file /work/zw18965/.conda/envs/p4env/share/psi4/basis/cc-pvqz-jkfit.gbs 

  ==> Pre-Iterations <==

   -------------------------------------------------------
    Irrep   Nso     Nmo     Nalpha   Nbeta   Ndocc  Nsocc
   -------------------------------------------------------
     Ag        35      35       0       0       0       0
     B1g       10      10       0       0       0       0
     B2g       20      20       0       0       0       0
     B3g       20      20       0       0       0       0
     Au        10      10       0       0       0       0
     B1u       35      35       0       0       0       0
     B2u       20      20       0       0       0       0
     B3u       20      20       0       0       0       0
   -------------------------------------------------------
    Total     170     170       7       7       7       0
   -------------------------------------------------------

  ==> Integral Setup <==

  ==> DiskDFJK: Density-Fitted J/K Matrices <==

    J tasked:                  Yes
    K tasked:                  Yes
    wK tasked:                 Yes
    Omega:               3.000E-01
    OpenMP threads:             24
    Integrals threads:          24
    Memory [MiB]:           102620
    Algorithm:                Core
    Integral Cache:           NONE
    Schwarz Cutoff:          1E-12
    Fitting Condition:       1E-10

   => Auxiliary Basis Set <=

  Basis Set: (CC-PV(Q+D)Z AUX)
    Blend: CC-PVQZ-JKFIT
    Number of shells: 82
    Number of basis function: 314
    Number of Cartesian functions: 416
    Spherical Harmonics?: true
    Max angular momentum: 5

  Cached 100.0% of DFT collocation blocks in 0.367 [GiB].

  Minimum eigenvalue in the overlap matrix is 1.5903754474E-05.
  Using Symmetric Orthogonalization.

  SCF Guess: Superposition of Atomic Densities via on-the-fly atomic UHF.

  ==> Iterations <==

                           Total Energy        Delta E     RMS |[F,P]|

   @DF-RKS iter SAD:   -76.47613487883153   -7.64761e+01   0.00000e+00 
   @DF-RKS iter   1:   -77.24626377076501   -7.70129e-01   6.86116e-03 DIIS
   @DF-RKS iter   2:   -77.30667704755554   -6.04133e-02   3.83114e-03 DIIS
   @DF-RKS iter   3:   -77.33537761823654   -2.87006e-02   1.26741e-04 DIIS
   @DF-RKS iter   4:   -77.33543032544159   -5.27072e-05   1.46028e-05 DIIS
   @DF-RKS iter   5:   -77.33543146041141   -1.13497e-06   1.88531e-06 DIIS
   @DF-RKS iter   6:   -77.33543148243504   -2.20236e-08   4.25187e-07 DIIS
   @DF-RKS iter   7:   -77.33543148343355   -9.98511e-10   4.62141e-08 DIIS
   @DF-RKS iter   8:   -77.33543148344253   -8.98126e-12   6.05403e-09 DIIS
  Energy and wave function converged.


  ==> Post-Iterations <==

    Orbital Energies [Eh]
    ---------------------

    Doubly Occupied:                                                      

       1Ag   -10.279724     1B1u  -10.277284     2Ag    -0.884048  
       2B1u   -0.687013     3Ag    -0.608578     1B3u   -0.398474  
       1B2u   -0.398474  

    Virtual:                                                              

       1B3g    0.111688     1B2g    0.111688     3B1u    0.118717  
       4Ag     0.129729     5Ag     0.205948     2B3u    0.293159  
       2B2u    0.293159     4B1u    0.314850     5B1u    0.341159  
       2B3g    0.376981     2B2g    0.376981     6Ag     0.434783  
       1B1g    0.522926     7Ag     0.522927     3B2u    0.582139  
       3B3u    0.582139     8Ag     0.602033     6B1u    0.687176  
       1Au     0.757575     7B1u    0.757575     9Ag     0.764821  
       3B2g    0.781814     3B3g    0.781814     8B1u    0.818088  
       4B2g    1.060546     4B3g    1.060546     9B1u    1.077542  
      10Ag     1.093825     4B3u    1.101666     4B2u    1.101666  
      10B1u    1.343593     5B3u    1.379088     5B2u    1.379088  
      11B1u    1.516619    11Ag     1.528037     6B2u    1.677538  
       6B3u    1.677538    12Ag     1.706653     2B1g    1.706654  
       5B2g    1.764080     5B3g    1.764080    13Ag     1.782059  
       7B3u    1.805414     7B2u    1.805414     3B1g    1.856565  
      14Ag     1.856568     6B2g    1.948136     6B3g    1.948136  
       2Au     1.997319    12B1u    1.997324     7B2g    2.045756  
       7B3g    2.045756    15Ag     2.079346    13B1u    2.162644  
       3Au     2.214295    14B1u    2.214297     8B3u    2.260504  
       8B2u    2.260504    15B1u    2.513812    16Ag     2.518712  
       8B2g    2.576680     8B3g    2.576680     4B1g    2.611851  
      17Ag     2.611857    16B1u    2.632892     9B3u    2.910056  
       9B2u    2.910056     4Au     3.161494    17B1u    3.161497  
      18Ag     3.190084    18B1u    3.474171     9B2g    3.503761  
       9B3g    3.503761    19Ag     3.737936    10B2g    3.773657  
      10B3g    3.773657    19B1u    4.100228    10B3u    4.268329  
      10B2u    4.268329    20B1u    4.300734    20Ag     4.478860  
      11B3u    4.530379    11B2u    4.530379     5B1g    4.756801  
      21Ag     4.756802     5Au     5.129925    21B1u    5.129926  
       6B1g    5.203818    22Ag     5.203821    12B2u    5.226123  
      12B3u    5.226123    23Ag     5.278251    11B2g    5.423482  
      11B3g    5.423482    13B2u    5.473565    13B3u    5.473565  
       6Au     5.647654    22B1u    5.647658     7B1g    5.664746  
      24Ag     5.664746    14B2u    5.726447    14B3u    5.726447  
      12B3g    5.795582    12B2g    5.795582    25Ag     5.885844  
      15B3u    5.924095    15B2u    5.924095    23B1u    6.012283  
      13B2g    6.014160    13B3g    6.014160     8B1g    6.090573  
      26Ag     6.090583    14B2g    6.132510    14B3g    6.132510  
      16B3u    6.172419    16B2u    6.172419     7Au     6.317981  
      24B1u    6.317989    15B2g    6.558524    15B3g    6.558524  
      27Ag     6.885033    25B1u    7.043992     8Au     7.043992  
      26B1u    7.046681    16B2g    7.056905    16B3g    7.056905  
      27B1u    7.305949    28Ag     7.551818    17B2g    7.702171  
      17B3g    7.702171    17B3u    7.711483    17B2u    7.711483  
       9B1g    7.796360    29Ag     7.796374    18B3u    7.878695  
      18B2u    7.878695     9Au     8.003959    28B1u    8.003985  
      30Ag     8.116217    10B1g    8.173837    31Ag     8.173845  
      29B1u    8.215919    30B1u    8.561244    18B2g    8.581111  
      18B3g    8.581111    10Au     9.058657    31B1u    9.058657  
      19B3u    9.165502    19B2u    9.165502    32B1u    9.184597  
      32Ag     9.217027    19B2g    9.902335    19B3g    9.902335  
      33B1u   10.444992    20B2g   11.403601    20B3g   11.403601  
      33Ag    11.419303    20B3u   11.473950    20B2u   11.473950  
      34Ag    12.128767    34B1u   13.773155    35Ag    23.277615  
      35B1u   26.438367  

    Final Occupation by Irrep:
             Ag   B1g   B2g   B3g    Au   B1u   B2u   B3u 
    DOCC [     3,    0,    0,    0,    0,    2,    1,    1 ]

  @DF-RKS Final Energy:   -77.33543148344253

   => Energetics <=

    Nuclear Repulsion Energy =             24.7046909924219982
    One-Electron Energy =                -151.7793066821091941
    Two-Electron Energy =                  57.5671046584356603
    DFT Exchange-Correlation Energy =      -7.8856463187945902
    Empirical Dispersion Energy =           0.0000000000000000
    VV10 Nonlocal Energy =                  0.0577258666035968
    Total Energy =                        -77.3354314834425338

Computation Completed


Properties will be evaluated at   0.000000,   0.000000,   0.000000 [a0]

Properties computed using the SCF density matrix

  Nuclear Dipole Moment: [e a0]
     X:     0.0000      Y:     0.0000      Z:    -0.0000

  Electronic Dipole Moment: [e a0]
     X:     0.0000      Y:     0.0000      Z:     0.0000

  Dipole Moment: [e a0]
     X:     0.0000      Y:     0.0000      Z:    -0.0000     Total:     0.0000

  Dipole Moment: [D]
     X:     0.0000      Y:     0.0000      Z:    -0.0000     Total:     0.0000


*** tstop() called on bp1-compute00065.data.bp.acrc.priv at Tue Apr 27 16:57:12 2021
Module time:
	user time   =      92.20 seconds =       1.54 minutes
	system time =       3.12 seconds =       0.05 minutes
	total time  =          4 seconds =       0.07 minutes
Total time:
	user time   =     456.59 seconds =       7.61 minutes
	system time =      17.81 seconds =       0.30 minutes
	total time  =         21 seconds =       0.35 minutes

         ----------------------------------------------------------
                                   FINDIF
                     R. A. King and Jonathon Misiewicz
         ---------------------------------------------------------

  Computing gradient from energies.
    Using 3-point formula.
    Energy without displacement:  -77.3354243158
    Check energies below for precision!
    Forces are for mass-weighted, symmetry-adapted cartesians (in au).

     Coord      Energy(-1)        Energy(+1)            Force
        0    -77.3353696314    -77.3354735945     -0.0103963096
        1    -77.3354068553    -77.3354314834     -0.0024628162


-------------------------------------------------------------
  ## New Matrix (Symmetry 0) ##
  Irrep: 1 Size: 4 x 3

                 1                   2                   3

    1     0.00000000000000     0.00000000000000    -0.02546565371985
    2     0.00000000000000     0.00000000000000     0.02546565371985
    3     0.00000000000000     0.00000000000000    -0.00174827427632
    4     0.00000000000000     0.00000000000000     0.00174827427632




			-----------------------------------------
			 OPTKING 2.0: for geometry optimizations 
			  - R.A. King,  Bethel University        
			-----------------------------------------
	At level 1: Red. Int., RFO, no backsteps, dynamic trust

	Internal coordinates to be generated automatically.
	Detected frag 1 with atoms:  1 2 3 4
	---Fragment 1 Bond Connectivity---
	 1 : 2 4
	 2 : 1 3
	 3 : 2
	 4 : 1

	---Fragment 1 Geometry and Gradient---
	 C           0.0000000000        0.0000000000       -1.1399772852
	 C           0.0000000000        0.0000000000        1.1399772852
	 H           0.0000000000        0.0000000000        3.1495120470
	 H           0.0000000000        0.0000000000       -3.1495120470
	             0.0000000000        0.0000000000       -0.0254656537
	             0.0000000000        0.0000000000        0.0254656537
	             0.0000000000        0.0000000000       -0.0017482743
	             0.0000000000        0.0000000000        0.0017482743

	Previous optimization step data not found.  Starting new optimization.

	---Fragment 1 Intrafragment Coordinates---
	 - Coordinate -           - BOHR/RAD -       - ANG/DEG -
	 R(1,2)           =         2.279955	       1.206500
	 R(1,4)           =         2.009535	       1.063400
	 R(2,3)           =         2.009535	       1.063400
	 L(1,2,3)         =         3.141593	     180.000000
	 l(1,2,3)         =         3.141593	     180.000000
	 L(2,1,4)         =         3.141593	     180.000000
	 l(2,1,4)         =         3.141593	     180.000000

	Current energy   :       -77.3354243158

	Generating empirical Hessian (Schlegel '84) for each fragment.
	Taking RFO optimization step.
	Going to follow RFO solution 1.
	Using RFO vector 1.
	Norm of target step-size    0.02421
	Projected energy change by RFO approximation:        -0.0005689135

	Back-transformation to cartesian coordinates...
	Successfully converged to displaced geometry.

	--- Internal Coordinate Step in ANG or DEG, aJ/ANG or AJ/DEG ---
	 ---------------------------------------------------------------------------
	   Coordinate                Previous        Force       Change         New 
	   ----------                --------       ------       ------       ------
	    1 R(1,2)          =      1.206500    -0.195401    -0.012343     1.194157
	    2 R(1,4)          =      1.063400     0.014404     0.002426     1.065826
	    3 R(2,3)          =      1.063400     0.014404     0.002426     1.065826
	    4 L(1,2,3)        =    180.000000     0.000000     0.000000   180.000000
	    5 l(1,2,3)        =    180.000000     0.000000     0.000000   180.000000
	    6 L(2,1,4)        =    180.000000     0.000000     0.000000   180.000000
	    7 l(2,1,4)        =    180.000000     0.000000     0.000000   180.000000
	 ---------------------------------------------------------------------------
	Successfully symmetrized geometry.

  ==> Convergence Check <==

  Measures of convergence in internal coordinates in au.
  Criteria marked as inactive (o), active & met (*), and active & unmet ( ).
  --------------------------------------------------------------------------------------------- ~
   Step     Total Energy     Delta E     MAX Force     RMS Force      MAX Disp      RMS Disp    ~
  --------------------------------------------------------------------------------------------- ~
    Convergence Criteria    1.00e-06 *    3.00e-04 *             o    1.20e-03 *             o  ~
  --------------------------------------------------------------------------------------------- ~
      1     -77.33542432   -7.73e+01      2.37e-02      9.01e-03 o    2.33e-02      9.15e-03 o  ~
  ---------------------------------------------------------------------------------------------

	Writing optimization data to binary file.
	Structure for next step:
	Cartesian Geometry (in Angstrom)
	    C    -0.0000000000  -0.0000000000  -0.5970783698
	    C    -0.0000000000  -0.0000000000   0.5970783698
	    H     0.0000000000   0.0000000000   1.6629044213
	    H     0.0000000000   0.0000000000  -1.6629044213
			--------------------------
			 OPTKING Finished Execution 
			--------------------------

    Structure for next step:
    Molecular point group: d2h
    Full point group: D_inf_h

    Geometry (in Angstrom), charge = 0, multiplicity = 1:

    C           -0.000000000000     0.000000000000    -0.597078372197
    C           -0.000000000000     0.000000000000     0.597078372197
    H            0.000000000000    -0.000000000000     1.662904427853
    H            0.000000000000    -0.000000000000    -1.662904427853

gradient() will perform gradient computation by finite difference of analytic energies.

         ----------------------------------------------------------
                                   FINDIF
                     R. A. King and Jonathon Misiewicz
         ---------------------------------------------------------

  Using finite-differences of energies to determine gradients.
    Generating geometries for use with 3-point formula.
    Displacement size will be 5.00e-03.
    Number of atoms is 4.
    Number of symmetric SALCs is 2.
    Translations projected? 1. Rotations projected? 1.
    Number of geometries (including reference) is 5.

  //>>>>>>>>>>>>>>>>>>>>>>>>>>>>>>>>>>>//
  //    Loading displacement 1 of 5    //
  //<<<<<<<<<<<<<<<<<<<<<<<<<<<<<<<<<<<//

*** tstart() called on bp1-compute00065.data.bp.acrc.priv
*** at Tue Apr 27 16:57:12 2021

   => Loading Basis Set <=

    Name: CC-PV(Q+D)Z
    Role: ORBITAL
    Keyword: BASIS
    atoms 1-2 entry C          line   249 file /work/zw18965/.conda/envs/p4env/share/psi4/basis/cc-pv_qpd_z.gbs 
    atoms 3-4 entry H          line    32 file /work/zw18965/.conda/envs/p4env/share/psi4/basis/cc-pv_qpd_z.gbs 


         ---------------------------------------------------------
                                   SCF
               by Justin Turney, Rob Parrish, Andy Simmonett
                          and Daniel G. A. Smith
                              RKS Reference
                       24 Threads, 137329 MiB Core
         ---------------------------------------------------------

  ==> Geometry <==

    Molecular point group: d2h
    Full point group: D_inf_h

    Geometry (in Angstrom), charge = 0, multiplicity = 1:

       Center              X                  Y                   Z               Mass       
    ------------   -----------------  -----------------  -----------------  -----------------
         C            0.000000000000    -0.000000000000    -0.597078372197    12.000000000000
         C            0.000000000000    -0.000000000000     0.597078372197    12.000000000000
         H           -0.000000000000     0.000000000000     1.662904427853     1.007825032230
         H           -0.000000000000     0.000000000000    -1.662904427853     1.007825032230

  Running in d2h symmetry.

  Rotational constants: A = ************  B =      1.19305  C =      1.19305 [cm^-1]
  Rotational constants: A = ************  B =  35766.78766  C =  35766.78766 [MHz]
  Nuclear repulsion =   24.879860649548789

  Charge       = 0
  Multiplicity = 1
  Electrons    = 14
  Nalpha       = 7
  Nbeta        = 7

  ==> Algorithm <==

  SCF Algorithm Type is DF.
  DIIS enabled.
  MOM disabled.
  Fractional occupation disabled.
  Guess Type is READ.
  Energy threshold   = 1.00e-08
  Density threshold  = 1.00e-08
  Integral threshold = 0.00e+00

  ==> Primary Basis <==

  Basis Set: CC-PV(Q+D)Z
    Blend: CC-PV(Q+D)Z
    Number of shells: 50
    Number of basis function: 170
    Number of Cartesian functions: 210
    Spherical Harmonics?: true
    Max angular momentum: 4

  ==> DFT Potential <==

   => Composite Functional: WB97X-V <= 

    wB97X-V Hyb-GGA Exchange-Correlation Functional

    N. Mardirossian and M. Head-Gordon, Phys. Chem. Chem. Phys. 16, 9904 (2014)

    Deriv               =              1
    GGA                 =           TRUE
    Meta                =          FALSE

    Exchange Hybrid     =           TRUE
    MP2 Hybrid          =          FALSE

   => Exchange-Correlation Functionals <=

    1.0000   wB97X-V range-separated functional

   => Exact (HF) Exchange <=

    0.8330            HF,LR [omega = 0.3000]
    0.1670               HF 

   => VV10 Non-Local Parameters <=

    VV10 B              =     6.0000E+00
    VV10 C              =     1.0000E-02

   => Molecular Quadrature <=

    Radial Scheme          =       TREUTLER
    Pruning Scheme         =           FLAT
    Nuclear Scheme         =       TREUTLER

    BS radius alpha        =              1
    Pruning alpha          =              1
    Radial Points          =             75
    Spherical Points       =            302
    Total Points           =          88848
    Total Blocks           =            712
    Max Points             =            256
    Max Functions          =            169

   => Loading Basis Set <=

    Name: (CC-PV(Q+D)Z AUX)
    Role: JKFIT
    Keyword: DF_BASIS_SCF
    atoms 1-2 entry C          line   137 file /work/zw18965/.conda/envs/p4env/share/psi4/basis/cc-pvqz-jkfit.gbs 
    atoms 3-4 entry H          line    51 file /work/zw18965/.conda/envs/p4env/share/psi4/basis/cc-pvqz-jkfit.gbs 

   => Loading Basis Set <=

    Name: CC-PV(Q+D)Z
    Role: ORBITAL
    Keyword: BASIS
    atoms 1-2 entry C          line   249 file /work/zw18965/.conda/envs/p4env/share/psi4/basis/cc-pv_qpd_z.gbs 
    atoms 3-4 entry H          line    32 file /work/zw18965/.conda/envs/p4env/share/psi4/basis/cc-pv_qpd_z.gbs 

  Reading orbitals from file 180, no projection.

  ==> Pre-Iterations <==

   -------------------------------------------------------
    Irrep   Nso     Nmo     Nalpha   Nbeta   Ndocc  Nsocc
   -------------------------------------------------------
     Ag        35      35       0       0       0       0
     B1g       10      10       0       0       0       0
     B2g       20      20       0       0       0       0
     B3g       20      20       0       0       0       0
     Au        10      10       0       0       0       0
     B1u       35      35       0       0       0       0
     B2u       20      20       0       0       0       0
     B3u       20      20       0       0       0       0
   -------------------------------------------------------
    Total     170     170       7       7       7       0
   -------------------------------------------------------

  ==> Integral Setup <==

  ==> DiskDFJK: Density-Fitted J/K Matrices <==

    J tasked:                  Yes
    K tasked:                  Yes
    wK tasked:                 Yes
    Omega:               3.000E-01
    OpenMP threads:             24
    Integrals threads:          24
    Memory [MiB]:           102620
    Algorithm:                Core
    Integral Cache:           NONE
    Schwarz Cutoff:          1E-12
    Fitting Condition:       1E-10

   => Auxiliary Basis Set <=

  Basis Set: (CC-PV(Q+D)Z AUX)
    Blend: CC-PVQZ-JKFIT
    Number of shells: 82
    Number of basis function: 314
    Number of Cartesian functions: 416
    Spherical Harmonics?: true
    Max angular momentum: 5

  Cached 100.0% of DFT collocation blocks in 0.368 [GiB].

  Minimum eigenvalue in the overlap matrix is 1.5003864406E-05.
  Using Symmetric Orthogonalization.

  SCF Guess: Orbitals guess was supplied from a previous computation.

  ==> Iterations <==

                           Total Energy        Delta E     RMS |[F,P]|

   @DF-RKS iter   0:   -77.31839080124978   -7.73184e+01   7.83924e-04 
   @DF-RKS iter   1:   -77.33567729276811   -1.72865e-02   5.80494e-05 DIIS
   @DF-RKS iter   2:   -77.33568259506201   -5.30229e-06   2.42836e-05 DIIS
   @DF-RKS iter   3:   -77.33568356208407   -9.67022e-07   4.54725e-06 DIIS
   @DF-RKS iter   4:   -77.33568361191838   -4.98343e-08   1.08421e-06 DIIS
   @DF-RKS iter   5:   -77.33568361515557   -3.23719e-09   9.19742e-08 DIIS
   @DF-RKS iter   6:   -77.33568361520530   -4.97238e-11   1.32254e-08 DIIS
   @DF-RKS iter   7:   -77.33568361520629   -9.94760e-13   1.59088e-09 DIIS
  Energy and wave function converged.


  ==> Post-Iterations <==

    Orbital Energies [Eh]
    ---------------------

    Doubly Occupied:                                                      

       1Ag   -10.276146     1B1u  -10.273456     2Ag    -0.886136  
       2B1u   -0.685152     3Ag    -0.608531     1B2u   -0.400467  
       1B3u   -0.400467  

    Virtual:                                                              

       1B2g    0.114817     1B3g    0.114817     3B1u    0.119428  
       4Ag     0.129877     5Ag     0.205763     2B2u    0.292555  
       2B3u    0.292555     4B1u    0.318823     5B1u    0.339894  
       2B3g    0.377925     2B2g    0.377925     6Ag     0.434831  
       1B1g    0.523386     7Ag     0.523386     3B2u    0.583664  
       3B3u    0.583664     8Ag     0.602937     6B1u    0.688818  
       1Au     0.759000     7B1u    0.759001     9Ag     0.764097  
       3B3g    0.783842     3B2g    0.783842     8B1u    0.825420  
       4B3g    1.057422     4B2g    1.057422     9B1u    1.079587  
      10Ag     1.093827     4B2u    1.106074     4B3u    1.106074  
      10B1u    1.360784     5B2u    1.376919     5B3u    1.376919  
      11B1u    1.514898    11Ag     1.529824     6B2u    1.677405  
       6B3u    1.677405    12Ag     1.709023     2B1g    1.709024  
       5B3g    1.764376     5B2g    1.764376    13Ag     1.780883  
       7B2u    1.806884     7B3u    1.806884     3B1g    1.856718  
      14Ag     1.856720     6B3g    1.958182     6B2g    1.958182  
       2Au     1.996719    12B1u    1.996724     7B3g    2.049965  
       7B2g    2.049965    15Ag     2.079386    13B1u    2.168257  
       3Au     2.219130    14B1u    2.219132     8B2u    2.266874  
       8B3u    2.266874    16Ag     2.519978    15B1u    2.528306  
       8B3g    2.577953     8B2g    2.577953     4B1g    2.618341  
      17Ag     2.618347    16B1u    2.638786     9B2u    2.918184  
       9B3u    2.918184     4Au     3.171330    17B1u    3.171332  
      18Ag     3.194701    18B1u    3.471921     9B3g    3.513189  
       9B2g    3.513189    19Ag     3.736523    10B3g    3.766941  
      10B2g    3.766941    19B1u    4.117689    10B3u    4.276911  
      10B2u    4.276911    20B1u    4.318848    20Ag     4.482965  
      11B3u    4.536003    11B2u    4.536003     5B1g    4.751965  
      21Ag     4.751965     5Au     5.138234    21B1u    5.138234  
       6B1g    5.214695    22Ag     5.214697    12B3u    5.223528  
      12B2u    5.223528    23Ag     5.266217    11B3g    5.434134  
      11B2g    5.434134    13B2u    5.486943    13B3u    5.486943  
       6Au     5.637148    22B1u    5.637152     7B1g    5.666532  
      24Ag     5.666532    14B3u    5.726473    14B2u    5.726473  
[...]

  ==> Primary Basis <==

  Basis Set: CC-PV(Q+D)Z
    Blend: CC-PV(Q+D)Z
    Number of shells: 50
    Number of basis function: 170
    Number of Cartesian functions: 210
    Spherical Harmonics?: true
    Max angular momentum: 4

  ==> DFT Potential <==

   => Composite Functional: WB97X-V <= 

    wB97X-V Hyb-GGA Exchange-Correlation Functional

    N. Mardirossian and M. Head-Gordon, Phys. Chem. Chem. Phys. 16, 9904 (2014)

    Deriv               =              1
    GGA                 =           TRUE
    Meta                =          FALSE

    Exchange Hybrid     =           TRUE
    MP2 Hybrid          =          FALSE

   => Exchange-Correlation Functionals <=

    1.0000   wB97X-V range-separated functional

   => Exact (HF) Exchange <=

    0.8330            HF,LR [omega = 0.3000]
    0.1670               HF 

   => VV10 Non-Local Parameters <=

    VV10 B              =     6.0000E+00
    VV10 C              =     1.0000E-02

   => Molecular Quadrature <=

    Radial Scheme          =       TREUTLER
    Pruning Scheme         =           FLAT
    Nuclear Scheme         =       TREUTLER

    BS radius alpha        =              1
    Pruning alpha          =              1
    Radial Points          =             75
    Spherical Points       =            302
    Total Points           =          88844
    Total Blocks           =            706
    Max Points             =            255
    Max Functions          =            169

   => Loading Basis Set <=

    Name: (CC-PV(Q+D)Z AUX)
    Role: JKFIT
    Keyword: DF_BASIS_SCF
    atoms 1-2 entry C          line   137 file /work/zw18965/.conda/envs/p4env/share/psi4/basis/cc-pvqz-jkfit.gbs 
    atoms 3-4 entry H          line    51 file /work/zw18965/.conda/envs/p4env/share/psi4/basis/cc-pvqz-jkfit.gbs 

  ==> Pre-Iterations <==

   -------------------------------------------------------
    Irrep   Nso     Nmo     Nalpha   Nbeta   Ndocc  Nsocc
   -------------------------------------------------------
     A1        55      55       0       0       0       0
     A2        30      30       0       0       0       0
     B1        30      30       0       0       0       0
     B2        55      55       0       0       0       0
   -------------------------------------------------------
    Total     170     170       7       7       7       0
   -------------------------------------------------------

  ==> Integral Setup <==

  ==> DiskDFJK: Density-Fitted J/K Matrices <==

    J tasked:                  Yes
    K tasked:                  Yes
    wK tasked:                 Yes
    Omega:               3.000E-01
    OpenMP threads:             24
    Integrals threads:          24
    Memory [MiB]:           102620
    Algorithm:                Core
    Integral Cache:           NONE
    Schwarz Cutoff:          1E-12
    Fitting Condition:       1E-10

   => Auxiliary Basis Set <=

  Basis Set: (CC-PV(Q+D)Z AUX)
    Blend: CC-PVQZ-JKFIT
    Number of shells: 82
    Number of basis function: 314
    Number of Cartesian functions: 416
    Spherical Harmonics?: true
    Max angular momentum: 5

  Cached 100.0% of DFT collocation blocks in 0.368 [GiB].

  Minimum eigenvalue in the overlap matrix is 1.5079288428E-05.
  Using Symmetric Orthogonalization.

  SCF Guess: Superposition of Atomic Densities via on-the-fly atomic UHF.

  ==> Iterations <==

                           Total Energy        Delta E     RMS |[F,P]|

   @DF-RKS iter SAD:   -76.48708231535498   -7.64871e+01   0.00000e+00 
   @DF-RKS iter   1:   -77.24274230023593   -7.55660e-01   5.17525e-03 DIIS
   @DF-RKS iter   2:   -77.30527615891215   -6.25339e-02   2.90451e-03 DIIS
   @DF-RKS iter   3:   -77.33563090307176   -3.03547e-02   9.61550e-05 DIIS
   @DF-RKS iter   4:   -77.33568479562156   -5.38925e-05   1.07209e-05 DIIS
   @DF-RKS iter   5:   -77.33568589524459   -1.09962e-06   1.39239e-06 DIIS
   @DF-RKS iter   6:   -77.33568591671199   -2.14674e-08   3.20582e-07 DIIS
   @DF-RKS iter   7:   -77.33568591780373   -1.09173e-09   3.75393e-08 DIIS
   @DF-RKS iter   8:   -77.33568591781447   -1.07434e-11   4.73120e-09 DIIS
   @DF-RKS iter   9:   -77.33568591781459   -1.13687e-13   7.06905e-10 DIIS
   @DF-RKS iter  10:   -77.33568591781476   -1.70530e-13   1.47250e-10 DIIS
   @DF-RKS iter  11:   -77.33568591781462    1.42109e-13   1.35172e-11 DIIS
  Energy and wave function converged.


  ==> Post-Iterations <==

    Orbital Energies [Eh]
    ---------------------

    Doubly Occupied:                                                      

       1A1   -10.276446     1B2   -10.273779     2A1    -0.885961  
       2B2    -0.685411     3A1    -0.608611     1B1    -0.400290  
       4A1    -0.400290  

    Virtual:                                                              

       3B2     0.114523     1A2     0.114529     4B2     0.119393  
       5A1     0.129865     6A1     0.205805     7A1     0.292609  
       2B1     0.292609     5B2     0.318549     6B2     0.340031  
       2A2     0.377829     7B2     0.377835     8A1     0.434903  
       3B1     0.523338     9A1     0.523338    10A1     0.583534  
       4B1     0.583569    11A1     0.602965     8B2     0.688709  
       3A2     0.758864     9B2     0.758865    12A1     0.764140  
       4A2     0.783722    10B2     0.783725    11B2     0.824768  
      12B2     1.057699     5A2     1.057700    13B2     1.079427  
      13A1     1.093963     5B1     1.105732    14A1     1.105734  
      14B2     1.359260    15A1     1.377136     6B1     1.377137  
      15B2     1.515224    16A1     1.529669     7B1     1.677408  
      17A1     1.677408    18A1     1.708844     8B1     1.708845  
      16B2     1.764257     6A2     1.764258    19A1     1.781137  
       9B1     1.806720    20A1     1.806727    10B1     1.856701  
      21A1     1.856703    17B2     1.957364     7A2     1.957374  
       8A2     1.996793    18B2     1.996798     9A2     2.049577  
      19B2     2.049577    22A1     2.079269    20B2     2.167966  
      10A2     2.218862    21B2     2.218864    23A1     2.266261  
      11B1     2.266266    24A1     2.520171    22B2     2.526855  
      23B2     2.577873    11A2     2.577885    12B1     2.618022  
      25A1     2.618029    24B2     2.638334    26A1     2.917791  
      13B1     2.917793    12A2     3.170710    25B2     3.170712  
      27A1     3.194324    26B2     3.472361    13A2     3.512820  
      27B2     3.512835    28A1     3.737025    28B2     3.767407  
      14A2     3.767412    29B2     4.116353    29A1     4.276606  
      14B1     4.276614    30B2     4.317599    30A1     4.483097  
      31A1     4.535454    15B1     4.535454    16B1     4.752398  
      32A1     4.752398    15A2     5.137468    31B2     5.137468  
      17B1     5.213824    33A1     5.213826    34A1     5.223813  
      18B1     5.223821    35A1     5.267404    16A2     5.433073  
      32B2     5.433073    19B1     5.485548    36A1     5.485555  
      17A2     5.638194    33B2     5.638199    20B1     5.666468  
      37A1     5.666468    21B1     5.726645    38A1     5.726647  
      34B2     5.806411    18A2     5.806414    39A1     5.892993  
      40A1     5.920552    22B1     5.920552    35B2     6.012338  
      19A2     6.018420    36B2     6.018424    23B1     6.096194  
      41A1     6.096204    37B2     6.135621    20A2     6.135621  
      24B1     6.175557    42A1     6.175557    21A2     6.327825  
      38B2     6.327833    22A2     6.573209    39B2     6.573209  
      43A1     6.867105    40B2     7.063701    23A2     7.066256  
      41B2     7.066262    24A2     7.074783    42B2     7.074871  
      43B2     7.329793    44A1     7.546649    25A2     7.703096  
      44B2     7.703102    25B1     7.712861    45A1     7.712865  
      26B1     7.809016    46A1     7.809030    47A1     7.910511  
      27B1     7.910530    26A2     8.008734    45B2     8.008760  
      48A1     8.120843    28B1     8.183274    49A1     8.183282  
      46B2     8.240941    47B2     8.573609    27A2     8.591579  
      48B2     8.591819    28A2     9.088749    49B2     9.088750  
      50A1     9.179271    29B1     9.179675    50B2     9.206984  
      51A1     9.215253    51B2     9.946334    29A2     9.946349  
      52B2    10.467460    30A2    11.373460    53B2    11.373465  
      52A1    11.462337    53A1    11.516323    30B1    11.516353  
      54A1    11.929349    54B2    13.846148    55A1    23.284935  
      55B2    26.583728  

    Final Occupation by Irrep:
             A1    A2    B1    B2 
    DOCC [     4,    0,    1,    2 ]

  @DF-RKS Final Energy:   -77.33568591781462

   => Energetics <=

    Nuclear Repulsion Energy =             24.8659489271653626
    One-Electron Energy =                -152.1026130475688092
    Two-Electron Energy =                  57.7373466200499976
    DFT Exchange-Correlation Energy =      -7.8941015923522189
    Empirical Dispersion Energy =           0.0000000000000000
    VV10 Nonlocal Energy =                  0.0577331748910547
    Total Energy =                        -77.3356859178146010

Computation Completed


Properties will be evaluated at   0.000000,   0.000000,   0.000000 [a0]

Properties computed using the SCF density matrix

  Nuclear Dipole Moment: [e a0]
     X:     0.0034      Y:     0.0000      Z:    -0.0000

  Electronic Dipole Moment: [e a0]
     X:    -0.0018      Y:     0.0000      Z:     0.0000

  Dipole Moment: [e a0]
     X:     0.0016      Y:     0.0000      Z:    -0.0000     Total:     0.0016

  Dipole Moment: [D]
     X:     0.0040      Y:     0.0000      Z:    -0.0000     Total:     0.0040


*** tstop() called on bp1-compute00065.data.bp.acrc.priv at Tue Apr 27 16:58:58 2021
Module time:
	user time   =     100.99 seconds =       1.68 minutes
	system time =       2.56 seconds =       0.04 minutes
	total time  =          4 seconds =       0.07 minutes
Total time:
	user time   =    2790.60 seconds =      46.51 minutes
	system time =      84.64 seconds =       1.41 minutes
	total time  =        127 seconds =       2.12 minutes

         ----------------------------------------------------------
                                   FINDIF
                     R. A. King and Jonathon Misiewicz
         ---------------------------------------------------------

  Computing second-derivative from energies using projected, 
  symmetry-adapted, cartesian coordinates.

  12 energies passed in, including the reference geometry.
    Using 3-point formula.
    Energy without displacement:  -77.3356862079
    Check energies below for precision!
    0: -1        :       -77.3356832069
    0: 1         :       -77.3356835234
    1: -1        :       -77.3356810786
    1: 1         :       -77.3356811644
    0: 1, 1: 1   :       -77.3356754572
    0: -1, 1: -1 :       -77.3356750241
    2: -1        :       -77.3356859759
    3: -1        :       -77.3356859791
    4: -1        :       -77.3356806840
    5: -1        :       -77.3356859161
    6: -1        :       -77.3356859178

-------------------------------------------------------------


  ==> Harmonic Vibrational Analysis <==

  non-mass-weighted Hessian:       Symmetric? True   Hermitian? True   Lin Dep Dim?  5 (0)
  projection of translations (True) and rotations (True) removed 5 degrees of freedom (5)
  total projector:                 Symmetric? True   Hermitian? True   Lin Dep Dim?  5 (5)
  mass-weighted Hessian:           Symmetric? True   Hermitian? True   Lin Dep Dim?  5 (0)
  pre-proj  low-frequency mode:    0.0000i [cm^-1]
  pre-proj  low-frequency mode:    0.0000i [cm^-1]
  pre-proj  low-frequency mode:    0.0000i [cm^-1]
  pre-proj  low-frequency mode:    0.0000  [cm^-1]
  pre-proj  low-frequency mode:    0.0000  [cm^-1]
  pre-proj  all modes:['0.0000i' '0.0000i' '0.0000i' '0.0000' '0.0000' '695.5843' '700.4119'
 '783.1566' '785.4045' '2095.0502' '3417.2427' '3517.5320']
  projected mass-weighted Hessian: Symmetric? True   Hermitian? True   Lin Dep Dim?  5 (5)
  post-proj low-frequency mode:    0.0001i [cm^-1] (TR)
  post-proj low-frequency mode:    0.0000i [cm^-1] (TR)
  post-proj low-frequency mode:    0.0000i [cm^-1] (TR)
  post-proj low-frequency mode:    0.0000i [cm^-1] (TR)
  post-proj low-frequency mode:    0.0000i [cm^-1] (TR)
  post-proj  all modes:['0.0001i' '0.0000i' '0.0000i' '0.0000i' '0.0000i' '695.5843' '700.4119'
 '783.1566' '785.4045' '2095.0502' '3417.2427' '3517.5320']

  Vibration                       6                   7                   8           
  Freq [cm^-1]                 695.5843            700.4119            783.1566       
  Irrep                          B3g                 B2g                 B3u          
  Reduced mass [u]              1.5772              1.5772              1.0848        
  Force const [mDyne/A]         0.4496              0.4559              0.3920        
  Turning point v=0 [a0]        0.3313              0.3301              0.3765        
  RMS dev v=0 [a0 u^1/2]        0.2942              0.2932              0.2773        
  Char temp [K]               1000.7909           1007.7367           1126.7880       
  ----------------------------------------------------------------------------------
      1   C                0.00  0.16 -0.00    0.16 -0.00  0.00   -0.06 -0.00  0.00   
      2   C                0.00 -0.16 -0.00   -0.16  0.00  0.00   -0.06 -0.00  0.00   
      3   H                0.00  0.69 -0.00    0.69 -0.00  0.00    0.70  0.00  0.00   
      4   H               -0.00 -0.69 -0.00   -0.69  0.00  0.00    0.70  0.00  0.00   

  Vibration                       9                   10                  11          
  Freq [cm^-1]                 785.4045           2095.0502           3417.2427       
  Irrep                          B2u                  Ag                 B1u          
  Reduced mass [u]              1.0848              3.7341              1.0848        
  Force const [mDyne/A]         0.3943              9.6566              7.4638        
  Turning point v=0 [a0]        0.3759              0.1241              0.1802        
  RMS dev v=0 [a0 u^1/2]        0.2769              0.1695              0.1327        
  Char temp [K]               1130.0222           3014.3107           4916.6514       
  ----------------------------------------------------------------------------------
      1   C                0.00 -0.06 -0.00    0.00  0.00  0.35   -0.00  0.00 -0.06   
      2   C                0.00 -0.06 -0.00   -0.00 -0.00 -0.35   -0.00 -0.00 -0.06   
      3   H               -0.00  0.70 -0.00   -0.00  0.00 -0.61   -0.00  0.00  0.70   
      4   H               -0.00  0.70 -0.00    0.00 -0.00  0.61    0.00 -0.00  0.70   

  Vibration                       12          
  Freq [cm^-1]                3517.5320       
  Irrep                           Ag          
  Reduced mass [u]              1.2380        
  Force const [mDyne/A]         9.0249        
  Turning point v=0 [a0]        0.1663        
  RMS dev v=0 [a0 u^1/2]        0.1308        
  Char temp [K]               5060.9454       
  ----------------------------------------------------------------------------------
      1   C                0.00  0.00  0.10   
      2   C                0.00 -0.00 -0.10   
      3   H               -0.00  0.00  0.70   
      4   H               -0.00  0.00 -0.70   

  ==> Thermochemistry Components <==

  Entropy, S
    Electronic S            0.000 [cal/(mol K)]        0.000 [J/(mol K)]       0.00000000 [mEh/K] (multiplicity = 1)
    Translational S        35.704 [cal/(mol K)]      149.387 [J/(mol K)]       0.05689862 [mEh/K] (mol. weight = 26.0157 [u], P = 101325.00 [Pa])
    Rotational S           10.861 [cal/(mol K)]       45.442 [J/(mol K)]       0.01730779 [mEh/K] (symmetry no. = 2)
    Vibrational S           1.059 [cal/(mol K)]        4.430 [J/(mol K)]       0.00168733 [mEh/K]
  Total S                  47.624 [cal/(mol K)]      199.259 [J/(mol K)]       0.07589374 [mEh/K]
  Correction S              0.000 [cal/(mol K)]        0.000 [J/(mol K)]       0.00000000 [mEh/K]

  Constant volume heat capacity, Cv
    Electronic Cv           0.000 [cal/(mol K)]        0.000 [J/(mol K)]       0.00000000 [mEh/K]
    Translational Cv        2.981 [cal/(mol K)]       12.472 [J/(mol K)]       0.00475022 [mEh/K]
    Rotational Cv           1.987 [cal/(mol K)]        8.314 [J/(mol K)]       0.00316681 [mEh/K]
    Vibrational Cv          3.028 [cal/(mol K)]       12.671 [J/(mol K)]       0.00482617 [mEh/K]
  Total Cv                  7.996 [cal/(mol K)]       33.457 [J/(mol K)]       0.01274319 [mEh/K]
  Correction Cv             0.000 [cal/(mol K)]        0.000 [J/(mol K)]       0.00000000 [mEh/K]

  Constant pressure heat capacity, Cp
    Electronic Cp           0.000 [cal/(mol K)]        0.000 [J/(mol K)]       0.00000000 [mEh/K]
    Translational Cp        4.968 [cal/(mol K)]       20.786 [J/(mol K)]       0.00791703 [mEh/K]
    Rotational Cp           1.987 [cal/(mol K)]        8.314 [J/(mol K)]       0.00316681 [mEh/K]
    Vibrational Cp          3.028 [cal/(mol K)]       12.671 [J/(mol K)]       0.00482617 [mEh/K]
  Total Cp                  9.984 [cal/(mol K)]       41.772 [J/(mol K)]       0.01591000 [mEh/K]
  Correction Cp             0.000 [cal/(mol K)]        0.000 [J/(mol K)]       0.00000000 [mEh/K]

  ==> Thermochemistry Energy Analysis <==

  Raw electronic energy, E0
  Total E0, Electronic energy at well bottom at 0 [K]                  -77.33568621 [Eh]

  Zero-point energy, ZPE_vib = Sum_i nu_i / 2
    Electronic ZPE          0.000 [kcal/mol]        0.000 [kJ/mol]       0.00000000 [Eh]
    Translational ZPE       0.000 [kcal/mol]        0.000 [kJ/mol]       0.00000000 [Eh]
    Rotational ZPE          0.000 [kcal/mol]        0.000 [kJ/mol]       0.00000000 [Eh]
    Vibrational ZPE        17.147 [kcal/mol]       71.742 [kJ/mol]       0.02732521 [Eh]        5997.191 [cm^-1]
  Correction ZPE           17.147 [kcal/mol]       71.742 [kJ/mol]       0.02732521 [Eh]        5997.191 [cm^-1]
  Total ZPE, Electronic energy at 0 [K]                                -77.30836100 [Eh]

  Thermal Energy, E (includes ZPE)
    Electronic E            0.000 [kcal/mol]        0.000 [kJ/mol]       0.00000000 [Eh]
    Translational E         0.889 [kcal/mol]        3.718 [kJ/mol]       0.00141628 [Eh]
    Rotational E            0.592 [kcal/mol]        2.479 [kJ/mol]       0.00094418 [Eh]
    Vibrational E          17.394 [kcal/mol]       72.775 [kJ/mol]       0.02771866 [Eh]
  Correction E             18.875 [kcal/mol]       78.973 [kJ/mol]       0.03007912 [Eh]
  Total E, Electronic energy at  298.15 [K]                            -77.30560709 [Eh]

  Enthalpy, H_trans = E_trans + k_B * T
    Electronic H            0.000 [kcal/mol]        0.000 [kJ/mol]       0.00000000 [Eh]
    Translational H         1.481 [kcal/mol]        6.197 [kJ/mol]       0.00236046 [Eh]
    Rotational H            0.592 [kcal/mol]        2.479 [kJ/mol]       0.00094418 [Eh]
    Vibrational H          17.394 [kcal/mol]       72.775 [kJ/mol]       0.02771866 [Eh]
  Correction H             19.467 [kcal/mol]       81.452 [kJ/mol]       0.03102330 [Eh]
  Total H, Enthalpy at  298.15 [K]                                     -77.30466290 [Eh]

  Gibbs free energy, G = H - T * S
    Electronic G            0.000 [kcal/mol]        0.000 [kJ/mol]       0.00000000 [Eh]
    Translational G        -9.164 [kcal/mol]      -38.342 [kJ/mol]      -0.01460386 [Eh]
    Rotational G           -2.646 [kcal/mol]      -11.069 [kJ/mol]      -0.00421613 [Eh]
    Vibrational G          17.078 [kcal/mol]       71.455 [kJ/mol]       0.02721558 [Eh]
  Correction G              5.268 [kcal/mol]       22.043 [kJ/mol]       0.00839559 [Eh]
  Total G, Free enthalpy at  298.15 [K]                                -77.32729062 [Eh]

    Psi4 stopped on: Tuesday, 27 April 2021 04:58PM
    Psi4 wall time for execution: 0:02:07.89

*** Psi4 exiting successfully. Buy a developer a beer!
