
    -----------------------------------------------------------------------
          Psi4: An Open-Source Ab Initio Electronic Structure Package
                               Psi4 1.3.2 release

                         Git: Rev {HEAD} ecbda83 


    R. M. Parrish, L. A. Burns, D. G. A. Smith, A. C. Simmonett,
    A. E. DePrince III, E. G. Hohenstein, U. Bozkaya, A. Yu. Sokolov,
    R. Di Remigio, R. M. Richard, J. F. Gonthier, A. M. James,
    H. R. McAlexander, A. Kumar, M. Saitow, X. Wang, B. P. Pritchard,
    P. Verma, H. F. Schaefer III, K. Patkowski, R. A. King, E. F. Valeev,
    F. A. Evangelista, J. M. Turney, T. D. Crawford, and C. D. Sherrill,
    J. Chem. Theory Comput. 13(7) pp 3185--3197 (2017).
    (doi: 10.1021/acs.jctc.7b00174)


                         Additional Contributions by
    P. Kraus, H. Kruse, M. H. Lechner, M. C. Schieber, R. A. Shaw,
    A. Alenaizan, R. Galvelis, Z. L. Glick, S. Lehtola, and J. P. Misiewicz

    -----------------------------------------------------------------------


    Psi4 started on: Tuesday, 27 April 2021 04:59PM

    Process ID: 182456
    Host:       bp1-compute00140.data.bp.acrc.priv
    PSIDATADIR: /work/zw18965/.conda/envs/p4env/share/psi4
    Memory:     500.0 MiB
    Threads:    24
    
  ==> Input File <==

--------------------------------------------------------------------------
memory 144 GB

molecule {
0 1
C 0.0000000000 0.0000000000 0.0000000000
C 0.0000000000 0.0000000000 1.3342000000
H 0.9234041342 0.0000000000 1.8987335198
H -0.9234041342 0.0000000000 1.8987335198
H 0.9234041342 0.0000000000 -0.5645335198
H -0.9234041342 -0.0000000000 -0.5645335198
}

set dynamic_level 1
set basis cc-pV(Q+d)Z
 
optimize("wB97X-V")
frequencies("wB97X-V")
--------------------------------------------------------------------------

  Memory set to 134.110 GiB by Python driver.
gradient() will perform gradient computation by finite difference of analytic energies.

         ----------------------------------------------------------
                                   FINDIF
                     R. A. King and Jonathon Misiewicz
         ---------------------------------------------------------

  Using finite-differences of energies to determine gradients.
    Generating geometries for use with 3-point formula.
    Displacement size will be 5.00e-03.
    Number of atoms is 6.
    Number of symmetric SALCs is 3.
    Translations projected? 1. Rotations projected? 1.
    Number of geometries (including reference) is 7.

  //>>>>>>>>>>>>>>>>>>>>>>>>>>>>>>>>>>>//
  //    Loading displacement 1 of 7    //
  //<<<<<<<<<<<<<<<<<<<<<<<<<<<<<<<<<<<//

*** tstart() called on bp1-compute00140.data.bp.acrc.priv
*** at Tue Apr 27 16:59:11 2021

   => Loading Basis Set <=

    Name: CC-PV(Q+D)Z
    Role: ORBITAL
    Keyword: BASIS
    atoms 1-2 entry C          line   249 file /work/zw18965/.conda/envs/p4env/share/psi4/basis/cc-pv_qpd_z.gbs 
    atoms 3-6 entry H          line    32 file /work/zw18965/.conda/envs/p4env/share/psi4/basis/cc-pv_qpd_z.gbs 


         ---------------------------------------------------------
                                   SCF
               by Justin Turney, Rob Parrish, Andy Simmonett
                          and Daniel G. A. Smith
                              RKS Reference
                       24 Threads, 137329 MiB Core
         ---------------------------------------------------------

  ==> Geometry <==

    Molecular point group: d2h
    Full point group: D2h

    Geometry (in Angstrom), charge = 0, multiplicity = 1:

       Center              X                  Y                   Z               Mass       
    ------------   -----------------  -----------------  -----------------  -----------------
         C            0.000000000000    -0.000000000000    -0.667100000000    12.000000000000
         C            0.000000000000    -0.000000000000     0.667100000000    12.000000000000
         H            0.923404134200     0.000000000000     1.231633519800     1.007825032230
         H           -0.923404134200    -0.000000000000     1.231633519800     1.007825032230
         H            0.923404134200     0.000000000000    -1.231633519800     1.007825032230
         H           -0.923404134200    -0.000000000000    -1.231633519800     1.007825032230

  Running in d2h symmetry.

  Rotational constants: A =      4.90420  B =      1.00369  C =      0.83317 [cm^-1]
  Rotational constants: A = 147024.06889  B =  30089.78152  C =  24977.84391 [MHz]
  Nuclear repulsion =   33.374685413937769

  Charge       = 0
  Multiplicity = 1
  Electrons    = 16
  Nalpha       = 8
  Nbeta        = 8

  ==> Algorithm <==

  SCF Algorithm Type is DF.
  DIIS enabled.
  MOM disabled.
  Fractional occupation disabled.
  Guess Type is SAD.
  Energy threshold   = 1.00e-08
  Density threshold  = 1.00e-08
  Integral threshold = 0.00e+00

  ==> Primary Basis <==

  Basis Set: CC-PV(Q+D)Z
    Blend: CC-PV(Q+D)Z
    Number of shells: 70
    Number of basis function: 230
    Number of Cartesian functions: 280
    Spherical Harmonics?: true
    Max angular momentum: 4

  ==> DFT Potential <==

   => Composite Functional: WB97X-V <= 

    wB97X-V Hyb-GGA Exchange-Correlation Functional

    N. Mardirossian and M. Head-Gordon, Phys. Chem. Chem. Phys. 16, 9904 (2014)

    Deriv               =              1
    GGA                 =           TRUE
    Meta                =          FALSE

    Exchange Hybrid     =           TRUE
    MP2 Hybrid          =          FALSE

   => Exchange-Correlation Functionals <=

    1.0000   wB97X-V range-separated functional

   => Exact (HF) Exchange <=

    0.8330            HF,LR [omega = 0.3000]
    0.1670               HF 

   => VV10 Non-Local Parameters <=

    VV10 B              =     6.0000E+00
    VV10 C              =     1.0000E-02

   => Molecular Quadrature <=

    Radial Scheme          =       TREUTLER
    Pruning Scheme         =           FLAT
    Nuclear Scheme         =       TREUTLER

    BS radius alpha        =              1
    Pruning alpha          =              1
    Radial Points          =             75
    Spherical Points       =            302
    Total Points           =         134258
    Total Blocks           =           1096
    Max Points             =            256
    Max Functions          =            230

   => Loading Basis Set <=

    Name: (CC-PV(Q+D)Z AUX)
    Role: JKFIT
    Keyword: DF_BASIS_SCF
    atoms 1-2 entry C          line   137 file /work/zw18965/.conda/envs/p4env/share/psi4/basis/cc-pvqz-jkfit.gbs 
    atoms 3-6 entry H          line    51 file /work/zw18965/.conda/envs/p4env/share/psi4/basis/cc-pvqz-jkfit.gbs 

  ==> Pre-Iterations <==

   -------------------------------------------------------
    Irrep   Nso     Nmo     Nalpha   Nbeta   Ndocc  Nsocc
   -------------------------------------------------------
     Ag        42      42       0       0       0       0
     B1g       17      17       0       0       0       0
     B2g       33      33       0       0       0       0
     B3g       23      23       0       0       0       0
     Au        17      17       0       0       0       0
     B1u       42      42       0       0       0       0
     B2u       23      23       0       0       0       0
     B3u       33      33       0       0       0       0
   -------------------------------------------------------
    Total     230     230       8       8       8       0
   -------------------------------------------------------

  ==> Integral Setup <==

  ==> DiskDFJK: Density-Fitted J/K Matrices <==

    J tasked:                  Yes
    K tasked:                  Yes
    wK tasked:                 Yes
    Omega:               3.000E-01
    OpenMP threads:             24
    Integrals threads:          24
    Memory [MiB]:           102246
    Algorithm:                Core
    Integral Cache:           NONE
    Schwarz Cutoff:          1E-12
    Fitting Condition:       1E-10

   => Auxiliary Basis Set <=

  Basis Set: (CC-PV(Q+D)Z AUX)
    Blend: CC-PVQZ-JKFIT
    Number of shells: 108
    Number of basis function: 416
    Number of Cartesian functions: 548
    Spherical Harmonics?: true
    Max angular momentum: 5

  Cached 100.0% of DFT collocation blocks in 0.733 [GiB].

  Minimum eigenvalue in the overlap matrix is 1.0165232383E-04.
  Using Symmetric Orthogonalization.

  SCF Guess: Superposition of Atomic Densities via on-the-fly atomic UHF.

  ==> Iterations <==

                           Total Energy        Delta E     RMS |[F,P]|

   @DF-RKS iter SAD:   -77.86652742872363   -7.78665e+01   0.00000e+00 
   @DF-RKS iter   1:   -78.47355075043717   -6.07023e-01   5.75589e-03 DIIS
   @DF-RKS iter   2:   -78.54480614706755   -7.12554e-02   3.68929e-03 DIIS
   @DF-RKS iter   3:   -78.59296455819738   -4.81584e-02   1.67547e-04 DIIS
   @DF-RKS iter   4:   -78.59317574082483   -2.11183e-04   2.42644e-05 DIIS
   @DF-RKS iter   5:   -78.59318017017854   -4.42935e-06   3.92785e-06 DIIS
   @DF-RKS iter   6:   -78.59318028445261   -1.14274e-07   6.22539e-07 DIIS
   @DF-RKS iter   7:   -78.59318028844362   -3.99100e-09   7.07958e-08 DIIS
   @DF-RKS iter   8:   -78.59318028849074   -4.71232e-11   6.84476e-09 DIIS
  Energy and wave function converged.


  ==> Post-Iterations <==

    Orbital Energies [Eh]
    ---------------------

    Doubly Occupied:                                                      

       1Ag   -10.269096     1B1u  -10.268209     2Ag    -0.893363  
       2B1u   -0.702608     1B3u   -0.584630     3Ag    -0.527959  
       1B2g   -0.461100     1B2u   -0.376812  

    Virtual:                                                              

       1B3g    0.086778     4Ag     0.115754     3B1u    0.139616  
       2B3u    0.146307     2B2g    0.193919     5Ag     0.259227  
       4B1u    0.282174     2B2u    0.295710     3B3u    0.332304  
       6Ag     0.337595     2B3g    0.381042     4B3u    0.425979  
       7Ag     0.439836     5B1u    0.443233     6B1u    0.454244  
       1B1g    0.457626     3B2g    0.512495     7B1u    0.576110  
       1Au     0.603518     3B2u    0.640061     4B2g    0.667292  
       8Ag     0.714596     5B3u    0.741211     5B2g    0.796096  
       9Ag     0.799735     4B2u    0.839130     3B3g    0.855112  
       2B1g    0.894289     4B3g    0.923662     8B1u    0.931957  
       6B3u    0.948952     9B1u    1.050831     7B3u    1.056272  
      10Ag     1.076109    10B1u    1.106695    11Ag     1.112624  
       6B2g    1.123467    11B1u    1.150100     2Au     1.199286  
      12Ag     1.282692     5B2u    1.382189     7B2g    1.409723  
       5B3g    1.542536    12B1u    1.566708     8B3u    1.606763  
      13Ag     1.615796     9B3u    1.622661     8B2g    1.638549  
       3B1g    1.708994     6B2u    1.718590    14Ag     1.800282  
      10B3u    1.845790    13B1u    1.852902     7B2u    1.878864  
       9B2g    1.901991     3Au     1.902680    15Ag     1.907853  
       4B1g    1.967047     6B3g    1.971699    10B2g    2.037620  
      11B3u    2.081463     4Au     2.125925    14B1u    2.138394  
       7B3g    2.163363    16Ag     2.220251     8B2u    2.228048  
      15B1u    2.235781     5B1g    2.270601    12B3u    2.410151  
       9B2u    2.451804    16B1u    2.472597    11B2g    2.492546  
       5Au     2.506126    17Ag     2.518098     8B3g    2.539655  
      18Ag     2.550597    12B2g    2.552183    13B3u    2.666376  
       6B1g    2.679006    17B1u    2.682407    19Ag     2.755689  
      18B1u    2.822960    13B2g    2.858007     9B3g    2.902511  
      10B2u    2.929144    14B3u    3.046689    15B3u    3.088381  
      19B1u    3.090035    10B3g    3.158729    11B2u    3.175049  
      20Ag     3.187016     6Au     3.259618    14B2g    3.472602  
       7B1g    3.494247    20B1u    3.553873    16B3u    3.583114  
      21Ag     3.625721    22Ag     3.629150    15B2g    3.632181  
       7Au     3.704983    21B1u    3.737564    11B3g    3.848759  
      23Ag     3.897142    22B1u    3.923291    16B2g    3.937302  
      23B1u    4.316546    17B3u    4.364554    17B2g    4.406729  
      24Ag     4.908668    12B2u    4.922452    18B3u    4.983279  
      12B3g    5.077884     8B1g    5.089643    25Ag     5.130571  
      13B2u    5.169113     9B1g    5.227694    19B3u    5.450859  
      24B1u    5.509465     8Au     5.527080    10B1g    5.592161  
      26Ag     5.596464    18B2g    5.596590    13B3g    5.596978  
      14B2u    5.740809     9Au     5.778827    15B2u    5.781062  
      27Ag     5.840263    20B3u    5.858877    25B1u    5.861245  
      19B2g    5.912691    14B3g    5.956788    21B3u    5.989403  
      28Ag     6.035594    10Au     6.048451    20B2g    6.057331  
      22B3u    6.084602    15B3g    6.130722    11B1g    6.133562  
      26B1u    6.163326    16B2u    6.216075    17B2u    6.282549  
      21B2g    6.308590    27B1u    6.327828    29Ag     6.361516  
      23B3u    6.454468    11Au     6.482173    30Ag     6.495668  
      16B3g    6.520086    22B2g    6.520871    31Ag     6.626246  
      28B1u    6.637229    24B3u    6.691938    12B1g    6.794752  
      29B1u    6.863374    18B2u    6.902514    23B2g    7.025464  
      30B1u    7.050154    12Au     7.054516    17B3g    7.098857  
      19B2u    7.438195    18B3g    7.482283    25B3u    7.485233  
      31B1u    7.499652    32Ag     7.515974    13B1g    7.546873  
      24B2g    7.555056    33Ag     7.604287    13Au     7.616472  
      20B2u    7.629504    32B1u    7.711417    14B1g    7.716186  
      19B3g    7.727016    33B1u    7.760235    25B2g    7.811166  
      26B3u    7.864853    34Ag     7.943668    26B2g    8.116561  
      14Au     8.143126    27B3u    8.149768    35Ag     8.235791  
      34B1u    8.281149    21B2u    8.310526    15B1g    8.340886  
      20B3g    8.352242    27B2g    8.422466    35B1u    8.469338  
      36Ag     8.485184    16B1g    8.503732    28B3u    8.555262  
      22B2u    8.676195    29B3u    8.677719    15Au     8.691253  
      21B3g    8.702674    37Ag     8.733448    28B2g    8.763435  
      36B1u    8.991409    22B3g    9.045279    29B2g    9.080500  
      16Au     9.101922    37B1u    9.229987    38Ag     9.268753  
      30B3u    9.277001    38B1u    9.567254    23B2u    9.824949  
      17B1g    9.896509    31B3u    9.907965    39Ag     9.959681  
      30B2g   10.060787    17Au    10.118788    39B1u   10.180820  
      40Ag    10.269512    23B3g   10.284878    31B2g   10.495244  
      32B3u   10.830250    32B2g   11.143028    40B1u   11.539056  
      41Ag    11.583453    41B1u   11.739693    33B3u   12.398317  
      33B2g   12.853433    42B1u   24.504822    42Ag    24.543091  

    Final Occupation by Irrep:
             Ag   B1g   B2g   B3g    Au   B1u   B2u   B3u 
    DOCC [     3,    0,    1,    0,    0,    2,    1,    1 ]

  @DF-RKS Final Energy:   -78.59318028849074

   => Energetics <=

    Nuclear Repulsion Energy =             33.3746854139377689
    One-Electron Energy =                -170.2975703241258145
    Two-Electron Energy =                  66.5806786292126844
    DFT Exchange-Correlation Energy =      -8.3158894016887643
    Empirical Dispersion Energy =           0.0000000000000000
    VV10 Nonlocal Energy =                  0.0649153941733657
    Total Energy =                        -78.5931802884907427

Computation Completed


Properties will be evaluated at   0.000000,   0.000000,   0.000000 [a0]

Properties computed using the SCF density matrix

  Nuclear Dipole Moment: [e a0]
     X:     0.0000      Y:     0.0000      Z:     0.0000

  Electronic Dipole Moment: [e a0]
     X:     0.0000      Y:     0.0000      Z:     0.0000

  Dipole Moment: [e a0]
     X:     0.0000      Y:     0.0000      Z:     0.0000     Total:     0.0000

  Dipole Moment: [D]
     X:     0.0000      Y:     0.0000      Z:     0.0000     Total:     0.0000


*** tstop() called on bp1-compute00140.data.bp.acrc.priv at Tue Apr 27 16:59:18 2021
Module time:
	user time   =     139.09 seconds =       2.32 minutes
	system time =       7.86 seconds =       0.13 minutes
	total time  =          7 seconds =       0.12 minutes
Total time:
	user time   =     139.09 seconds =       2.32 minutes
	system time =       7.86 seconds =       0.13 minutes
	total time  =          7 seconds =       0.12 minutes

  //>>>>>>>>>>>>>>>>>>>>>>>>>>>>>>>>>>>//
  //    Loading displacement 2 of 7    //
  //<<<<<<<<<<<<<<<<<<<<<<<<<<<<<<<<<<<//

*** tstart() called on bp1-compute00140.data.bp.acrc.priv
*** at Tue Apr 27 16:59:18 2021

   => Loading Basis Set <=

    Name: CC-PV(Q+D)Z
    Role: ORBITAL
    Keyword: BASIS
    atoms 1-2 entry C          line   249 file /work/zw18965/.conda/envs/p4env/share/psi4/basis/cc-pv_qpd_z.gbs 
    atoms 3-6 entry H          line    32 file /work/zw18965/.conda/envs/p4env/share/psi4/basis/cc-pv_qpd_z.gbs 


         ---------------------------------------------------------
                                   SCF
               by Justin Turney, Rob Parrish, Andy Simmonett
                          and Daniel G. A. Smith
                              RKS Reference
                       24 Threads, 137329 MiB Core
         ---------------------------------------------------------

  ==> Geometry <==

    Molecular point group: d2h
    Full point group: D2h

    Geometry (in Angstrom), charge = 0, multiplicity = 1:

       Center              X                  Y                   Z               Mass       
    ------------   -----------------  -----------------  -----------------  -----------------
         C            0.000000000000    -0.000000000000    -0.667640089229    12.000000000000
         C            0.000000000000    -0.000000000000     0.667640089229    12.000000000000
         H            0.923404134200     0.000000000000     1.231633519800     1.007825032230
         H           -0.923404134200    -0.000000000000     1.231633519800     1.007825032230
         H            0.923404134200     0.000000000000    -1.231633519800     1.007825032230
         H           -0.923404134200    -0.000000000000    -1.231633519800     1.007825032230

  Running in d2h symmetry.

  Rotational constants: A =      4.90420  B =      1.00265  C =      0.83246 [cm^-1]
  Rotational constants: A = 147024.06889  B =  30058.81822  C =  24956.50389 [MHz]
  Nuclear repulsion =   33.364805451995331

  Charge       = 0
  Multiplicity = 1
  Electrons    = 16
  Nalpha       = 8
  Nbeta        = 8

  ==> Algorithm <==

  SCF Algorithm Type is DF.
  DIIS enabled.
  MOM disabled.
  Fractional occupation disabled.
  Guess Type is SAD.
  Energy threshold   = 1.00e-08
  Density threshold  = 1.00e-08
  Integral threshold = 0.00e+00

  ==> Primary Basis <==

  Basis Set: CC-PV(Q+D)Z
    Blend: CC-PV(Q+D)Z
    Number of shells: 70
    Number of basis function: 230
    Number of Cartesian functions: 280
    Spherical Harmonics?: true
    Max angular momentum: 4

  ==> DFT Potential <==

   => Composite Functional: WB97X-V <= 

    wB97X-V Hyb-GGA Exchange-Correlation Functional

    N. Mardirossian and M. Head-Gordon, Phys. Chem. Chem. Phys. 16, 9904 (2014)

    Deriv               =              1
    GGA                 =           TRUE
    Meta                =          FALSE

    Exchange Hybrid     =           TRUE
    MP2 Hybrid          =          FALSE

   => Exchange-Correlation Functionals <=

    1.0000   wB97X-V range-separated functional

   => Exact (HF) Exchange <=

    0.8330            HF,LR [omega = 0.3000]
    0.1670               HF 

   => VV10 Non-Local Parameters <=

    VV10 B              =     6.0000E+00
    VV10 C              =     1.0000E-02

   => Molecular Quadrature <=

    Radial Scheme          =       TREUTLER
    Pruning Scheme         =           FLAT
    Nuclear Scheme         =       TREUTLER

    BS radius alpha        =              1
    Pruning alpha          =              1
    Radial Points          =             75
    Spherical Points       =            302
    Total Points           =         134258
    Total Blocks           =           1096
    Max Points             =            256
    Max Functions          =            230

   => Loading Basis Set <=

    Name: (CC-PV(Q+D)Z AUX)
    Role: JKFIT
    Keyword: DF_BASIS_SCF
    atoms 1-2 entry C          line   137 file /work/zw18965/.conda/envs/p4env/share/psi4/basis/cc-pvqz-jkfit.gbs 
    atoms 3-6 entry H          line    51 file /work/zw18965/.conda/envs/p4env/share/psi4/basis/cc-pvqz-jkfit.gbs 

  ==> Pre-Iterations <==

   -------------------------------------------------------
    Irrep   Nso     Nmo     Nalpha   Nbeta   Ndocc  Nsocc
   -------------------------------------------------------
     Ag        42      42       0       0       0       0
     B1g       17      17       0       0       0       0
     B2g       33      33       0       0       0       0
     B3g       23      23       0       0       0       0
     Au        17      17       0       0       0       0
     B1u       42      42       0       0       0       0
     B2u       23      23       0       0       0       0
     B3u       33      33       0       0       0       0
   -------------------------------------------------------
    Total     230     230       8       8       8       0
   -------------------------------------------------------

  ==> Integral Setup <==

  ==> DiskDFJK: Density-Fitted J/K Matrices <==

    J tasked:                  Yes
    K tasked:                  Yes
    wK tasked:                 Yes
    Omega:               3.000E-01
    OpenMP threads:             24
    Integrals threads:          24
    Memory [MiB]:           102246
    Algorithm:                Core
    Integral Cache:           NONE
    Schwarz Cutoff:          1E-12
    Fitting Condition:       1E-10

   => Auxiliary Basis Set <=

  Basis Set: (CC-PV(Q+D)Z AUX)
    Blend: CC-PVQZ-JKFIT
    Number of shells: 108
    Number of basis function: 416
    Number of Cartesian functions: 548
    Spherical Harmonics?: true
    Max angular momentum: 5

  Cached 100.0% of DFT collocation blocks in 0.733 [GiB].

  Minimum eigenvalue in the overlap matrix is 1.0180556967E-04.
  Using Symmetric Orthogonalization.

  SCF Guess: Superposition of Atomic Densities via on-the-fly atomic UHF.

  ==> Iterations <==

                           Total Energy        Delta E     RMS |[F,P]|

   @DF-RKS iter SAD:   -77.86553837383894   -7.78655e+01   0.00000e+00 
   @DF-RKS iter   1:   -78.47381000422460   -6.08272e-01   5.74790e-03 DIIS
   @DF-RKS iter   2:   -78.54497412864400   -7.11641e-02   3.68173e-03 DIIS
   @DF-RKS iter   3:   -78.59293559210623   -4.79615e-02   1.67441e-04 DIIS
   @DF-RKS iter   4:   -78.59314660220680   -2.11010e-04   2.42925e-05 DIIS
   @DF-RKS iter   5:   -78.59315103480010   -4.43259e-06   3.93586e-06 DIIS
   @DF-RKS iter   6:   -78.59315114953117   -1.14731e-07   6.22662e-07 DIIS
   @DF-RKS iter   7:   -78.59315115353080   -3.99963e-09   7.08410e-08 DIIS
   @DF-RKS iter   8:   -78.59315115357816   -4.73648e-11   6.85039e-09 DIIS
  Energy and wave function converged.


  ==> Post-Iterations <==

    Orbital Energies [Eh]
    ---------------------

    Doubly Occupied:                                                      

       1Ag   -10.269202     1B1u  -10.268321     2Ag    -0.893175  
       2B1u   -0.702751     1B3u   -0.584659     3Ag    -0.527768  
       1B2g   -0.461366     1B2u   -0.376614  

    Virtual:                                                              

       1B3g    0.086564     4Ag     0.115750     3B1u    0.139625  
       2B3u    0.146361     2B2g    0.193890     5Ag     0.259244  
       4B1u    0.282108     2B2u    0.295778     3B3u    0.332336  
       6Ag     0.337638     2B3g    0.380983     4B3u    0.426156  
       7Ag     0.439851     5B1u    0.443205     6B1u    0.454177  
       1B1g    0.457640     3B2g    0.512455     7B1u    0.575605  
       1Au     0.603486     3B2u    0.639972     4B2g    0.667317  
       8Ag     0.714668     5B3u    0.741109     5B2g    0.795939  
       9Ag     0.799879     4B2u    0.838977     3B3g    0.855144  
       2B1g    0.894316     4B3g    0.923610     8B1u    0.931418  
       6B3u    0.948793     9B1u    1.050616     7B3u    1.056424  
      10Ag     1.076148    10B1u    1.106628    11Ag     1.112546  
       6B2g    1.123594    11B1u    1.149948     2Au     1.199232  
      12Ag     1.282916     5B2u    1.382237     7B2g    1.409571  
       5B3g    1.542414    12B1u    1.566806     8B3u    1.606838  
      13Ag     1.615339     9B3u    1.622473     8B2g    1.639056  
       3B1g    1.709077     6B2u    1.718444    14Ag     1.800364  
      10B3u    1.845611    13B1u    1.852537     7B2u    1.878890  
       9B2g    1.901702     3Au     1.902658    15Ag     1.907970  
       4B1g    1.966776     6B3g    1.971853    10B2g    2.037384  
      11B3u    2.081125     4Au     2.125614    14B1u    2.138245  
       7B3g    2.163086    16Ag     2.220279     8B2u    2.227840  
      15B1u    2.235550     5B1g    2.270550    12B3u    2.410567  
       9B2u    2.451752    16B1u    2.472725    11B2g    2.492388  
       5Au     2.506035    17Ag     2.518156     8B3g    2.539559  
      18Ag     2.550961    12B2g    2.551911    13B3u    2.666259  
       6B1g    2.678983    17B1u    2.682063    19Ag     2.755269  
      18B1u    2.822814    13B2g    2.857653     9B3g    2.902624  
      10B2u    2.928991    14B3u    3.046658    15B3u    3.088150  
      19B1u    3.089342    10B3g    3.157836    11B2u    3.174865  
      20Ag     3.185833     6Au     3.259461    14B2g    3.472785  
       7B1g    3.494532    20B1u    3.554401    16B3u    3.583053  
      21Ag     3.625648    22Ag     3.629224    15B2g    3.632173  
       7Au     3.705117    21B1u    3.737341    11B3g    3.848327  
      23Ag     3.896502    22B1u    3.923450    16B2g    3.937506  
      23B1u    4.316367    17B3u    4.364598    17B2g    4.406013  
      24Ag     4.908062    12B2u    4.921775    18B3u    4.983289  
      12B3g    5.078488     8B1g    5.089343    25Ag     5.130671  
      13B2u    5.169131     9B1g    5.228305    19B3u    5.450537  
      24B1u    5.508750     8Au     5.527179    10B1g    5.592312  
      13B3g    5.596185    18B2g    5.596507    26Ag     5.596931  
      14B2u    5.740674     9Au     5.778431    15B2u    5.781136  
      27Ag     5.840638    20B3u    5.858793    25B1u    5.859959  
      19B2g    5.913047    14B3g    5.956572    21B3u    5.989194  
      28Ag     6.035467    10Au     6.047961    20B2g    6.056604  
      22B3u    6.086056    15B3g    6.130816    11B1g    6.133492  
      26B1u    6.163548    16B2u    6.216432    17B2u    6.283930  
      21B2g    6.309227    27B1u    6.326830    29Ag     6.361436  
      23B3u    6.453962    11Au     6.482124    30Ag     6.496189  
      16B3g    6.518838    22B2g    6.519570    31Ag     6.625644  
      28B1u    6.636840    24B3u    6.691673    12B1g    6.795126  
      29B1u    6.863100    18B2u    6.901172    23B2g    7.025631  
      30B1u    7.047237    12Au     7.053988    17B3g    7.097596  
      19B2u    7.437400    18B3g    7.482643    25B3u    7.485713  
      31B1u    7.499055    32Ag     7.516250    13B1g    7.547497  
      24B2g    7.555209    33Ag     7.604701    13Au     7.616486  
      20B2u    7.628818    32B1u    7.711508    14B1g    7.715995  
      19B3g    7.727072    33B1u    7.760771    25B2g    7.810541  
      26B3u    7.864637    34Ag     7.942748    26B2g    8.115703  
      14Au     8.142507    27B3u    8.149473    35Ag     8.236063  
      34B1u    8.281159    21B2u    8.310595    15B1g    8.341959  
      20B3g    8.352384    27B2g    8.423024    35B1u    8.469156  
      36Ag     8.482048    16B1g    8.503367    28B3u    8.555234  
      22B2u    8.676126    29B3u    8.677362    15Au     8.691423  
      21B3g    8.698183    37Ag     8.734558    28B2g    8.763126  
      36B1u    8.991913    22B3g    9.045329    29B2g    9.080780  
      16Au     9.101622    37B1u    9.229925    38Ag     9.269348  
      30B3u    9.276547    38B1u    9.567147    23B2u    9.827175  
      17B1g    9.898223    31B3u    9.908866    39Ag     9.960506  
      30B2g   10.059136    17Au    10.119879    39B1u   10.180930  
      40Ag    10.270807    23B3g   10.285679    31B2g   10.495257  
      32B3u   10.830822    32B2g   11.143098    40B1u   11.536416  
      41Ag    11.583341    41B1u   11.741153    33B3u   12.400696  
      33B2g   12.854557    42B1u   24.501658    42Ag    24.546385  

    Final Occupation by Irrep:
             Ag   B1g   B2g   B3g    Au   B1u   B2u   B3u 
    DOCC [     3,    0,    1,    0,    0,    2,    1,    1 ]

  @DF-RKS Final Energy:   -78.59315115357816

   => Energetics <=

    Nuclear Repulsion Energy =             33.3648054519953305
    One-Electron Energy =                -170.2777370946160715
    Two-Electron Energy =                  66.5705154780521582
    DFT Exchange-Correlation Energy =      -8.3156509796435323
    Empirical Dispersion Energy =           0.0000000000000000
    VV10 Nonlocal Energy =                  0.0649159906339696
    Total Energy =                        -78.5931511535781624

Computation Completed


Properties will be evaluated at   0.000000,   0.000000,   0.000000 [a0]

Properties computed using the SCF density matrix

  Nuclear Dipole Moment: [e a0]
     X:     0.0000      Y:     0.0000      Z:    -0.0000

  Electronic Dipole Moment: [e a0]
     X:     0.0000      Y:     0.0000      Z:     0.0000

  Dipole Moment: [e a0]
     X:     0.0000      Y:     0.0000      Z:    -0.0000     Total:     0.0000

  Dipole Moment: [D]
     X:     0.0000      Y:     0.0000      Z:    -0.0000     Total:     0.0000


*** tstop() called on bp1-compute00140.data.bp.acrc.priv at Tue Apr 27 16:59:24 2021
Module time:
	user time   =     145.03 seconds =       2.42 minutes
	system time =       4.45 seconds =       0.07 minutes
	total time  =          6 seconds =       0.10 minutes
Total time:
	user time   =     284.30 seconds =       4.74 minutes
	system time =      12.31 seconds =       0.21 minutes
	total time  =         13 seconds =       0.22 minutes

  //>>>>>>>>>>>>>>>>>>>>>>>>>>>>>>>>>>>//
  //    Loading displacement 3 of 7    //
  //<<<<<<<<<<<<<<<<<<<<<<<<<<<<<<<<<<<//

*** tstart() called on bp1-compute00140.data.bp.acrc.priv
*** at Tue Apr 27 16:59:24 2021

   => Loading Basis Set <=

    Name: CC-PV(Q+D)Z
    Role: ORBITAL
    Keyword: BASIS
    atoms 1-2 entry C          line   249 file /work/zw18965/.conda/envs/p4env/share/psi4/basis/cc-pv_qpd_z.gbs 
    atoms 3-6 entry H          line    32 file /work/zw18965/.conda/envs/p4env/share/psi4/basis/cc-pv_qpd_z.gbs 


         ---------------------------------------------------------
                                   SCF
               by Justin Turney, Rob Parrish, Andy Simmonett
                          and Daniel G. A. Smith
                              RKS Reference
                       24 Threads, 137329 MiB Core
         ---------------------------------------------------------

  ==> Geometry <==

    Molecular point group: d2h
    Full point group: D2h

    Geometry (in Angstrom), charge = 0, multiplicity = 1:

       Center              X                  Y                   Z               Mass       
    ------------   -----------------  -----------------  -----------------  -----------------
         C            0.000000000000    -0.000000000000    -0.666559910771    12.000000000000
         C            0.000000000000    -0.000000000000     0.666559910771    12.000000000000
         H            0.923404134200     0.000000000000     1.231633519800     1.007825032230
         H           -0.923404134200    -0.000000000000     1.231633519800     1.007825032230
         H            0.923404134200     0.000000000000    -1.231633519800     1.007825032230
         H           -0.923404134200    -0.000000000000    -1.231633519800     1.007825032230

  Running in d2h symmetry.

  Rotational constants: A =      4.90420  B =      1.00472  C =      0.83388 [cm^-1]
  Rotational constants: A = 147024.06889  B =  30120.78353  C =  24999.20315 [MHz]
  Nuclear repulsion =   33.384584118296033

  Charge       = 0
  Multiplicity = 1
  Electrons    = 16
  Nalpha       = 8
  Nbeta        = 8

  ==> Algorithm <==

  SCF Algorithm Type is DF.
  DIIS enabled.
  MOM disabled.
  Fractional occupation disabled.
  Guess Type is SAD.
  Energy threshold   = 1.00e-08
  Density threshold  = 1.00e-08
  Integral threshold = 0.00e+00

  ==> Primary Basis <==

  Basis Set: CC-PV(Q+D)Z
    Blend: CC-PV(Q+D)Z
    Number of shells: 70
    Number of basis function: 230
    Number of Cartesian functions: 280
    Spherical Harmonics?: true
    Max angular momentum: 4

  ==> DFT Potential <==

   => Composite Functional: WB97X-V <= 

    wB97X-V Hyb-GGA Exchange-Correlation Functional

    N. Mardirossian and M. Head-Gordon, Phys. Chem. Chem. Phys. 16, 9904 (2014)

    Deriv               =              1
    GGA                 =           TRUE
    Meta                =          FALSE

    Exchange Hybrid     =           TRUE
    MP2 Hybrid          =          FALSE

   => Exchange-Correlation Functionals <=

    1.0000   wB97X-V range-separated functional

   => Exact (HF) Exchange <=

    0.8330            HF,LR [omega = 0.3000]
    0.1670               HF 

   => VV10 Non-Local Parameters <=

    VV10 B              =     6.0000E+00
    VV10 C              =     1.0000E-02

   => Molecular Quadrature <=

    Radial Scheme          =       TREUTLER
    Pruning Scheme         =           FLAT
    Nuclear Scheme         =       TREUTLER

    BS radius alpha        =              1
    Pruning alpha          =              1
    Radial Points          =             75
    Spherical Points       =            302
    Total Points           =         134258
    Total Blocks           =           1096
    Max Points             =            256
    Max Functions          =            230

   => Loading Basis Set <=

    Name: (CC-PV(Q+D)Z AUX)
    Role: JKFIT
    Keyword: DF_BASIS_SCF
    atoms 1-2 entry C          line   137 file /work/zw18965/.conda/envs/p4env/share/psi4/basis/cc-pvqz-jkfit.gbs 
    atoms 3-6 entry H          line    51 file /work/zw18965/.conda/envs/p4env/share/psi4/basis/cc-pvqz-jkfit.gbs 

  ==> Pre-Iterations <==

   -------------------------------------------------------
    Irrep   Nso     Nmo     Nalpha   Nbeta   Ndocc  Nsocc
   -------------------------------------------------------
     Ag        42      42       0       0       0       0
     B1g       17      17       0       0       0       0
     B2g       33      33       0       0       0       0
     B3g       23      23       0       0       0       0
     Au        17      17       0       0       0       0
     B1u       42      42       0       0       0       0
     B2u       23      23       0       0       0       0
     B3u       33      33       0       0       0       0
   -------------------------------------------------------
    Total     230     230       8       8       8       0
   -------------------------------------------------------

  ==> Integral Setup <==

  ==> DiskDFJK: Density-Fitted J/K Matrices <==

    J tasked:                  Yes
    K tasked:                  Yes
    wK tasked:                 Yes
    Omega:               3.000E-01
    OpenMP threads:             24
    Integrals threads:          24
    Memory [MiB]:           102246
    Algorithm:                Core
    Integral Cache:           NONE
    Schwarz Cutoff:          1E-12
    Fitting Condition:       1E-10

   => Auxiliary Basis Set <=

  Basis Set: (CC-PV(Q+D)Z AUX)
    Blend: CC-PVQZ-JKFIT
    Number of shells: 108
    Number of basis function: 416
    Number of Cartesian functions: 548
    Spherical Harmonics?: true
    Max angular momentum: 5

  Cached 100.0% of DFT collocation blocks in 0.733 [GiB].

  Minimum eigenvalue in the overlap matrix is 1.0149799561E-04.
  Using Symmetric Orthogonalization.

  SCF Guess: Superposition of Atomic Densities via on-the-fly atomic UHF.

  ==> Iterations <==

                           Total Energy        Delta E     RMS |[F,P]|

   @DF-RKS iter SAD:   -77.86751628985158   -7.78675e+01   0.00000e+00 
   @DF-RKS iter   1:   -78.47328717399550   -6.05771e-01   5.76392e-03 DIIS
   @DF-RKS iter   2:   -78.54463409788202   -7.13469e-02   3.69687e-03 DIIS
   @DF-RKS iter   3:   -78.59299057003608   -4.83565e-02   1.67654e-04 DIIS
   @DF-RKS iter   4:   -78.59320192830000   -2.11358e-04   2.42367e-05 DIIS
   @DF-RKS iter   5:   -78.59320635463784   -4.42634e-06   3.91978e-06 DIIS
   @DF-RKS iter   6:   -78.59320646845795   -1.13820e-07   6.22441e-07 DIIS
   @DF-RKS iter   7:   -78.59320647244050   -3.98255e-09   7.07566e-08 DIIS
   @DF-RKS iter   8:   -78.59320647248782   -4.73221e-11   6.84127e-09 DIIS
  Energy and wave function converged.


  ==> Post-Iterations <==

    Orbital Energies [Eh]
    ---------------------

    Doubly Occupied:                                                      

       1Ag   -10.268990     1B1u  -10.268096     2Ag    -0.893552  
       2B1u   -0.702465     1B3u   -0.584601     3Ag    -0.528150  
       1B2g   -0.460834     1B2u   -0.377011  

    Virtual:                                                              

       1B3g    0.086993     4Ag     0.115758     3B1u    0.139607  
       2B3u    0.146252     2B2g    0.193949     5Ag     0.259210  
       4B1u    0.282240     2B2u    0.295643     3B3u    0.332272  
       6Ag     0.337552     2B3g    0.381101     4B3u    0.425802  
       7Ag     0.439822     5B1u    0.443259     6B1u    0.454311  
       1B1g    0.457611     3B2g    0.512535     7B1u    0.576616  
       1Au     0.603550     3B2u    0.640150     4B2g    0.667267  
       8Ag     0.714525     5B3u    0.741313     5B2g    0.796252  
       9Ag     0.799592     4B2u    0.839283     3B3g    0.855081  
       2B1g    0.894262     4B3g    0.923715     8B1u    0.932497  
       6B3u    0.949111     9B1u    1.051046     7B3u    1.056120  
      10Ag     1.076069    10B1u    1.106764    11Ag     1.112701  
       6B2g    1.123340    11B1u    1.150254     2Au     1.199340  
      12Ag     1.282471     5B2u    1.382140     7B2g    1.409875  
       5B3g    1.542656    12B1u    1.566610     8B3u    1.606688  
      13Ag     1.616252     9B3u    1.622849     8B2g    1.638042  
       3B1g    1.708912     6B2u    1.718735    14Ag     1.800200  
      10B3u    1.845970    13B1u    1.853270     7B2u    1.878840  
       9B2g    1.902282     3Au     1.902701    15Ag     1.907736  
       4B1g    1.967317     6B3g    1.971547    10B2g    2.037856  
      11B3u    2.081801     4Au     2.126236    14B1u    2.138543  
       7B3g    2.163640    16Ag     2.220225     8B2u    2.228255  
      15B1u    2.236013     5B1g    2.270651    12B3u    2.409736  
       9B2u    2.451856    16B1u    2.472469    11B2g    2.492701  
       5Au     2.506217    17Ag     2.518038     8B3g    2.539751  
      18Ag     2.550232    12B2g    2.552457    13B3u    2.666494  
       6B1g    2.679029    17B1u    2.682752    19Ag     2.756108  
      18B1u    2.823104    13B2g    2.858361     9B3g    2.902397  
      10B2u    2.929297    14B3u    3.046719    15B3u    3.088611  
      19B1u    3.090731    10B3g    3.159622    11B2u    3.175233  
      20Ag     3.188197     6Au     3.259774    14B2g    3.472417  
       7B1g    3.493964    20B1u    3.553345    16B3u    3.583176  
      21Ag     3.625729    22Ag     3.629136    15B2g    3.632189  
       7Au     3.704850    21B1u    3.737789    11B3g    3.849189  
      23Ag     3.897788    22B1u    3.923132    16B2g    3.937097  
      23B1u    4.316728    17B3u    4.364509    17B2g    4.407449  
      24Ag     4.909268    12B2u    4.923131    18B3u    4.983270  
      12B3g    5.077286     8B1g    5.089945    25Ag     5.130469  
      13B2u    5.169091     9B1g    5.227080    19B3u    5.451179  
      24B1u    5.510182     8Au     5.526977    10B1g    5.592011  
      26Ag     5.595997    18B2g    5.596671    13B3g    5.597777  
      14B2u    5.740945     9Au     5.779224    15B2u    5.780987  
      27Ag     5.839893    20B3u    5.858959    25B1u    5.862522  
      19B2g    5.912335    14B3g    5.957002    21B3u    5.989605  
      28Ag     6.035724    10Au     6.048938    20B2g    6.058060  
      22B3u    6.083158    15B3g    6.130628    11B1g    6.133632  
      26B1u    6.163097    16B2u    6.215716    17B2u    6.281173  
      21B2g    6.307956    27B1u    6.328833    29Ag     6.361594  
      23B3u    6.454975    11Au     6.482222    30Ag     6.495147  
      16B3g    6.521338    22B2g    6.522178    31Ag     6.626851  
      28B1u    6.637625    24B3u    6.692205    12B1g    6.794378  
      29B1u    6.863639    18B2u    6.903853    23B2g    7.025298  
      30B1u    7.053079    12Au     7.055048    17B3g    7.100120  
      19B2u    7.438989    18B3g    7.481923    25B3u    7.484755  
      31B1u    7.500234    32Ag     7.515696    13B1g    7.546248  
      24B2g    7.554896    33Ag     7.603873    13Au     7.616458  
      20B2u    7.630200    32B1u    7.711328    14B1g    7.716378  
      19B3g    7.726959    33B1u    7.759712    25B2g    7.811793  
      26B3u    7.865067    34Ag     7.944587    26B2g    8.117421  
      14Au     8.143746    27B3u    8.150066    35Ag     8.235517  
      34B1u    8.281139    21B2u    8.310459    15B1g    8.339818  
      20B3g    8.352100    27B2g    8.421908    35B1u    8.469518  
      36Ag     8.488328    16B1g    8.504098    28B3u    8.555287  
      22B2u    8.676265    29B3u    8.678078    15Au     8.691080  
      21B3g    8.707169    37Ag     8.732339    28B2g    8.763744  
      36B1u    8.990903    22B3g    9.045234    29B2g    9.080221  
      16Au     9.102230    37B1u    9.230049    38Ag     9.268159  
      30B3u    9.277455    38B1u    9.567363    23B2u    9.822726  
      17B1g    9.894797    31B3u    9.907067    39Ag     9.958854  
      30B2g   10.062434    17Au    10.117698    39B1u   10.180718  
      40Ag    10.268219    23B3g   10.284082    31B2g   10.495236  
      32B3u   10.829679    32B2g   11.142967    40B1u   11.541678  
      41Ag    11.583555    41B1u   11.738255    33B3u   12.395945  
      33B2g   12.852316    42B1u   24.508041    42Ag    24.539761  

    Final Occupation by Irrep:
             Ag   B1g   B2g   B3g    Au   B1u   B2u   B3u 
    DOCC [     3,    0,    1,    0,    0,    2,    1,    1 ]

  @DF-RKS Final Energy:   -78.59320647248782

   => Energetics <=

    Nuclear Repulsion Energy =             33.3845841182960328
    One-Electron Energy =                -170.3174341436171062
    Two-Electron Energy =                  66.5908576229644638
    DFT Exchange-Correlation Energy =      -8.3161288697532463
    Empirical Dispersion Energy =           0.0000000000000000
    VV10 Nonlocal Energy =                  0.0649147996220210
    Total Energy =                        -78.5932064724878359

Computation Completed


Properties will be evaluated at   0.000000,   0.000000,   0.000000 [a0]

Properties computed using the SCF density matrix

  Nuclear Dipole Moment: [e a0]
     X:     0.0000      Y:     0.0000      Z:     0.0000

  Electronic Dipole Moment: [e a0]
     X:     0.0000      Y:     0.0000      Z:     0.0000

  Dipole Moment: [e a0]
     X:     0.0000      Y:     0.0000      Z:     0.0000     Total:     0.0000

  Dipole Moment: [D]
     X:     0.0000      Y:     0.0000      Z:     0.0000     Total:     0.0000


*** tstop() called on bp1-compute00140.data.bp.acrc.priv at Tue Apr 27 16:59:31 2021
Module time:
	user time   =     141.50 seconds =       2.36 minutes
	system time =       3.84 seconds =       0.06 minutes
	total time  =          7 seconds =       0.12 minutes
Total time:
	user time   =     425.94 seconds =       7.10 minutes
	system time =      16.17 seconds =       0.27 minutes
	total time  =         20 seconds =       0.33 minutes

  //>>>>>>>>>>>>>>>>>>>>>>>>>>>>>>>>>>>//
  //    Loading displacement 4 of 7    //
  //<<<<<<<<<<<<<<<<<<<<<<<<<<<<<<<<<<<//

*** tstart() called on bp1-compute00140.data.bp.acrc.priv
*** at Tue Apr 27 16:59:31 2021

   => Loading Basis Set <=

    Name: CC-PV(Q+D)Z
    Role: ORBITAL
    Keyword: BASIS
    atoms 1-2 entry C          line   249 file /work/zw18965/.conda/envs/p4env/share/psi4/basis/cc-pv_qpd_z.gbs 
    atoms 3-6 entry H          line    32 file /work/zw18965/.conda/envs/p4env/share/psi4/basis/cc-pv_qpd_z.gbs 


         ---------------------------------------------------------
                                   SCF
               by Justin Turney, Rob Parrish, Andy Simmonett
                          and Daniel G. A. Smith
                              RKS Reference
                       24 Threads, 137329 MiB Core
         ---------------------------------------------------------

  ==> Geometry <==

    Molecular point group: d2h
    Full point group: D2h

    Geometry (in Angstrom), charge = 0, multiplicity = 1:

       Center              X                  Y                   Z               Mass       
    ------------   -----------------  -----------------  -----------------  -----------------
         C            0.000000000000    -0.000000000000    -0.667100000000    12.000000000000
         C            0.000000000000    -0.000000000000     0.667100000000    12.000000000000
         H            0.922086337029     0.000000000000     1.231633519800     1.007825032230
         H           -0.922086337029    -0.000000000000     1.231633519800     1.007825032230
         H            0.922086337029     0.000000000000    -1.231633519800     1.007825032230
         H           -0.922086337029    -0.000000000000    -1.231633519800     1.007825032230

  Running in d2h symmetry.

  Rotational constants: A =      4.91822  B =      1.00369  C =      0.83358 [cm^-1]
  Rotational constants: A = 147444.60727  B =  30089.78152  C =  24989.95293 [MHz]
  Nuclear repulsion =   33.389522896215389

  Charge       = 0
  Multiplicity = 1
  Electrons    = 16
  Nalpha       = 8
  Nbeta        = 8

  ==> Algorithm <==

  SCF Algorithm Type is DF.
  DIIS enabled.
  MOM disabled.
  Fractional occupation disabled.
  Guess Type is SAD.
  Energy threshold   = 1.00e-08
  Density threshold  = 1.00e-08
  Integral threshold = 0.00e+00

  ==> Primary Basis <==

  Basis Set: CC-PV(Q+D)Z
    Blend: CC-PV(Q+D)Z
    Number of shells: 70
    Number of basis function: 230
    Number of Cartesian functions: 280
    Spherical Harmonics?: true
    Max angular momentum: 4

  ==> DFT Potential <==

   => Composite Functional: WB97X-V <= 

    wB97X-V Hyb-GGA Exchange-Correlation Functional

    N. Mardirossian and M. Head-Gordon, Phys. Chem. Chem. Phys. 16, 9904 (2014)

    Deriv               =              1
    GGA                 =           TRUE
    Meta                =          FALSE

    Exchange Hybrid     =           TRUE
    MP2 Hybrid          =          FALSE

   => Exchange-Correlation Functionals <=

    1.0000   wB97X-V range-separated functional

   => Exact (HF) Exchange <=

    0.8330            HF,LR [omega = 0.3000]
    0.1670               HF 

   => VV10 Non-Local Parameters <=

    VV10 B              =     6.0000E+00
    VV10 C              =     1.0000E-02

   => Molecular Quadrature <=

    Radial Scheme          =       TREUTLER
    Pruning Scheme         =           FLAT
    Nuclear Scheme         =       TREUTLER

    BS radius alpha        =              1
    Pruning alpha          =              1
    Radial Points          =             75
    Spherical Points       =            302
    Total Points           =         134258
    Total Blocks           =           1096
    Max Points             =            256
    Max Functions          =            230

   => Loading Basis Set <=

    Name: (CC-PV(Q+D)Z AUX)
    Role: JKFIT
    Keyword: DF_BASIS_SCF
    atoms 1-2 entry C          line   137 file /work/zw18965/.conda/envs/p4env/share/psi4/basis/cc-pvqz-jkfit.gbs 
    atoms 3-6 entry H          line    51 file /work/zw18965/.conda/envs/p4env/share/psi4/basis/cc-pvqz-jkfit.gbs 

  ==> Pre-Iterations <==

   -------------------------------------------------------
    Irrep   Nso     Nmo     Nalpha   Nbeta   Ndocc  Nsocc
   -------------------------------------------------------
     Ag        42      42       0       0       0       0
     B1g       17      17       0       0       0       0
     B2g       33      33       0       0       0       0
     B3g       23      23       0       0       0       0
     Au        17      17       0       0       0       0
     B1u       42      42       0       0       0       0
     B2u       23      23       0       0       0       0
     B3u       33      33       0       0       0       0
   -------------------------------------------------------
    Total     230     230       8       8       8       0
   -------------------------------------------------------

  ==> Integral Setup <==

  ==> DiskDFJK: Density-Fitted J/K Matrices <==

    J tasked:                  Yes
    K tasked:                  Yes
    wK tasked:                 Yes
    Omega:               3.000E-01
    OpenMP threads:             24
    Integrals threads:          24
    Memory [MiB]:           102246
    Algorithm:                Core
    Integral Cache:           NONE
    Schwarz Cutoff:          1E-12
    Fitting Condition:       1E-10

   => Auxiliary Basis Set <=

  Basis Set: (CC-PV(Q+D)Z AUX)
    Blend: CC-PVQZ-JKFIT
    Number of shells: 108
    Number of basis function: 416
    Number of Cartesian functions: 548
    Spherical Harmonics?: true
    Max angular momentum: 5

  Cached 100.0% of DFT collocation blocks in 0.733 [GiB].

  Minimum eigenvalue in the overlap matrix is 1.0142130115E-04.
  Using Symmetric Orthogonalization.

  SCF Guess: Superposition of Atomic Densities via on-the-fly atomic UHF.

  ==> Iterations <==

                           Total Energy        Delta E     RMS |[F,P]|

   @DF-RKS iter SAD:   -77.86771753993847   -7.78677e+01   0.00000e+00 
   @DF-RKS iter   1:   -78.47349307107152   -6.05776e-01   5.75823e-03 DIIS
   @DF-RKS iter   2:   -78.54485569999042   -7.13626e-02   3.68787e-03 DIIS
   @DF-RKS iter   3:   -78.59294795950552   -4.80923e-02   1.67619e-04 DIIS
   @DF-RKS iter   4:   -78.59315909877468   -2.11139e-04   2.43560e-05 DIIS
   @DF-RKS iter   5:   -78.59316354751219   -4.44874e-06   3.94295e-06 DIIS
   @DF-RKS iter   6:   -78.59316366270987   -1.15198e-07   6.22835e-07 DIIS
   @DF-RKS iter   7:   -78.59316366670816   -3.99830e-09   7.08295e-08 DIIS
   @DF-RKS iter   8:   -78.59316366675542   -4.72511e-11   6.85157e-09 DIIS
  Energy and wave function converged.


  ==> Post-Iterations <==

    Orbital Energies [Eh]
    ---------------------

    Doubly Occupied:                                                      

       1Ag   -10.268851     1B1u  -10.267964     2Ag    -0.893455  
       2B1u   -0.703025     1B3u   -0.584758     3Ag    -0.528218  
       1B2g   -0.461265     1B2u   -0.376793  

    Virtual:                                                              

       1B3g    0.086762     4Ag     0.115824     3B1u    0.139657  
       2B3u    0.146462     2B2g    0.193943     5Ag     0.259328  
       4B1u    0.282389     2B2u    0.295719     3B3u    0.332291  
       6Ag     0.337718     2B3g    0.381046     4B3u    0.426243  
       7Ag     0.440228     5B1u    0.443199     6B1u    0.454696  
       1B1g    0.457793     3B2g    0.512611     7B1u    0.576278  
       1Au     0.603752     3B2u    0.640049     4B2g    0.667376  
       8Ag     0.714860     5B3u    0.741649     5B2g    0.796840  
       9Ag     0.799727     4B2u    0.839488     3B3g    0.855283  
       2B1g    0.894364     4B3g    0.923863     8B1u    0.931853  
       6B3u    0.948947     9B1u    1.051175     7B3u    1.056764  
      10Ag     1.076327    10B1u    1.106884    11Ag     1.113215  
       6B2g    1.123850    11B1u    1.150857     2Au     1.199430  
      12Ag     1.282619     5B2u    1.382139     7B2g    1.409453  
       5B3g    1.542216    12B1u    1.566632     8B3u    1.606396  
      13Ag     1.616161     9B3u    1.623277     8B2g    1.638618  
       3B1g    1.708872     6B2u    1.718606    14Ag     1.799978  
      10B3u    1.845601    13B1u    1.852717     7B2u    1.878928  
       9B2g    1.901989     3Au     1.902464    15Ag     1.907593  
       4B1g    1.967574     6B3g    1.971552    10B2g    2.037764  
      11B3u    2.081285     4Au     2.127079    14B1u    2.138577  
       7B3g    2.163730    16Ag     2.220714     8B2u    2.227840  
      15B1u    2.235631     5B1g    2.271429    12B3u    2.411589  
       9B2u    2.452229    16B1u    2.472768    11B2g    2.494373  
       5Au     2.506129    17Ag     2.519349     8B3g    2.540592  
      18Ag     2.550336    12B2g    2.553348    13B3u    2.668498  
       6B1g    2.679514    17B1u    2.683877    19Ag     2.757188  
      18B1u    2.823126    13B2g    2.859339     9B3g    2.904095  
      10B2u    2.930662    14B3u    3.047331    15B3u    3.088869  
      19B1u    3.091607    10B3g    3.158244    11B2u    3.176695  
      20Ag     3.187776     6Au     3.261006    14B2g    3.474042  
       7B1g    3.495829    20B1u    3.554247    16B3u    3.584308  
      21Ag     3.626491    22Ag     3.631153    15B2g    3.633157  
       7Au     3.706740    21B1u    3.739212    11B3g    3.849538  
      23Ag     3.897993    22B1u    3.924365    16B2g    3.938273  
      23B1u    4.317357    17B3u    4.365332    17B2g    4.406710  
      24Ag     4.908910    12B2u    4.922141    18B3u    4.983339  
      12B3g    5.077881     8B1g    5.090922    25Ag     5.130083  
      13B2u    5.168339     9B1g    5.227610    19B3u    5.451254  
      24B1u    5.509795     8Au     5.527975    10B1g    5.592399  
      26Ag     5.594464    18B2g    5.596521    13B3g    5.596684  
      14B2u    5.741689     9Au     5.778704    15B2u    5.781665  
      27Ag     5.839235    20B3u    5.858192    25B1u    5.862143  
      19B2g    5.915895    14B3g    5.957311    21B3u    5.989571  
      28Ag     6.036883    10Au     6.048804    20B2g    6.056860  
      22B3u    6.087579    15B3g    6.133294    11B1g    6.134317  
      26B1u    6.163212    16B2u    6.216525    17B2u    6.283163  
      21B2g    6.311066    27B1u    6.329454    29Ag     6.365521  
      23B3u    6.456508    11Au     6.484733    30Ag     6.497949  
      22B2g    6.520989    16B3g    6.521177    31Ag     6.628959  
      28B1u    6.640800    24B3u    6.694034    12B1g    6.796045  
      29B1u    6.866113    18B2u    6.906215    23B2g    7.029566  
      30B1u    7.051487    12Au     7.054830    17B3g    7.101874  
      19B2u    7.440598    18B3g    7.487817    25B3u    7.488402  
      31B1u    7.500381    32Ag     7.518504    13B1g    7.548344  
      24B2g    7.555738    33Ag     7.606690    13Au     7.617823  
      20B2u    7.633022    32B1u    7.712010    14B1g    7.716757  
      19B3g    7.727165    33B1u    7.761055    25B2g    7.813066  
      26B3u    7.865397    34Ag     7.946429    26B2g    8.116982  
      14Au     8.143772    27B3u    8.151448    35Ag     8.237008  
      34B1u    8.282234    21B2u    8.311227    15B1g    8.343008  
      20B3g    8.352899    27B2g    8.424903    35B1u    8.475287  
      36Ag     8.486368    16B1g    8.505563    28B3u    8.555987  
      22B2u    8.677297    29B3u    8.683231    15Au     8.691770  
      21B3g    8.703191    37Ag     8.734701    28B2g    8.765620  
      36B1u    8.992616    22B3g    9.047335    29B2g    9.083831  
      16Au     9.109871    37B1u    9.229639    38Ag     9.273547  
      30B3u    9.281730    38B1u    9.569710    23B2u    9.832518  
      17B1g    9.904854    31B3u    9.911091    39Ag     9.964272  
      30B2g   10.064218    17Au    10.127154    39B1u   10.185585  
      40Ag    10.275449    23B3g   10.293104    31B2g   10.498317  
      32B3u   10.842268    32B2g   11.158102    40B1u   11.542354  
      41Ag    11.586194    41B1u   11.745937    33B3u   12.409956  
      33B2g   12.865550    42B1u   24.519351    42Ag    24.556098  

    Final Occupation by Irrep:
             Ag   B1g   B2g   B3g    Au   B1u   B2u   B3u 
    DOCC [     3,    0,    1,    0,    0,    2,    1,    1 ]

  @DF-RKS Final Energy:   -78.59316366675542

   => Energetics <=

    Nuclear Repulsion Energy =             33.3895228962153894
    One-Electron Energy =                -170.3252887917300882
    Two-Electron Energy =                  66.5948406387735048
    DFT Exchange-Correlation Energy =      -8.3171566407516231
    Empirical Dispersion Energy =           0.0000000000000000
    VV10 Nonlocal Energy =                  0.0649182307373934
    Total Energy =                        -78.5931636667554159

Computation Completed


Properties will be evaluated at   0.000000,   0.000000,   0.000000 [a0]

Properties computed using the SCF density matrix

  Nuclear Dipole Moment: [e a0]
     X:     0.0000      Y:     0.0000      Z:     0.0000

  Electronic Dipole Moment: [e a0]
     X:     0.0000      Y:     0.0000      Z:     0.0000

  Dipole Moment: [e a0]
     X:     0.0000      Y:     0.0000      Z:     0.0000     Total:     0.0000

  Dipole Moment: [D]
     X:     0.0000      Y:     0.0000      Z:     0.0000     Total:     0.0000


*** tstop() called on bp1-compute00140.data.bp.acrc.priv at Tue Apr 27 16:59:37 2021
Module time:
	user time   =     138.37 seconds =       2.31 minutes
	system time =       3.16 seconds =       0.05 minutes
	total time  =          6 seconds =       0.10 minutes
Total time:
	user time   =     564.46 seconds =       9.41 minutes
	system time =      19.33 seconds =       0.32 minutes
	total time  =         26 seconds =       0.43 minutes

  //>>>>>>>>>>>>>>>>>>>>>>>>>>>>>>>>>>>//
  //    Loading displacement 5 of 7    //
  //<<<<<<<<<<<<<<<<<<<<<<<<<<<<<<<<<<<//

*** tstart() called on bp1-compute00140.data.bp.acrc.priv
*** at Tue Apr 27 16:59:37 2021

   => Loading Basis Set <=

    Name: CC-PV(Q+D)Z
    Role: ORBITAL
    Keyword: BASIS
    atoms 1-2 entry C          line   249 file /work/zw18965/.conda/envs/p4env/share/psi4/basis/cc-pv_qpd_z.gbs 
    atoms 3-6 entry H          line    32 file /work/zw18965/.conda/envs/p4env/share/psi4/basis/cc-pv_qpd_z.gbs 


         ---------------------------------------------------------
                                   SCF
               by Justin Turney, Rob Parrish, Andy Simmonett
                          and Daniel G. A. Smith
                              RKS Reference
                       24 Threads, 137329 MiB Core
         ---------------------------------------------------------

  ==> Geometry <==

    Molecular point group: d2h
    Full point group: D2h

    Geometry (in Angstrom), charge = 0, multiplicity = 1:

       Center              X                  Y                   Z               Mass       
    ------------   -----------------  -----------------  -----------------  -----------------
         C            0.000000000000     0.000000000000    -0.667100000000    12.000000000000
         C            0.000000000000     0.000000000000     0.667100000000    12.000000000000
         H            0.924721931371     0.000000000000     1.231633519800     1.007825032230
         H           -0.924721931371    -0.000000000000     1.231633519800     1.007825032230
         H            0.924721931371     0.000000000000    -1.231633519800     1.007825032230
         H           -0.924721931371    -0.000000000000    -1.231633519800     1.007825032230

  Running in d2h symmetry.

  Rotational constants: A =      4.89023  B =      1.00369  C =      0.83277 [cm^-1]
  Rotational constants: A = 146605.32712  B =  30089.78152  C =  24965.72936 [MHz]
  Nuclear repulsion =   33.359869881244570

  Charge       = 0
  Multiplicity = 1
  Electrons    = 16
  Nalpha       = 8
  Nbeta        = 8

  ==> Algorithm <==

  SCF Algorithm Type is DF.
  DIIS enabled.
  MOM disabled.
  Fractional occupation disabled.
  Guess Type is SAD.
  Energy threshold   = 1.00e-08
  Density threshold  = 1.00e-08
  Integral threshold = 0.00e+00

  ==> Primary Basis <==

  Basis Set: CC-PV(Q+D)Z
    Blend: CC-PV(Q+D)Z
    Number of shells: 70
    Number of basis function: 230
    Number of Cartesian functions: 280
    Spherical Harmonics?: true
    Max angular momentum: 4

  ==> DFT Potential <==

   => Composite Functional: WB97X-V <= 

    wB97X-V Hyb-GGA Exchange-Correlation Functional

    N. Mardirossian and M. Head-Gordon, Phys. Chem. Chem. Phys. 16, 9904 (2014)

    Deriv               =              1
    GGA                 =           TRUE
    Meta                =          FALSE

    Exchange Hybrid     =           TRUE
    MP2 Hybrid          =          FALSE

   => Exchange-Correlation Functionals <=

    1.0000   wB97X-V range-separated functional

   => Exact (HF) Exchange <=

    0.8330            HF,LR [omega = 0.3000]
    0.1670               HF 

   => VV10 Non-Local Parameters <=

    VV10 B              =     6.0000E+00
    VV10 C              =     1.0000E-02

   => Molecular Quadrature <=

    Radial Scheme          =       TREUTLER
    Pruning Scheme         =           FLAT
    Nuclear Scheme         =       TREUTLER

    BS radius alpha        =              1
    Pruning alpha          =              1
    Radial Points          =             75
    Spherical Points       =            302
    Total Points           =         134258
    Total Blocks           =           1100
    Max Points             =            256
    Max Functions          =            230

   => Loading Basis Set <=

    Name: (CC-PV(Q+D)Z AUX)
    Role: JKFIT
    Keyword: DF_BASIS_SCF
    atoms 1-2 entry C          line   137 file /work/zw18965/.conda/envs/p4env/share/psi4/basis/cc-pvqz-jkfit.gbs 
    atoms 3-6 entry H          line    51 file /work/zw18965/.conda/envs/p4env/share/psi4/basis/cc-pvqz-jkfit.gbs 

  ==> Pre-Iterations <==

   -------------------------------------------------------
    Irrep   Nso     Nmo     Nalpha   Nbeta   Ndocc  Nsocc
   -------------------------------------------------------
     Ag        42      42       0       0       0       0
     B1g       17      17       0       0       0       0
     B2g       33      33       0       0       0       0
     B3g       23      23       0       0       0       0
     Au        17      17       0       0       0       0
     B1u       42      42       0       0       0       0
     B2u       23      23       0       0       0       0
     B3u       33      33       0       0       0       0
   -------------------------------------------------------
    Total     230     230       8       8       8       0
   -------------------------------------------------------

  ==> Integral Setup <==

  ==> DiskDFJK: Density-Fitted J/K Matrices <==

    J tasked:                  Yes
    K tasked:                  Yes
    wK tasked:                 Yes
    Omega:               3.000E-01
    OpenMP threads:             24
    Integrals threads:          24
    Memory [MiB]:           102246
    Algorithm:                Core
    Integral Cache:           NONE
    Schwarz Cutoff:          1E-12
    Fitting Condition:       1E-10

   => Auxiliary Basis Set <=

  Basis Set: (CC-PV(Q+D)Z AUX)
    Blend: CC-PVQZ-JKFIT
    Number of shells: 108
    Number of basis function: 416
    Number of Cartesian functions: 548
    Spherical Harmonics?: true
    Max angular momentum: 5

  Cached 100.0% of DFT collocation blocks in 0.733 [GiB].

  Minimum eigenvalue in the overlap matrix is 1.0188268347E-04.
  Using Symmetric Orthogonalization.

  SCF Guess: Superposition of Atomic Densities via on-the-fly atomic UHF.

  ==> Iterations <==

                           Total Energy        Delta E     RMS |[F,P]|

   @DF-RKS iter SAD:   -77.86533276026863   -7.78653e+01   0.00000e+00 
   @DF-RKS iter   1:   -78.47360041416984   -6.08268e-01   5.75357e-03 DIIS
   @DF-RKS iter   2:   -78.54474886115327   -7.11484e-02   3.69071e-03 DIIS
   @DF-RKS iter   3:   -78.59297380584881   -4.82249e-02   1.67477e-04 DIIS
   @DF-RKS iter   4:   -78.59318503395436   -2.11228e-04   2.41737e-05 DIIS
   @DF-RKS iter   5:   -78.59318944428821   -4.41033e-06   3.91251e-06 DIIS
   @DF-RKS iter   6:   -78.59318955763705   -1.13349e-07   6.22243e-07 DIIS
   @DF-RKS iter   7:   -78.59318956162053   -3.98349e-09   7.07654e-08 DIIS
   @DF-RKS iter   8:   -78.59318956166757   -4.70379e-11   6.83912e-09 DIIS
  Energy and wave function converged.


  ==> Post-Iterations <==

    Orbital Energies [Eh]
    ---------------------

    Doubly Occupied:                                                      

       1Ag   -10.269340     1B1u  -10.268453     2Ag    -0.893272  
       2B1u   -0.702192     1B3u   -0.584502     3Ag    -0.527701  
       1B2g   -0.460935     1B2u   -0.376832  

    Virtual:                                                              

       1B3g    0.086794     4Ag     0.115683     3B1u    0.139574  
       2B3u    0.146151     2B2g    0.193895     5Ag     0.259127  
       4B1u    0.281959     2B2u    0.295702     3B3u    0.332316  
       6Ag     0.337471     2B3g    0.381038     4B3u    0.425715  
       7Ag     0.439446     5B1u    0.443260     6B1u    0.453797  
       1B1g    0.457458     3B2g    0.512377     7B1u    0.575945  
       1Au     0.603285     3B2u    0.640073     4B2g    0.667208  
       8Ag     0.714333     5B3u    0.740771     5B2g    0.795351  
       9Ag     0.799744     4B2u    0.838771     3B3g    0.854941  
       2B1g    0.894214     4B3g    0.923462     8B1u    0.932060  
       6B3u    0.948957     9B1u    1.050485     7B3u    1.055779  
      10Ag     1.075889    10B1u    1.106507    11Ag     1.112030  
       6B2g    1.123083    11B1u    1.149350     2Au     1.199140  
      12Ag     1.282771     5B2u    1.382238     7B2g    1.409993  
       5B3g    1.542853    12B1u    1.566783     8B3u    1.607098  
      13Ag     1.615432     9B3u    1.622075     8B2g    1.638467  
       3B1g    1.709117     6B2u    1.718573    14Ag     1.800585  
      10B3u    1.845981    13B1u    1.853087     7B2u    1.878800  
       9B2g    1.902001     3Au     1.902895    15Ag     1.908112  
       4B1g    1.966516     6B3g    1.971846    10B2g    2.037483  
      11B3u    2.081639     4Au     2.124775    14B1u    2.138209  
       7B3g    2.162997    16Ag     2.219790     8B2u    2.228254  
      15B1u    2.235928     5B1g    2.269780    12B3u    2.408713  
       9B2u    2.451379    16B1u    2.472428    11B2g    2.490647  
       5Au     2.506123    17Ag     2.516839     8B3g    2.538719  
      18Ag     2.550857    12B2g    2.551094    13B3u    2.664257  
       6B1g    2.678496    17B1u    2.680935    19Ag     2.754181  
      18B1u    2.822794    13B2g    2.856681     9B3g    2.900923  
      10B2u    2.927621    14B3u    3.046042    15B3u    3.087900  
      19B1u    3.088460    10B3g    3.159217    11B2u    3.173412  
      20Ag     3.186260     6Au     3.258227    14B2g    3.471166  
       7B1g    3.492664    20B1u    3.553493    16B3u    3.581921  
      21Ag     3.624715    22Ag     3.627372    15B2g    3.631188  
       7Au     3.703220    21B1u    3.735912    11B3g    3.847974  
      23Ag     3.896297    22B1u    3.922218    16B2g    3.936310  
      23B1u    4.315741    17B3u    4.363757    17B2g    4.406759  
      24Ag     4.908430    12B2u    4.922765    18B3u    4.983208  
      12B3g    5.077899     8B1g    5.088349    25Ag     5.131059  
      13B2u    5.169891     9B1g    5.227779    19B3u    5.450487  
      24B1u    5.509129     8Au     5.526195    10B1g    5.591948  
      18B2g    5.596629    13B3g    5.597279    26Ag     5.598472  
      14B2u    5.739890     9Au     5.778942    15B2u    5.780488  
      27Ag     5.841287    20B3u    5.859561    25B1u    5.860338  
      19B2g    5.909466    14B3g    5.956250    21B3u    5.989255  
      28Ag     6.034302    10Au     6.048123    20B2g    6.057857  
      22B3u    6.081635    15B3g    6.128166    11B1g    6.132816  
      26B1u    6.163433    16B2u    6.215600    17B2u    6.281959  
      21B2g    6.306114    27B1u    6.326215    29Ag     6.357522  
      23B3u    6.452380    11Au     6.479614    30Ag     6.493373  
      16B3g    6.518992    22B2g    6.520750    31Ag     6.623529  
      28B1u    6.633645    24B3u    6.689902    12B1g    6.793443  
      29B1u    6.860619    18B2u    6.898814    23B2g    7.021392  
      30B1u    7.048829    12Au     7.054189    17B3g    7.095809  
      19B2u    7.435730    18B3g    7.476801    25B3u    7.482087  
      31B1u    7.498819    32Ag     7.513420    13B1g    7.545405  
      24B2g    7.554384    33Ag     7.601898    13Au     7.615117  
      20B2u    7.626086    32B1u    7.710922    14B1g    7.715611  
      19B3g    7.726876    33B1u    7.759446    25B2g    7.809268  
      26B3u    7.864314    34Ag     7.940874    26B2g    8.116142  
      14Au     8.142488    27B3u    8.148090    35Ag     8.234581  
      34B1u    8.279939    21B2u    8.309821    15B1g    8.338696  
      20B3g    8.351572    27B2g    8.420025    35B1u    8.463487  
      36Ag     8.483990    16B1g    8.501979    28B3u    8.554491  
      29B3u    8.672243    22B2u    8.675103    15Au     8.690741  
      21B3g    8.702164    37Ag     8.732189    28B2g    8.761247  
      36B1u    8.990117    22B3g    9.043231    29B2g    9.077178  
      16Au     9.093971    37B1u    9.230327    38Ag     9.263974  
      30B3u    9.272288    38B1u    9.564851    23B2u    9.817384  
      17B1g    9.888180    31B3u    9.904860    39Ag     9.955151  
      30B2g   10.057367    17Au    10.110444    39B1u   10.176101  
      40Ag    10.263586    23B3g   10.276653    31B2g   10.492190  
      32B3u   10.818241    32B2g   11.127997    40B1u   11.535769  
      41Ag    11.580702    41B1u   11.733430    33B3u   12.386690  
      33B2g   12.841336    42B1u   24.490336    42Ag    24.530143  

    Final Occupation by Irrep:
             Ag   B1g   B2g   B3g    Au   B1u   B2u   B3u 
    DOCC [     3,    0,    1,    0,    0,    2,    1,    1 ]

  @DF-RKS Final Energy:   -78.59318956166757

   => Energetics <=

    Nuclear Repulsion Energy =             33.3598698812445704
    One-Electron Energy =                -170.2698783442805848
    Two-Electron Energy =                  66.5665301758649406
    DFT Exchange-Correlation Energy =      -8.3146238343154746
    Empirical Dispersion Energy =           0.0000000000000000
    VV10 Nonlocal Energy =                  0.0649125598189834
    Total Energy =                        -78.5931895616675575

Computation Completed


Properties will be evaluated at   0.000000,   0.000000,   0.000000 [a0]

Properties computed using the SCF density matrix

  Nuclear Dipole Moment: [e a0]
     X:     0.0000      Y:     0.0000      Z:     0.0000

  Electronic Dipole Moment: [e a0]
     X:     0.0000      Y:     0.0000      Z:     0.0000

  Dipole Moment: [e a0]
     X:     0.0000      Y:     0.0000      Z:     0.0000     Total:     0.0000

  Dipole Moment: [D]
     X:     0.0000      Y:     0.0000      Z:     0.0000     Total:     0.0000


*** tstop() called on bp1-compute00140.data.bp.acrc.priv at Tue Apr 27 16:59:43 2021
Module time:
	user time   =     137.93 seconds =       2.30 minutes
	system time =       2.97 seconds =       0.05 minutes
	total time  =          6 seconds =       0.10 minutes
Total time:
	user time   =     702.52 seconds =      11.71 minutes
	system time =      22.31 seconds =       0.37 minutes
	total time  =         32 seconds =       0.53 minutes

  //>>>>>>>>>>>>>>>>>>>>>>>>>>>>>>>>>>>//
  //    Loading displacement 6 of 7    //
  //<<<<<<<<<<<<<<<<<<<<<<<<<<<<<<<<<<<//

*** tstart() called on bp1-compute00140.data.bp.acrc.priv
*** at Tue Apr 27 16:59:43 2021

   => Loading Basis Set <=

    Name: CC-PV(Q+D)Z
    Role: ORBITAL
    Keyword: BASIS
    atoms 1-2 entry C          line   249 file /work/zw18965/.conda/envs/p4env/share/psi4/basis/cc-pv_qpd_z.gbs 
    atoms 3-6 entry H          line    32 file /work/zw18965/.conda/envs/p4env/share/psi4/basis/cc-pv_qpd_z.gbs 


         ---------------------------------------------------------
                                   SCF
               by Justin Turney, Rob Parrish, Andy Simmonett
                          and Daniel G. A. Smith
                              RKS Reference
                       24 Threads, 137329 MiB Core
         ---------------------------------------------------------

  ==> Geometry <==

    Molecular point group: d2h
    Full point group: D2h

    Geometry (in Angstrom), charge = 0, multiplicity = 1:

       Center              X                  Y                   Z               Mass       
    ------------   -----------------  -----------------  -----------------  -----------------
         C            0.000000000000    -0.000000000000    -0.667100000000    12.000000000000
         C            0.000000000000    -0.000000000000     0.667100000000    12.000000000000
         H            0.923404134200     0.000000000000     1.230315722629     1.007825032230
         H           -0.923404134200    -0.000000000000     1.230315722629     1.007825032230
         H            0.923404134200     0.000000000000    -1.230315722629     1.007825032230
         H           -0.923404134200    -0.000000000000    -1.230315722629     1.007825032230

  Running in d2h symmetry.

  Rotational constants: A =      4.90420  B =      1.00447  C =      0.83371 [cm^-1]
  Rotational constants: A = 147024.06889  B =  30113.23093  C =  24994.00038 [MHz]
  Nuclear repulsion =   33.386210109592625

  Charge       = 0
  Multiplicity = 1
  Electrons    = 16
  Nalpha       = 8
  Nbeta        = 8

  ==> Algorithm <==

  SCF Algorithm Type is DF.
  DIIS enabled.
  MOM disabled.
  Fractional occupation disabled.
  Guess Type is SAD.
  Energy threshold   = 1.00e-08
  Density threshold  = 1.00e-08
  Integral threshold = 0.00e+00

  ==> Primary Basis <==

  Basis Set: CC-PV(Q+D)Z
    Blend: CC-PV(Q+D)Z
    Number of shells: 70
    Number of basis function: 230
    Number of Cartesian functions: 280
    Spherical Harmonics?: true
    Max angular momentum: 4

  ==> DFT Potential <==

   => Composite Functional: WB97X-V <= 

    wB97X-V Hyb-GGA Exchange-Correlation Functional

    N. Mardirossian and M. Head-Gordon, Phys. Chem. Chem. Phys. 16, 9904 (2014)

    Deriv               =              1
    GGA                 =           TRUE
    Meta                =          FALSE

    Exchange Hybrid     =           TRUE
    MP2 Hybrid          =          FALSE

   => Exchange-Correlation Functionals <=

    1.0000   wB97X-V range-separated functional

   => Exact (HF) Exchange <=

    0.8330            HF,LR [omega = 0.3000]
    0.1670               HF 

   => VV10 Non-Local Parameters <=

    VV10 B              =     6.0000E+00
    VV10 C              =     1.0000E-02

   => Molecular Quadrature <=

    Radial Scheme          =       TREUTLER
    Pruning Scheme         =           FLAT
    Nuclear Scheme         =       TREUTLER

    BS radius alpha        =              1
    Pruning alpha          =              1
    Radial Points          =             75
    Spherical Points       =            302
    Total Points           =         134258
    Total Blocks           =           1096
    Max Points             =            256
    Max Functions          =            230

   => Loading Basis Set <=

    Name: (CC-PV(Q+D)Z AUX)
    Role: JKFIT
    Keyword: DF_BASIS_SCF
    atoms 1-2 entry C          line   137 file /work/zw18965/.conda/envs/p4env/share/psi4/basis/cc-pvqz-jkfit.gbs 
    atoms 3-6 entry H          line    51 file /work/zw18965/.conda/envs/p4env/share/psi4/basis/cc-pvqz-jkfit.gbs 

  ==> Pre-Iterations <==

   -------------------------------------------------------
    Irrep   Nso     Nmo     Nalpha   Nbeta   Ndocc  Nsocc
   -------------------------------------------------------
     Ag        42      42       0       0       0       0
     B1g       17      17       0       0       0       0
     B2g       33      33       0       0       0       0
     B3g       23      23       0       0       0       0
     Au        17      17       0       0       0       0
     B1u       42      42       0       0       0       0
     B2u       23      23       0       0       0       0
     B3u       33      33       0       0       0       0
   -------------------------------------------------------
    Total     230     230       8       8       8       0
   -------------------------------------------------------

  ==> Integral Setup <==

  ==> DiskDFJK: Density-Fitted J/K Matrices <==

    J tasked:                  Yes
    K tasked:                  Yes
    wK tasked:                 Yes
    Omega:               3.000E-01
    OpenMP threads:             24
    Integrals threads:          24
    Memory [MiB]:           102245
    Algorithm:                Core
    Integral Cache:           NONE
    Schwarz Cutoff:          1E-12
    Fitting Condition:       1E-10

   => Auxiliary Basis Set <=

  Basis Set: (CC-PV(Q+D)Z AUX)
    Blend: CC-PVQZ-JKFIT
    Number of shells: 108
    Number of basis function: 416
    Number of Cartesian functions: 548
    Spherical Harmonics?: true
    Max angular momentum: 5

  Cached 100.0% of DFT collocation blocks in 0.733 [GiB].

  Minimum eigenvalue in the overlap matrix is 1.0153203649E-04.
  Using Symmetric Orthogonalization.

  SCF Guess: Superposition of Atomic Densities via on-the-fly atomic UHF.

  ==> Iterations <==

                           Total Energy        Delta E     RMS |[F,P]|

   @DF-RKS iter SAD:   -77.86750907926066   -7.78675e+01   0.00000e+00 
   @DF-RKS iter   1:   -78.47349704783365   -6.05988e-01   5.75826e-03 DIIS
   @DF-RKS iter   2:   -78.54485018119169   -7.13531e-02   3.68799e-03 DIIS
   @DF-RKS iter   3:   -78.59295379110081   -4.81036e-02   1.67543e-04 DIIS
   @DF-RKS iter   4:   -78.59316470898928   -2.10918e-04   2.42592e-05 DIIS
   @DF-RKS iter   5:   -78.59316913320826   -4.42422e-06   3.93070e-06 DIIS
   @DF-RKS iter   6:   -78.59316924757417   -1.14366e-07   6.22328e-07 DIIS
   @DF-RKS iter   7:   -78.59316925156899   -3.99483e-09   7.09105e-08 DIIS
   @DF-RKS iter   8:   -78.59316925161649   -4.74927e-11   6.85735e-09 DIIS
  Energy and wave function converged.


  ==> Post-Iterations <==

    Orbital Energies [Eh]
    ---------------------

    Doubly Occupied:                                                      

       1Ag   -10.268894     1B1u  -10.268006     2Ag    -0.893470  
       2B1u   -0.702668     1B3u   -0.584979     3Ag    -0.527763  
       1B2g   -0.461369     1B2u   -0.376793  

    Virtual:                                                              

       1B3g    0.086809     4Ag     0.115778     3B1u    0.139724  
       2B3u    0.146335     2B2g    0.193919     5Ag     0.259145  
       4B1u    0.282125     2B2u    0.295714     3B3u    0.332708  
       6Ag     0.337544     2B3g    0.381049     4B3u    0.426223  
       7Ag     0.439860     5B1u    0.443255     6B1u    0.454641  
       1B1g    0.457593     3B2g    0.512563     7B1u    0.575922  
       1Au     0.603659     3B2u    0.640308     4B2g    0.667975  
       8Ag     0.714819     5B3u    0.740819     5B2g    0.795834  
       9Ag     0.799836     4B2u    0.838652     3B3g    0.855326  
       2B1g    0.894723     4B3g    0.923540     8B1u    0.932005  
       6B3u    0.949006     9B1u    1.050959     7B3u    1.056626  
      10Ag     1.076024    10B1u    1.106964    11Ag     1.112242  
       6B2g    1.123906    11B1u    1.149801     2Au     1.199728  
      12Ag     1.283207     5B2u    1.382077     7B2g    1.410611  
[...]
       2B2    -0.701126     3A1    -0.584636     4A1    -0.529412  
       3B2    -0.458786     1B1    -0.378670  

    Virtual:                                                              

       1A2     0.088818     5A1     0.115778     4B2     0.139610  
       6A1     0.145740     5B2     0.194184     7A1     0.258935  
       6B2     0.282628     2B1     0.295074     8A1     0.332382  
       9A1     0.337094     2A2     0.381602    10A1     0.424426  
      11A1     0.439530     7B2     0.443463     8B2     0.455030  
       3B1     0.457381     9B2     0.512877    10B2     0.580556  
       3A2     0.603830     4B1     0.641121    11B2     0.667663  
      12A1     0.713993    13A1     0.741572    12B2     0.796950  
      14A1     0.798489     5B1     0.839932     4A2     0.854935  
       6B1     0.894411     5A2     0.923933    13B2     0.937131  
      15A1     0.950487    14B2     1.052787    16A1     1.054940  
      17A1     1.075528    15B2     1.107524    18A1     1.112689  
      16B2     1.122510    17B2     1.150914     6A2     1.200137  
      19A1     1.281166     7B1     1.381615    18B2     1.412065  
       7A2     1.543923    19B2     1.566476    20A1     1.606588  
      21A1     1.619316    22A1     1.624077    20B2     1.633881  
       8B1     1.708193     9B1     1.720203    23A1     1.799485  
      24A1     1.847379    21B2     1.856193    10B1     1.878680  
       8A2     1.902961    22B2     1.904575    25A1     1.907044  
      11B1     1.969035     9A2     1.970552    23B2     2.039523  
      26A1     2.084481    10A2     2.127704    24B2     2.140121  
      11A2     2.165512    27A1     2.220488    12B1     2.230886  
      25B2     2.238765    13B1     2.270981    28A1     2.406055  
      14B1     2.451860    26B2     2.471927    27B2     2.493022  
      12A2     2.507563    29A1     2.517122    13A2     2.540321  
      30A1     2.548747    28B2     2.554199    31A1     2.666601  
      15B1     2.679827    29B2     2.684387    32A1     2.758463  
      30B2     2.824881    31B2     2.861232    14A2     2.901266  
      16B1     2.930373    33A1     3.047252    34A1     3.091422  
      32B2     3.095281    15A2     3.167414    17B1     3.175995  
      35A1     3.197165    16A2     3.261969    33B2     3.470565  
      18B1     3.491464    34B2     3.549612    36A1     3.583571  
      37A1     3.624799    38A1     3.630563    35B2     3.632684  
      17A2     3.703868    36B2     3.739444    18A2     3.853797  
      39A1     3.903034    37B2     3.922153    38B2     3.937695  
      39B2     4.320180    40A1     4.363911    40B2     4.412129  
      41A1     4.913424    19B1     4.928804    42A1     4.983430  
      19A2     5.072193    20B1     5.092868    43A1     5.129721  
      21B1     5.168354    22B1     5.222801    44A1     5.454704  
      41B2     5.515909    20A2     5.525534    23B1     5.590735  
      45A1     5.592442    42B2     5.596774    21A2     5.604092  
      24B1     5.742101    25B1     5.780606    22A2     5.783510  
      46A1     5.837847    47A1     5.859530    43B2     5.872687  
      44B2     5.908743    23A2     5.958158    48A1     5.989494  
      49A1     6.038201    24A2     6.051182    45B2     6.064076  
      50A1     6.072105    25A2     6.129407    26B1     6.134552  
      46B2     6.160882    27B1     6.213610    28B1     6.270786  
      47B2     6.304723    48B2     6.337635    51A1     6.361498  
      52A1     6.460505    26A2     6.484782    53A1     6.491127  
      27A2     6.531667    49B2     6.533480    54A1     6.631912  
      50B2     6.640872    55A1     6.694361    29B1     6.791345  
      51B2     6.862922    30B1     6.914868    52B2     7.023493  
      28A2     7.061039    53B2     7.076372    29A2     7.109093  
      31B1     7.443789    30A2     7.478771    56A1     7.481448  
      54B2     7.505453    57A1     7.514070    32B1     7.542632  
      55B2     7.557887    58A1     7.600124    31A2     7.615486  
      33B1     7.634197    56B2     7.711482    34B1     7.718078  
      32A2     7.727602    57B2     7.757085    58B2     7.816076  
      59A1     7.868236    60A1     7.948408    59B2     8.123534  
      33A2     8.148731    61A1     8.151032    62A1     8.233174  
      60B2     8.281258    35B1     8.310231    36B1     8.333749  
      34A2     8.350922    61B2     8.416221    62B2     8.471797  
      37B1     8.505877    63A1     8.513531    64A1     8.556707  
      38B1     8.676898    65A1     8.679859    35A2     8.690805  
      66A1     8.726536    36A2     8.744072    63B2     8.768202  
      64B2     8.986778    37A2     9.046268    65B2     9.078887  
      38A2     9.104670    66B2     9.232596    67A1     9.263425  
      68A1     9.280438    67B2     9.568523    39B1     9.806184  
      40B1     9.879972    69A1     9.899882    70A1     9.951488  
      68B2    10.075647    39A2    10.108280    69B2    10.180228  
      71A1    10.261214    40A2    10.278096    70B2    10.498836  
      72A1    10.823235    71B2    11.135926    72B2    11.564726  
      73A1    11.584070    73B2    11.732982    74A1    12.376814  
      74B2    12.843103    75A1    24.512272    75B2    24.537899  

    Final Occupation by Irrep:
             A1    A2    B1    B2 
    DOCC [     4,    0,    1,    3 ]

  @DF-RKS Final Energy:   -78.59330773993564

   => Energetics <=

    Nuclear Repulsion Energy =             33.4711127234798198
    One-Electron Energy =                -170.4909142726857567
    Two-Electron Energy =                  66.6798846151576043
    DFT Exchange-Correlation Energy =      -8.3183000996718341
    Empirical Dispersion Energy =           0.0000000000000000
    VV10 Nonlocal Energy =                  0.0649092937845266
    Total Energy =                        -78.5933077399356392

Computation Completed


Properties will be evaluated at   0.000000,   0.000000,   0.000000 [a0]

Properties computed using the SCF density matrix

  Nuclear Dipole Moment: [e a0]
     X:     0.0046      Y:     0.0000      Z:     0.0000

  Electronic Dipole Moment: [e a0]
     X:    -0.0048      Y:     0.0000      Z:     0.0000

  Dipole Moment: [e a0]
     X:    -0.0002      Y:     0.0000      Z:     0.0000     Total:     0.0002

  Dipole Moment: [D]
     X:    -0.0005      Y:     0.0000      Z:     0.0000     Total:     0.0005


*** tstop() called on bp1-compute00140.data.bp.acrc.priv at Tue Apr 27 17:05:36 2021
Module time:
	user time   =     151.76 seconds =       2.53 minutes
	system time =       2.68 seconds =       0.04 minutes
	total time  =          6 seconds =       0.10 minutes
Total time:
	user time   =    8572.39 seconds =     142.87 minutes
	system time =     178.52 seconds =       2.98 minutes
	total time  =        385 seconds =       6.42 minutes

         ----------------------------------------------------------
                                   FINDIF
                     R. A. King and Jonathon Misiewicz
         ---------------------------------------------------------

  Computing second-derivative from energies using projected, 
  symmetry-adapted, cartesian coordinates.

  28 energies passed in, including the reference geometry.
    Using 3-point formula.
    Energy without displacement:  -78.5933090144
    Check energies below for precision!
    0: -1          :       -78.5933074736
    0: 1           :       -78.5933074676
    1: -1          :       -78.5933054192
    1: 1           :       -78.5933053679
    2: -1          :       -78.5933071435
    2: 1           :       -78.5933071436
    0: 1, 1: 1     :       -78.5933025265
    0: -1, 1: -1   :       -78.5933025682
    0: 1, 2: 1     :       -78.5933044003
    0: -1, 2: -1   :       -78.5933044070
    1: 1, 2: 1     :       -78.5933004781
    1: -1, 2: -1   :       -78.5933004882
    3: -1          :       -78.5933073561
    4: -1          :       -78.5933050299
    3: 1, 4: 1     :       -78.5932999043
    3: -1, 4: -1   :       -78.5932999037
    5: -1          :       -78.5933085326
    6: -1          :       -78.5933084723
    7: -1          :       -78.5933069353
    8: -1          :       -78.5933053867
    7: 1, 8: 1     :       -78.5933066082
    7: -1, 8: -1   :       -78.5933066079
    9: -1          :       -78.5933085513
    10: -1         :       -78.5933052007
    11: -1         :       -78.5933075178
    10: 1, 11: 1   :       -78.5933077401
    10: -1, 11: -1 :       -78.5933077399

-------------------------------------------------------------


  ==> Harmonic Vibrational Analysis <==

  non-mass-weighted Hessian:       Symmetric? True   Hermitian? True   Lin Dep Dim?  6 (0)
  projection of translations (True) and rotations (True) removed 6 degrees of freedom (6)
  total projector:                 Symmetric? True   Hermitian? True   Lin Dep Dim?  6 (6)
  mass-weighted Hessian:           Symmetric? True   Hermitian? True   Lin Dep Dim?  6 (0)
  pre-proj  low-frequency mode:    0.0000i [cm^-1]
  pre-proj  low-frequency mode:    0.0000i [cm^-1]
  pre-proj  low-frequency mode:    0.0000i [cm^-1]
  pre-proj  low-frequency mode:    0.0000i [cm^-1]
  pre-proj  low-frequency mode:    0.0000  [cm^-1]
  pre-proj  low-frequency mode:    0.0000  [cm^-1]
  pre-proj  all modes:['0.0000i' '0.0000i' '0.0000i' '0.0000i' '0.0000' '0.0000' '833.0133'
 '989.4881' '1009.2440' '1070.5163' '1245.2751' '1384.3870' '1475.9948'
 '1717.3326' '3144.1113' '3163.3891' '3221.4687' '3245.2956']
  projected mass-weighted Hessian: Symmetric? True   Hermitian? True   Lin Dep Dim?  6 (6)
  post-proj low-frequency mode:    0.0001i [cm^-1] (TR)
  post-proj low-frequency mode:    0.0000i [cm^-1] (TR)
  post-proj low-frequency mode:    0.0000i [cm^-1] (TR)
  post-proj low-frequency mode:    0.0000i [cm^-1] (TR)
  post-proj low-frequency mode:    0.0000  [cm^-1] (TR)
  post-proj low-frequency mode:    0.0000  [cm^-1] (TR)
  post-proj  all modes:['0.0001i' '0.0000i' '0.0000i' '0.0000i' '0.0000' '0.0000' '833.0133'
 '989.4881' '1009.2440' '1070.5163' '1245.2751' '1384.3870' '1475.9948'
 '1717.3326' '3144.1113' '3163.3891' '3221.4687' '3245.2956']

  Vibration                       7                   8                   9           
  Freq [cm^-1]                 833.0133            989.4881           1009.2440       
  Irrep                          B3u                 B2u                 B3g          
  Reduced mass [u]              1.0423              1.1607              1.5185        
  Force const [mDyne/A]         0.4261              0.6696              0.9113        
  Turning point v=0 [a0]        0.3724              0.3238              0.2803        
  RMS dev v=0 [a0 u^1/2]        0.2688              0.2467              0.2442        
  Char temp [K]               1198.5207           1423.6530           1452.0774       
  ----------------------------------------------------------------------------------
      1   C                0.04 -0.00  0.00   -0.00 -0.08  0.00    0.00  0.15 -0.00   
      2   C                0.04 -0.00  0.00   -0.00 -0.08 -0.00   -0.00 -0.15 -0.00   
      3   H               -0.24  0.00  0.44   -0.00  0.50  0.00    0.00  0.49 -0.00   
      4   H               -0.24  0.00 -0.44   -0.00  0.50 -0.00   -0.00  0.49  0.00   
      5   H               -0.24 -0.00 -0.44   -0.00  0.50 -0.00    0.00 -0.49  0.00   
      6   H               -0.24 -0.00  0.44    0.00  0.50  0.00    0.00 -0.49 -0.00   

  Vibration                       10                  11                  12          
  Freq [cm^-1]                1070.5163           1245.2751           1384.3870       
  Irrep                           Au                 B2g                  Ag          
  Reduced mass [u]              1.0078              1.5253              1.1866        
  Force const [mDyne/A]         0.6805              1.3936              1.3399        
  Turning point v=0 [a0]        0.3341              0.2518              0.2707        
  RMS dev v=0 [a0 u^1/2]        0.2371              0.2199              0.2085        
  Char temp [K]               1540.2346           1791.6736           1991.8246       
  ----------------------------------------------------------------------------------
      1   C                0.00  0.00 -0.00    0.15 -0.00 -0.00   -0.00  0.00 -0.09   
      2   C               -0.00  0.00 -0.00   -0.15  0.00 -0.00   -0.00 -0.00  0.09   
      3   H               -0.00  0.50 -0.00    0.14 -0.00 -0.47   -0.20  0.00  0.45   
      4   H                0.00 -0.50 -0.00    0.14 -0.00  0.47    0.20  0.00  0.45   
      5   H               -0.00 -0.50 -0.00   -0.14  0.00 -0.47   -0.20 -0.00 -0.45   
      6   H                0.00  0.50 -0.00   -0.14  0.00  0.47    0.20  0.00 -0.45   

  Vibration                       13                  14                  15          
  Freq [cm^-1]                1475.9948           1717.3326           3144.1113       
  Irrep                          B1u                  Ag                 B1u          
  Reduced mass [u]              1.1122              3.3881              1.0475        
  Force const [mDyne/A]         1.4276              5.8873              6.1011        
  Turning point v=0 [a0]        0.2708              0.1438              0.1912        
  RMS dev v=0 [a0 u^1/2]        0.2020              0.1872              0.1384        
  Char temp [K]               2123.6279           2470.8593           4523.6762       
  ----------------------------------------------------------------------------------
      1   C               -0.00  0.00 -0.07    0.00  0.00  0.33   -0.00 -0.00 -0.04   
      2   C                0.00 -0.00 -0.07    0.00  0.00 -0.33    0.00  0.00 -0.04   
      3   H               -0.28 -0.00  0.41   -0.38 -0.00  0.22    0.43 -0.00  0.25   
      4   H                0.28 -0.00  0.41    0.38 -0.00  0.22   -0.43  0.00  0.25   
      5   H                0.28 -0.00  0.41   -0.38 -0.00 -0.22   -0.43 -0.00  0.25   
      6   H               -0.28 -0.00  0.41    0.38 -0.00 -0.22    0.43 -0.00  0.25   

  Vibration                       16                  17                  18          
  Freq [cm^-1]                3163.3891           3221.4687           3245.2956       
  Irrep                           Ag                 B2g                 B3u          
  Reduced mass [u]              1.0754              1.1155              1.1181        
  Force const [mDyne/A]         6.3405              6.8205              6.9384        
  Turning point v=0 [a0]        0.1881              0.1830              0.1822        
  RMS dev v=0 [a0 u^1/2]        0.1379              0.1367              0.1362        
  Char temp [K]               4551.4125           4634.9763           4669.2578       
  ----------------------------------------------------------------------------------
      1   C                0.00  0.00  0.06    0.07  0.00 -0.00   -0.07  0.00  0.00   
      2   C                0.00  0.00 -0.06   -0.07  0.00 -0.00   -0.07  0.00 -0.00   
      3   H                0.43 -0.00  0.26    0.42  0.00  0.26    0.42  0.00  0.26   
      4   H               -0.43  0.00  0.26    0.42 -0.00 -0.26    0.42 -0.00 -0.26   
      5   H                0.43 -0.00 -0.26   -0.42 -0.00  0.26    0.42  0.00 -0.26   
      6   H               -0.43 -0.00 -0.26   -0.42 -0.00 -0.26    0.42 -0.00  0.26   

  ==> Thermochemistry Components <==

  Entropy, S
    Electronic S            0.000 [cal/(mol K)]        0.000 [J/(mol K)]       0.00000000 [mEh/K] (multiplicity = 1)
    Translational S        35.927 [cal/(mol K)]      150.318 [J/(mol K)]       0.05725309 [mEh/K] (mol. weight = 28.0313 [u], P = 101325.00 [Pa])
    Rotational S           15.843 [cal/(mol K)]       66.287 [J/(mol K)]       0.02524745 [mEh/K] (symmetry no. = 4)
    Vibrational S           0.511 [cal/(mol K)]        2.139 [J/(mol K)]       0.00081472 [mEh/K]
  Total S                  52.281 [cal/(mol K)]      218.744 [J/(mol K)]       0.08331526 [mEh/K]
  Correction S              0.000 [cal/(mol K)]        0.000 [J/(mol K)]       0.00000000 [mEh/K]

  Constant volume heat capacity, Cv
    Electronic Cv           0.000 [cal/(mol K)]        0.000 [J/(mol K)]       0.00000000 [mEh/K]
    Translational Cv        2.981 [cal/(mol K)]       12.472 [J/(mol K)]       0.00475022 [mEh/K]
    Rotational Cv           2.981 [cal/(mol K)]       12.472 [J/(mol K)]       0.00475022 [mEh/K]
    Vibrational Cv          2.065 [cal/(mol K)]        8.640 [J/(mol K)]       0.00329078 [mEh/K]
  Total Cv                  8.027 [cal/(mol K)]       33.583 [J/(mol K)]       0.01279121 [mEh/K]
  Correction Cv             0.000 [cal/(mol K)]        0.000 [J/(mol K)]       0.00000000 [mEh/K]

  Constant pressure heat capacity, Cp
    Electronic Cp           0.000 [cal/(mol K)]        0.000 [J/(mol K)]       0.00000000 [mEh/K]
    Translational Cp        4.968 [cal/(mol K)]       20.786 [J/(mol K)]       0.00791703 [mEh/K]
    Rotational Cp           2.981 [cal/(mol K)]       12.472 [J/(mol K)]       0.00475022 [mEh/K]
    Vibrational Cp          2.065 [cal/(mol K)]        8.640 [J/(mol K)]       0.00329078 [mEh/K]
  Total Cp                 10.014 [cal/(mol K)]       41.898 [J/(mol K)]       0.01595802 [mEh/K]
  Correction Cp             0.000 [cal/(mol K)]        0.000 [J/(mol K)]       0.00000000 [mEh/K]

  ==> Thermochemistry Energy Analysis <==

  Raw electronic energy, E0
  Total E0, Electronic energy at well bottom at 0 [K]                  -78.59330901 [Eh]

  Zero-point energy, ZPE_vib = Sum_i nu_i / 2
    Electronic ZPE          0.000 [kcal/mol]        0.000 [kJ/mol]       0.00000000 [Eh]
    Translational ZPE       0.000 [kcal/mol]        0.000 [kJ/mol]       0.00000000 [Eh]
    Rotational ZPE          0.000 [kcal/mol]        0.000 [kJ/mol]       0.00000000 [Eh]
    Vibrational ZPE        32.165 [kcal/mol]      134.577 [kJ/mol]       0.05125767 [Eh]       11249.758 [cm^-1]
  Correction ZPE           32.165 [kcal/mol]      134.577 [kJ/mol]       0.05125767 [Eh]       11249.758 [cm^-1]
  Total ZPE, Electronic energy at 0 [K]                                -78.54205135 [Eh]

  Thermal Energy, E (includes ZPE)
    Electronic E            0.000 [kcal/mol]        0.000 [kJ/mol]       0.00000000 [Eh]
    Translational E         0.889 [kcal/mol]        3.718 [kJ/mol]       0.00141628 [Eh]
    Rotational E            0.889 [kcal/mol]        3.718 [kJ/mol]       0.00141628 [Eh]
    Vibrational E          32.291 [kcal/mol]      135.104 [kJ/mol]       0.05145828 [Eh]
  Correction E             34.068 [kcal/mol]      142.541 [kJ/mol]       0.05429084 [Eh]
  Total E, Electronic energy at  298.15 [K]                            -78.53901818 [Eh]

  Enthalpy, H_trans = E_trans + k_B * T
    Electronic H            0.000 [kcal/mol]        0.000 [kJ/mol]       0.00000000 [Eh]
    Translational H         1.481 [kcal/mol]        6.197 [kJ/mol]       0.00236046 [Eh]
    Rotational H            0.889 [kcal/mol]        3.718 [kJ/mol]       0.00141628 [Eh]
    Vibrational H          32.291 [kcal/mol]      135.104 [kJ/mol]       0.05145828 [Eh]
  Correction H             34.661 [kcal/mol]      145.020 [kJ/mol]       0.05523502 [Eh]
  Total H, Enthalpy at  298.15 [K]                                     -78.53807399 [Eh]

  Gibbs free energy, G = H - T * S
    Electronic G            0.000 [kcal/mol]        0.000 [kJ/mol]       0.00000000 [Eh]
    Translational G        -9.230 [kcal/mol]      -38.620 [kJ/mol]      -0.01470955 [Eh]
    Rotational G           -3.835 [kcal/mol]      -16.045 [kJ/mol]      -0.00611125 [Eh]
    Vibrational G          32.138 [kcal/mol]      134.466 [kJ/mol]       0.05121538 [Eh]
  Correction G             19.073 [kcal/mol]       79.801 [kJ/mol]       0.03039458 [Eh]
  Total G, Free enthalpy at  298.15 [K]                                -78.56291444 [Eh]

    Psi4 stopped on: Tuesday, 27 April 2021 05:05PM
    Psi4 wall time for execution: 0:06:27.09

*** Psi4 exiting successfully. Buy a developer a beer!
