
    -----------------------------------------------------------------------
          Psi4: An Open-Source Ab Initio Electronic Structure Package
                               Psi4 1.3.2 release

                         Git: Rev {HEAD} ecbda83 


    R. M. Parrish, L. A. Burns, D. G. A. Smith, A. C. Simmonett,
    A. E. DePrince III, E. G. Hohenstein, U. Bozkaya, A. Yu. Sokolov,
    R. Di Remigio, R. M. Richard, J. F. Gonthier, A. M. James,
    H. R. McAlexander, A. Kumar, M. Saitow, X. Wang, B. P. Pritchard,
    P. Verma, H. F. Schaefer III, K. Patkowski, R. A. King, E. F. Valeev,
    F. A. Evangelista, J. M. Turney, T. D. Crawford, and C. D. Sherrill,
    J. Chem. Theory Comput. 13(7) pp 3185--3197 (2017).
    (doi: 10.1021/acs.jctc.7b00174)


                         Additional Contributions by
    P. Kraus, H. Kruse, M. H. Lechner, M. C. Schieber, R. A. Shaw,
    A. Alenaizan, R. Galvelis, Z. L. Glick, S. Lehtola, and J. P. Misiewicz

    -----------------------------------------------------------------------


    Psi4 started on: Tuesday, 27 April 2021 04:57PM

    Process ID: 129026
    Host:       bp1-compute00067.data.bp.acrc.priv
    PSIDATADIR: /work/zw18965/.conda/envs/p4env/share/psi4
    Memory:     500.0 MiB
    Threads:    24
    
  ==> Input File <==

--------------------------------------------------------------------------
memory 144 GB

molecule {
0 1
C 0.0000000000 0.0000000000 0.0000000000
F 0.0000000000 0.0000000000 1.2971000000
F 1.2538059978 0.0000000000 -0.3323235319
}

set dynamic_level 1
set basis cc-pV(Q+d)Z
 
optimize("wB97X-V")
frequencies("wB97X-V")
--------------------------------------------------------------------------

  Memory set to 134.110 GiB by Python driver.
gradient() will perform gradient computation by finite difference of analytic energies.

         ----------------------------------------------------------
                                   FINDIF
                     R. A. King and Jonathon Misiewicz
         ---------------------------------------------------------

  Using finite-differences of energies to determine gradients.
    Generating geometries for use with 3-point formula.
    Displacement size will be 5.00e-03.
    Number of atoms is 3.
    Number of symmetric SALCs is 2.
    Translations projected? 1. Rotations projected? 1.
    Number of geometries (including reference) is 5.

  //>>>>>>>>>>>>>>>>>>>>>>>>>>>>>>>>>>>//
  //    Loading displacement 1 of 5    //
  //<<<<<<<<<<<<<<<<<<<<<<<<<<<<<<<<<<<//

*** tstart() called on bp1-compute00067.data.bp.acrc.priv
*** at Tue Apr 27 16:57:54 2021

   => Loading Basis Set <=

    Name: CC-PV(Q+D)Z
    Role: ORBITAL
    Keyword: BASIS
    atoms 1   entry C          line   249 file /work/zw18965/.conda/envs/p4env/share/psi4/basis/cc-pv_qpd_z.gbs 
    atoms 2-3 entry F          line   399 file /work/zw18965/.conda/envs/p4env/share/psi4/basis/cc-pv_qpd_z.gbs 


         ---------------------------------------------------------
                                   SCF
               by Justin Turney, Rob Parrish, Andy Simmonett
                          and Daniel G. A. Smith
                              RKS Reference
                       24 Threads, 137329 MiB Core
         ---------------------------------------------------------

  ==> Geometry <==

    Molecular point group: c2v
    Full point group: C2v

    Geometry (in Angstrom), charge = 0, multiplicity = 1:

       Center              X                  Y                   Z               Mass       
    ------------   -----------------  -----------------  -----------------  -----------------
         C            0.000000000000     0.000000000000    -0.601159776770    12.000000000000
         F           -0.000000000000     1.027989606760     0.189855885767    18.998403162730
         F            0.000000000000    -1.027989606760     0.189855885767    18.998403162730

  Running in c2v symmetry.

  Rotational constants: A =      2.95420  B =      0.41983  C =      0.36759 [cm^-1]
  Rotational constants: A =  88564.76119  B =  12586.14285  C =  11020.05707 [MHz]
  Nuclear repulsion =   64.908849321288884

  Charge       = 0
  Multiplicity = 1
  Electrons    = 24
  Nalpha       = 12
  Nbeta        = 12

  ==> Algorithm <==

  SCF Algorithm Type is DF.
  DIIS enabled.
  MOM disabled.
  Fractional occupation disabled.
  Guess Type is SAD.
  Energy threshold   = 1.00e-08
  Density threshold  = 1.00e-08
  Integral threshold = 0.00e+00

  ==> Primary Basis <==

  Basis Set: CC-PV(Q+D)Z
    Blend: CC-PV(Q+D)Z
    Number of shells: 45
    Number of basis function: 165
    Number of Cartesian functions: 210
    Spherical Harmonics?: true
    Max angular momentum: 4

  ==> DFT Potential <==

   => Composite Functional: WB97X-V <= 

    wB97X-V Hyb-GGA Exchange-Correlation Functional

    N. Mardirossian and M. Head-Gordon, Phys. Chem. Chem. Phys. 16, 9904 (2014)

    Deriv               =              1
    GGA                 =           TRUE
    Meta                =          FALSE

    Exchange Hybrid     =           TRUE
    MP2 Hybrid          =          FALSE

   => Exchange-Correlation Functionals <=

    1.0000   wB97X-V range-separated functional

   => Exact (HF) Exchange <=

    0.8330            HF,LR [omega = 0.3000]
    0.1670               HF 

   => VV10 Non-Local Parameters <=

    VV10 B              =     6.0000E+00
    VV10 C              =     1.0000E-02

   => Molecular Quadrature <=

    Radial Scheme          =       TREUTLER
    Pruning Scheme         =           FLAT
    Nuclear Scheme         =       TREUTLER

    BS radius alpha        =              1
    Pruning alpha          =              1
    Radial Points          =             75
    Spherical Points       =            302
    Total Points           =          66199
    Total Blocks           =            561
    Max Points             =            254
    Max Functions          =            165

   => Loading Basis Set <=

    Name: (CC-PV(Q+D)Z AUX)
    Role: JKFIT
    Keyword: DF_BASIS_SCF
    atoms 1   entry C          line   137 file /work/zw18965/.conda/envs/p4env/share/psi4/basis/cc-pvqz-jkfit.gbs 
    atoms 2-3 entry F          line   311 file /work/zw18965/.conda/envs/p4env/share/psi4/basis/cc-pvqz-jkfit.gbs 

  ==> Pre-Iterations <==

   -------------------------------------------------------
    Irrep   Nso     Nmo     Nalpha   Nbeta   Ndocc  Nsocc
   -------------------------------------------------------
     A1        57      57       0       0       0       0
     A2        27      27       0       0       0       0
     B1        33      33       0       0       0       0
     B2        48      48       0       0       0       0
   -------------------------------------------------------
    Total     165     165      12      12      12       0
   -------------------------------------------------------

  ==> Integral Setup <==

  ==> DiskDFJK: Density-Fitted J/K Matrices <==

    J tasked:                  Yes
    K tasked:                  Yes
    wK tasked:                 Yes
    Omega:               3.000E-01
    OpenMP threads:             24
    Integrals threads:          24
    Memory [MiB]:           102739
    Algorithm:                Core
    Integral Cache:           NONE
    Schwarz Cutoff:          1E-12
    Fitting Condition:       1E-10

   => Auxiliary Basis Set <=

  Basis Set: (CC-PV(Q+D)Z AUX)
    Blend: CC-PVQZ-JKFIT
    Number of shells: 84
    Number of basis function: 318
    Number of Cartesian functions: 426
    Spherical Harmonics?: true
    Max angular momentum: 5

  Cached 100.0% of DFT collocation blocks in 0.252 [GiB].

  Minimum eigenvalue in the overlap matrix is 9.8968727963E-04.
  Using Symmetric Orthogonalization.

  SCF Guess: Superposition of Atomic Densities via on-the-fly atomic UHF.

  ==> Iterations <==

                           Total Energy        Delta E     RMS |[F,P]|

   @DF-RKS iter SAD:  -237.23701544873495   -2.37237e+02   0.00000e+00 
   @DF-RKS iter   1:  -237.70325399501681   -4.66239e-01   3.77446e-03 DIIS
   @DF-RKS iter   2:  -237.71238144260218   -9.12745e-03   3.55364e-03 DIIS
   @DF-RKS iter   3:  -237.73512250199778   -2.27411e-02   4.48833e-04 DIIS
   @DF-RKS iter   4:  -237.73560962460829   -4.87123e-04   6.37972e-05 DIIS
   @DF-RKS iter   5:  -237.73563555392391   -2.59293e-05   1.10463e-05 DIIS
   @DF-RKS iter   6:  -237.73563646868763   -9.14764e-07   2.61237e-06 DIIS
   @DF-RKS iter   7:  -237.73563651671074   -4.80231e-08   4.25439e-07 DIIS
   @DF-RKS iter   8:  -237.73563651831549   -1.60475e-09   1.13620e-07 DIIS
   @DF-RKS iter   9:  -237.73563651839837   -8.28777e-11   3.11715e-08 DIIS
   @DF-RKS iter  10:  -237.73563651840391   -5.54223e-12   4.63234e-09 DIIS
  Energy and wave function converged.


  ==> Post-Iterations <==

    Orbital Energies [Eh]
    ---------------------

    Doubly Occupied:                                                      

       1B2   -24.837840     1A1   -24.837829     2A1   -10.474535  
       3A1    -1.476176     2B2    -1.397568     4A1    -0.834582  
       3B2    -0.723552     1B1    -0.680722     5A1    -0.675512  
       1A2    -0.597824     4B2    -0.571555     6A1    -0.417528  

    Virtual:                                                              

       2B1     0.012818     5B2     0.196856     7A1     0.205341  
       3B1     0.280369     8A1     0.285481     6B2     0.384413  
       9A1     0.387664     7B2     0.486822    10A1     0.495504  
       4B1     0.604741    11A1     0.619413     2A2     0.634193  
       3A2     0.706670     5B1     0.737919    12A1     0.758732  
       8B2     0.768875    13A1     0.824043     9B2     0.901150  
      10B2     1.098340    14A1     1.105849     6B1     1.322679  
       7B1     1.352139    15A1     1.356623    16A1     1.392158  
      11B2     1.485933    12B2     1.520550     4A2     1.545358  
       5A2     1.644792     8B1     1.672942    17A1     1.747144  
      18A1     1.777029    13B2     1.879172    19A1     1.904224  
       9B1     1.958032    14B2     1.988266     6A2     2.006821  
      20A1     2.103552    10B1     2.190272    21A1     2.191405  
      15B2     2.295549    11B1     2.383392    16B2     2.401647  
      22A1     2.413521     7A2     2.431216    17B2     2.709331  
      23A1     2.777741     8A2     3.242482    12B1     3.261965  
      18B2     3.274344    24A1     3.380192    19B2     3.926883  
      25A1     3.949461     9A2     4.028192    13B1     4.078456  
      26A1     4.106857    10A2     4.193813    20B2     4.203509  
      21B2     4.243184    27A1     4.263264    14B1     4.343265  
      22B2     4.352901    15B1     4.454365    11A2     4.503119  
      28A1     4.581131    23B2     4.598171    29A1     4.681685  
      24B2     4.801757    30A1     4.901734    31A1     5.043476  
      16B1     5.055661    12A2     5.105096    25B2     5.168866  
      17B1     5.176815    32A1     5.267949    33A1     5.406244  
      26B2     5.432183    13A2     5.482458    18B1     5.505962  
      34A1     5.578659    27B2     5.609075    14A2     5.639893  
      19B1     5.716396    35A1     5.731933    28B2     5.831974  
      36A1     5.930551    20B1     5.934619    29B2     5.952209  
      15A2     5.981905    21B1     6.045169    37A1     6.161467  
      22B1     6.187711    16A2     6.260513    38A1     6.361537  
      30B2     6.438749    39A1     6.993553    23B1     7.284186  
      40A1     7.317146    31B2     7.328498    17A2     7.391867  
      32B2     7.565713    41A1     8.221051    33B2     8.719622  
      18A2    11.408821    34B2    11.416031    42A1    11.420161  
      24B1    11.420342    19A2    11.422615    35B2    11.423818  
      25B1    11.440339    43A1    11.497726    36B2    11.614478  
      26B1    11.702104    44A1    11.787408    20A2    11.847320  
      45A1    11.918316    21A2    12.019422    27B1    12.045538  
      37B2    12.138223    46A1    12.211362    38B2    12.229686  
      22A2    12.598413    28B1    12.619812    47A1    12.696216  
      39B2    12.705386    40B2    13.536561    48A1    13.623933  
      29B1    14.590397    23A2    14.595277    41B2    14.596324  
      49A1    14.598667    24A2    14.819670    42B2    14.846108  
      30B1    14.956564    50A1    14.999138    51A1    15.171781  
      31B1    15.484197    43B2    15.507253    25A2    15.588285  
      52A1    15.697065    44B2    15.759647    53A1    15.797180  
      26A2    15.841531    32B1    15.845002    45B2    15.900355  
      54A1    16.103645    27A2    16.140560    33B1    16.169318  
      46B2    16.389458    55A1    16.780833    47B2    16.861243  
      56A1    22.260531    48B2    52.742569    57A1    52.850061  

    Final Occupation by Irrep:
             A1    A2    B1    B2 
    DOCC [     6,    1,    1,    4 ]

  @DF-RKS Final Energy:  -237.73563651840391

   => Energetics <=

    Nuclear Repulsion Energy =             64.9088493212888835
    One-Electron Energy =                -457.5333288880144096
    Two-Electron Energy =                 173.6430591750265080
    DFT Exchange-Correlation Energy =     -18.8548460302058700
    Empirical Dispersion Energy =           0.0000000000000000
    VV10 Nonlocal Energy =                  0.1006299035009846
    Total Energy =                       -237.7356365184039078

Computation Completed


Properties will be evaluated at   0.000000,   0.000000,   0.000000 [a0]

Properties computed using the SCF density matrix

  Nuclear Dipole Moment: [e a0]
     X:    -0.0000      Y:    -0.0000      Z:    -0.3582

  Electronic Dipole Moment: [e a0]
     X:     0.0000      Y:     0.0000      Z:     0.6142

  Dipole Moment: [e a0]
     X:    -0.0000      Y:    -0.0000      Z:     0.2560     Total:     0.2560

  Dipole Moment: [D]
     X:    -0.0000      Y:    -0.0000      Z:     0.6507     Total:     0.6507


*** tstop() called on bp1-compute00067.data.bp.acrc.priv at Tue Apr 27 16:57:59 2021
Module time:
	user time   =      84.73 seconds =       1.41 minutes
	system time =       6.81 seconds =       0.11 minutes
	total time  =          5 seconds =       0.08 minutes
Total time:
	user time   =      84.73 seconds =       1.41 minutes
	system time =       6.81 seconds =       0.11 minutes
	total time  =          5 seconds =       0.08 minutes

  //>>>>>>>>>>>>>>>>>>>>>>>>>>>>>>>>>>>//
  //    Loading displacement 2 of 5    //
  //<<<<<<<<<<<<<<<<<<<<<<<<<<<<<<<<<<<//

*** tstart() called on bp1-compute00067.data.bp.acrc.priv
*** at Tue Apr 27 16:57:59 2021

   => Loading Basis Set <=

    Name: CC-PV(Q+D)Z
    Role: ORBITAL
    Keyword: BASIS
    atoms 1   entry C          line   249 file /work/zw18965/.conda/envs/p4env/share/psi4/basis/cc-pv_qpd_z.gbs 
    atoms 2-3 entry F          line   399 file /work/zw18965/.conda/envs/p4env/share/psi4/basis/cc-pv_qpd_z.gbs 


         ---------------------------------------------------------
                                   SCF
               by Justin Turney, Rob Parrish, Andy Simmonett
                          and Daniel G. A. Smith
                              RKS Reference
                       24 Threads, 137329 MiB Core
         ---------------------------------------------------------

  ==> Geometry <==

    Molecular point group: c2v
    Full point group: C2v

    Geometry (in Angstrom), charge = 0, multiplicity = 1:

       Center              X                  Y                   Z               Mass       
    ------------   -----------------  -----------------  -----------------  -----------------
         C            0.000000000000     0.000000000000    -0.601825636776    12.000000000000
         F           -0.000000000000     1.027989606760     0.190066175021    18.998403162730
         F            0.000000000000    -1.027989606760     0.190066175021    18.998403162730

  Running in c2v symmetry.

  Rotational constants: A =      2.94767  B =      0.41983  C =      0.36749 [cm^-1]
  Rotational constants: A =  88368.89347  B =  12586.14285  C =  11017.01863 [MHz]
  Nuclear repulsion =   64.890700862422563

  Charge       = 0
  Multiplicity = 1
  Electrons    = 24
  Nalpha       = 12
  Nbeta        = 12

  ==> Algorithm <==

  SCF Algorithm Type is DF.
  DIIS enabled.
  MOM disabled.
  Fractional occupation disabled.
  Guess Type is SAD.
  Energy threshold   = 1.00e-08
  Density threshold  = 1.00e-08
  Integral threshold = 0.00e+00

  ==> Primary Basis <==

  Basis Set: CC-PV(Q+D)Z
    Blend: CC-PV(Q+D)Z
    Number of shells: 45
    Number of basis function: 165
    Number of Cartesian functions: 210
    Spherical Harmonics?: true
    Max angular momentum: 4

  ==> DFT Potential <==

   => Composite Functional: WB97X-V <= 

    wB97X-V Hyb-GGA Exchange-Correlation Functional

    N. Mardirossian and M. Head-Gordon, Phys. Chem. Chem. Phys. 16, 9904 (2014)

    Deriv               =              1
    GGA                 =           TRUE
    Meta                =          FALSE

    Exchange Hybrid     =           TRUE
    MP2 Hybrid          =          FALSE

   => Exchange-Correlation Functionals <=

    1.0000   wB97X-V range-separated functional

   => Exact (HF) Exchange <=

    0.8330            HF,LR [omega = 0.3000]
    0.1670               HF 

   => VV10 Non-Local Parameters <=

    VV10 B              =     6.0000E+00
    VV10 C              =     1.0000E-02

   => Molecular Quadrature <=

    Radial Scheme          =       TREUTLER
    Pruning Scheme         =           FLAT
    Nuclear Scheme         =       TREUTLER

    BS radius alpha        =              1
    Pruning alpha          =              1
    Radial Points          =             75
    Spherical Points       =            302
    Total Points           =          66199
    Total Blocks           =            561
    Max Points             =            254
    Max Functions          =            165

   => Loading Basis Set <=

    Name: (CC-PV(Q+D)Z AUX)
    Role: JKFIT
    Keyword: DF_BASIS_SCF
    atoms 1   entry C          line   137 file /work/zw18965/.conda/envs/p4env/share/psi4/basis/cc-pvqz-jkfit.gbs 
    atoms 2-3 entry F          line   311 file /work/zw18965/.conda/envs/p4env/share/psi4/basis/cc-pvqz-jkfit.gbs 

  ==> Pre-Iterations <==

   -------------------------------------------------------
    Irrep   Nso     Nmo     Nalpha   Nbeta   Ndocc  Nsocc
   -------------------------------------------------------
     A1        57      57       0       0       0       0
     A2        27      27       0       0       0       0
     B1        33      33       0       0       0       0
     B2        48      48       0       0       0       0
   -------------------------------------------------------
    Total     165     165      12      12      12       0
   -------------------------------------------------------

  ==> Integral Setup <==

  ==> DiskDFJK: Density-Fitted J/K Matrices <==

    J tasked:                  Yes
    K tasked:                  Yes
    wK tasked:                 Yes
    Omega:               3.000E-01
    OpenMP threads:             24
    Integrals threads:          24
    Memory [MiB]:           102739
    Algorithm:                Core
    Integral Cache:           NONE
    Schwarz Cutoff:          1E-12
    Fitting Condition:       1E-10

   => Auxiliary Basis Set <=

  Basis Set: (CC-PV(Q+D)Z AUX)
    Blend: CC-PVQZ-JKFIT
    Number of shells: 84
    Number of basis function: 318
    Number of Cartesian functions: 426
    Spherical Harmonics?: true
    Max angular momentum: 5

  Cached 100.0% of DFT collocation blocks in 0.252 [GiB].

  Minimum eigenvalue in the overlap matrix is 9.9132973581E-04.
  Using Symmetric Orthogonalization.

  SCF Guess: Superposition of Atomic Densities via on-the-fly atomic UHF.

  ==> Iterations <==

                           Total Energy        Delta E     RMS |[F,P]|

   @DF-RKS iter SAD:  -237.23541240801737   -2.37235e+02   0.00000e+00 
   @DF-RKS iter   1:  -237.70321597978696   -4.67804e-01   3.77743e-03 DIIS
   @DF-RKS iter   2:  -237.71227318385783   -9.05720e-03   3.56151e-03 DIIS
   @DF-RKS iter   3:  -237.73513087888333   -2.28577e-02   4.48461e-04 DIIS
   @DF-RKS iter   4:  -237.73561728006976   -4.86401e-04   6.37740e-05 DIIS
   @DF-RKS iter   5:  -237.73564317676227   -2.58967e-05   1.10468e-05 DIIS
   @DF-RKS iter   6:  -237.73564409001600   -9.13254e-07   2.62611e-06 DIIS
   @DF-RKS iter   7:  -237.73564413807637   -4.80604e-08   4.33202e-07 DIIS
   @DF-RKS iter   8:  -237.73564413970391   -1.62754e-09   1.16097e-07 DIIS
   @DF-RKS iter   9:  -237.73564413978963   -8.57199e-11   3.09377e-08 DIIS
   @DF-RKS iter  10:  -237.73564413979463   -5.00222e-12   4.62579e-09 DIIS
  Energy and wave function converged.


  ==> Post-Iterations <==

    Orbital Energies [Eh]
    ---------------------

    Doubly Occupied:                                                      

       1B2   -24.837742     1A1   -24.837732     2A1   -10.474727  
       3A1    -1.475893     2B2    -1.397293     4A1    -0.834493  
       3B2    -0.723312     1B1    -0.680511     5A1    -0.675345  
       1A2    -0.597675     4B2    -0.571376     6A1    -0.417795  

    Virtual:                                                              

       2B1     0.012603     5B2     0.196643     7A1     0.205336  
       3B1     0.280383     8A1     0.285396     6B2     0.383908  
       9A1     0.387372     7B2     0.486823    10A1     0.495531  
       4B1     0.604769    11A1     0.619433     2A2     0.634128  
       3A2     0.706643     5B1     0.737941    12A1     0.758862  
       8B2     0.768980    13A1     0.823584     9B2     0.901036  
      10B2     1.098382    14A1     1.105809     6B1     1.322627  
       7B1     1.351861    15A1     1.356707    16A1     1.391941  
      11B2     1.486087    12B2     1.520480     4A2     1.545532  
       5A2     1.644590     8B1     1.672634    17A1     1.746995  
      18A1     1.777015    13B2     1.878560    19A1     1.904019  
       9B1     1.958054    14B2     1.988342     6A2     2.006577  
      20A1     2.103437    10B1     2.189911    21A1     2.191420  
      15B2     2.295579    11B1     2.383402    16B2     2.401332  
      22A1     2.413327     7A2     2.431224    17B2     2.708846  
      23A1     2.776728     8A2     3.242062    12B1     3.261532  
      18B2     3.273518    24A1     3.379885    19B2     3.927442  
      25A1     3.949811     9A2     4.027842    13B1     4.078320  
      26A1     4.106701    10A2     4.193899    20B2     4.203483  
      21B2     4.242990    27A1     4.262484    14B1     4.342927  
      22B2     4.352456    15B1     4.453761    11A2     4.502404  
      28A1     4.580426    23B2     4.597492    29A1     4.681581  
      24B2     4.801818    30A1     4.901317    31A1     5.043239  
      16B1     5.055558    12A2     5.105182    25B2     5.168538  
      17B1     5.177532    32A1     5.266962    33A1     5.405841  
      26B2     5.431606    13A2     5.482780    18B1     5.505666  
      34A1     5.578136    27B2     5.609795    14A2     5.638868  
      19B1     5.715994    35A1     5.731151    28B2     5.831349  
      36A1     5.930187    20B1     5.934026    29B2     5.952029  
      15A2     5.980261    21B1     6.045525    37A1     6.160707  
      22B1     6.187144    16A2     6.260171    38A1     6.361091  
      30B2     6.437893    39A1     6.992567    23B1     7.282138  
      40A1     7.315191    31B2     7.327005    17A2     7.389862  
      32B2     7.564029    41A1     8.220643    33B2     8.717298  
      18A2    11.408924    34B2    11.416168    42A1    11.420297  
      24B1    11.420476    19A2    11.422715    35B2    11.423891  
      25B1    11.440229    43A1    11.497471    36B2    11.613506  
      26B1    11.701902    44A1    11.786937    20A2    11.845674  
      45A1    11.917400    21A2    12.018600    27B1    12.044432  
      37B2    12.136734    46A1    12.209958    38B2    12.228333  
      22A2    12.597783    28B1    12.619163    47A1    12.695615  
      39B2    12.704337    40B2    13.536205    48A1    13.623535  
      29B1    14.590346    23A2    14.595398    41B2    14.596424  
      49A1    14.598613    24A2    14.819030    42B2    14.845852  
      30B1    14.956231    50A1    14.998232    51A1    15.170971  
      31B1    15.483542    43B2    15.506582    25A2    15.587264  
      52A1    15.695665    44B2    15.758859    53A1    15.797122  
      26A2    15.841648    32B1    15.844787    45B2    15.900264  
      54A1    16.102982    27A2    16.140103    33B1    16.168739  
      46B2    16.388853    55A1    16.780296    47B2    16.859531  
      56A1    22.252666    48B2    52.741082    57A1    52.848337  

    Final Occupation by Irrep:
             A1    A2    B1    B2 
    DOCC [     6,    1,    1,    4 ]

  @DF-RKS Final Energy:  -237.73564413979463

   => Energetics <=

    Nuclear Repulsion Energy =             64.8907008624225625
    One-Electron Energy =                -457.4999746221932355
    Two-Electron Energy =                 173.6274169641237961
    DFT Exchange-Correlation Energy =     -18.8544178238163838
    Empirical Dispersion Energy =           0.0000000000000000
    VV10 Nonlocal Energy =                  0.1006304796686129
    Total Energy =                       -237.7356441397946298

Computation Completed


Properties will be evaluated at   0.000000,   0.000000,   0.000000 [a0]

Properties computed using the SCF density matrix

  Nuclear Dipole Moment: [e a0]
     X:    -0.0000      Y:    -0.0000      Z:    -0.3586

  Electronic Dipole Moment: [e a0]
     X:     0.0000      Y:     0.0000      Z:     0.6129

  Dipole Moment: [e a0]
     X:    -0.0000      Y:    -0.0000      Z:     0.2543     Total:     0.2543

  Dipole Moment: [D]
     X:    -0.0000      Y:    -0.0000      Z:     0.6464     Total:     0.6464


*** tstop() called on bp1-compute00067.data.bp.acrc.priv at Tue Apr 27 16:58:03 2021
Module time:
	user time   =      92.29 seconds =       1.54 minutes
	system time =       5.27 seconds =       0.09 minutes
	total time  =          4 seconds =       0.07 minutes
Total time:
	user time   =     177.16 seconds =       2.95 minutes
	system time =      12.09 seconds =       0.20 minutes
	total time  =          9 seconds =       0.15 minutes

  //>>>>>>>>>>>>>>>>>>>>>>>>>>>>>>>>>>>//
  //    Loading displacement 3 of 5    //
  //<<<<<<<<<<<<<<<<<<<<<<<<<<<<<<<<<<<//

*** tstart() called on bp1-compute00067.data.bp.acrc.priv
*** at Tue Apr 27 16:58:03 2021

   => Loading Basis Set <=

    Name: CC-PV(Q+D)Z
    Role: ORBITAL
    Keyword: BASIS
    atoms 1   entry C          line   249 file /work/zw18965/.conda/envs/p4env/share/psi4/basis/cc-pv_qpd_z.gbs 
    atoms 2-3 entry F          line   399 file /work/zw18965/.conda/envs/p4env/share/psi4/basis/cc-pv_qpd_z.gbs 


         ---------------------------------------------------------
                                   SCF
               by Justin Turney, Rob Parrish, Andy Simmonett
                          and Daniel G. A. Smith
                              RKS Reference
                       24 Threads, 137329 MiB Core
         ---------------------------------------------------------

  ==> Geometry <==

    Molecular point group: c2v
    Full point group: C2v

    Geometry (in Angstrom), charge = 0, multiplicity = 1:

       Center              X                  Y                   Z               Mass       
    ------------   -----------------  -----------------  -----------------  -----------------
         C            0.000000000000     0.000000000000    -0.600493916765    12.000000000000
         F           -0.000000000000     1.027989606760     0.189645596513    18.998403162730
         F            0.000000000000    -1.027989606760     0.189645596513    18.998403162730

  Running in c2v symmetry.

  Rotational constants: A =      2.96076  B =      0.41983  C =      0.36769 [cm^-1]
  Rotational constants: A =  88761.28084  B =  12586.14285  C =  11023.09382 [MHz]
  Nuclear repulsion =   64.927000105912398

  Charge       = 0
  Multiplicity = 1
  Electrons    = 24
  Nalpha       = 12
  Nbeta        = 12

  ==> Algorithm <==

  SCF Algorithm Type is DF.
  DIIS enabled.
  MOM disabled.
  Fractional occupation disabled.
  Guess Type is SAD.
  Energy threshold   = 1.00e-08
  Density threshold  = 1.00e-08
  Integral threshold = 0.00e+00

  ==> Primary Basis <==

  Basis Set: CC-PV(Q+D)Z
    Blend: CC-PV(Q+D)Z
    Number of shells: 45
    Number of basis function: 165
    Number of Cartesian functions: 210
    Spherical Harmonics?: true
    Max angular momentum: 4

  ==> DFT Potential <==

   => Composite Functional: WB97X-V <= 

    wB97X-V Hyb-GGA Exchange-Correlation Functional

    N. Mardirossian and M. Head-Gordon, Phys. Chem. Chem. Phys. 16, 9904 (2014)

    Deriv               =              1
    GGA                 =           TRUE
    Meta                =          FALSE

    Exchange Hybrid     =           TRUE
    MP2 Hybrid          =          FALSE

   => Exchange-Correlation Functionals <=

    1.0000   wB97X-V range-separated functional

   => Exact (HF) Exchange <=

    0.8330            HF,LR [omega = 0.3000]
    0.1670               HF 

   => VV10 Non-Local Parameters <=

    VV10 B              =     6.0000E+00
    VV10 C              =     1.0000E-02

   => Molecular Quadrature <=

    Radial Scheme          =       TREUTLER
    Pruning Scheme         =           FLAT
    Nuclear Scheme         =       TREUTLER

    BS radius alpha        =              1
    Pruning alpha          =              1
    Radial Points          =             75
    Spherical Points       =            302
    Total Points           =          66199
    Total Blocks           =            561
    Max Points             =            254
    Max Functions          =            165

   => Loading Basis Set <=

    Name: (CC-PV(Q+D)Z AUX)
    Role: JKFIT
    Keyword: DF_BASIS_SCF
    atoms 1   entry C          line   137 file /work/zw18965/.conda/envs/p4env/share/psi4/basis/cc-pvqz-jkfit.gbs 
    atoms 2-3 entry F          line   311 file /work/zw18965/.conda/envs/p4env/share/psi4/basis/cc-pvqz-jkfit.gbs 

  ==> Pre-Iterations <==

   -------------------------------------------------------
    Irrep   Nso     Nmo     Nalpha   Nbeta   Ndocc  Nsocc
   -------------------------------------------------------
     A1        57      57       0       0       0       0
     A2        27      27       0       0       0       0
     B1        33      33       0       0       0       0
     B2        48      48       0       0       0       0
   -------------------------------------------------------
    Total     165     165      12      12      12       0
   -------------------------------------------------------

  ==> Integral Setup <==

  ==> DiskDFJK: Density-Fitted J/K Matrices <==

    J tasked:                  Yes
    K tasked:                  Yes
    wK tasked:                 Yes
    Omega:               3.000E-01
    OpenMP threads:             24
    Integrals threads:          24
    Memory [MiB]:           102739
    Algorithm:                Core
    Integral Cache:           NONE
    Schwarz Cutoff:          1E-12
    Fitting Condition:       1E-10

   => Auxiliary Basis Set <=

  Basis Set: (CC-PV(Q+D)Z AUX)
    Blend: CC-PVQZ-JKFIT
    Number of shells: 84
    Number of basis function: 318
    Number of Cartesian functions: 426
    Spherical Harmonics?: true
    Max angular momentum: 5

  Cached 100.0% of DFT collocation blocks in 0.252 [GiB].

  Minimum eigenvalue in the overlap matrix is 9.8804784399E-04.
  Using Symmetric Orthogonalization.

  SCF Guess: Superposition of Atomic Densities via on-the-fly atomic UHF.

  ==> Iterations <==

                           Total Energy        Delta E     RMS |[F,P]|

   @DF-RKS iter SAD:  -237.23861896771388   -2.37239e+02   0.00000e+00 
   @DF-RKS iter   1:  -237.70329027612388   -4.64671e-01   3.77151e-03 DIIS
   @DF-RKS iter   2:  -237.71248764297434   -9.19737e-03   3.54580e-03 DIIS
   @DF-RKS iter   3:  -237.73511277394417   -2.26251e-02   4.49205e-04 DIIS
   @DF-RKS iter   4:  -237.73560061759778   -4.87844e-04   6.38211e-05 DIIS
   @DF-RKS iter   5:  -237.73562657998818   -2.59624e-05   1.10468e-05 DIIS
   @DF-RKS iter   6:  -237.73562749634155   -9.16353e-07   2.59926e-06 DIIS
   @DF-RKS iter   7:  -237.73562754434155   -4.80000e-08   4.17870e-07 DIIS
   @DF-RKS iter   8:  -237.73562754592555   -1.58400e-09   1.10862e-07 DIIS
   @DF-RKS iter   9:  -237.73562754600550   -7.99503e-11   3.13747e-08 DIIS
   @DF-RKS iter  10:  -237.73562754601085   -5.34328e-12   4.63574e-09 DIIS
  Energy and wave function converged.


  ==> Post-Iterations <==

    Orbital Energies [Eh]
    ---------------------

    Doubly Occupied:                                                      

       1B2   -24.837937     1A1   -24.837927     2A1   -10.474343  
       3A1    -1.476458     2B2    -1.397842     4A1    -0.834671  
       3B2    -0.723792     1B1    -0.680934     5A1    -0.675680  
       1A2    -0.597974     4B2    -0.571733     6A1    -0.417260  

    Virtual:                                                              

       2B1     0.013034     5B2     0.197068     7A1     0.205345  
       3B1     0.280355     8A1     0.285565     6B2     0.384920  
       9A1     0.387956     7B2     0.486821    10A1     0.495477  
       4B1     0.604712    11A1     0.619394     2A2     0.634256  
       3A2     0.706698     5B1     0.737898    12A1     0.758601  
       8B2     0.768771    13A1     0.824503     9B2     0.901265  
      10B2     1.098298    14A1     1.105889     6B1     1.322731  
       7B1     1.352418    15A1     1.356538    16A1     1.392376  
      11B2     1.485779    12B2     1.520622     4A2     1.545183  
       5A2     1.644995     8B1     1.673249    17A1     1.747291  
      18A1     1.777042    13B2     1.879785    19A1     1.904429  
       9B1     1.958010    14B2     1.988188     6A2     2.007065  
      20A1     2.103665    10B1     2.190632    21A1     2.191391  
      15B2     2.295520    11B1     2.383381    16B2     2.401962  
      22A1     2.413714     7A2     2.431207    17B2     2.709815  
      23A1     2.778753     8A2     3.242902    12B1     3.262398  
      18B2     3.275173    24A1     3.380498    19B2     3.926324  
      25A1     3.949112     9A2     4.028543    13B1     4.078593  
      26A1     4.107011    10A2     4.193728    20B2     4.203528  
      21B2     4.243386    27A1     4.264047    14B1     4.343602  
      22B2     4.353350    15B1     4.454969    11A2     4.503835  
      28A1     4.581828    23B2     4.598847    29A1     4.681792  
      24B2     4.801701    30A1     4.902151    31A1     5.043713  
      16B1     5.055761    12A2     5.105011    25B2     5.169194  
      17B1     5.176100    32A1     5.268934    33A1     5.406643  
      26B2     5.432760    13A2     5.482135    18B1     5.506257  
      34A1     5.579186    27B2     5.608357    14A2     5.640917  
      19B1     5.716795    35A1     5.732716    28B2     5.832599  
      36A1     5.930915    20B1     5.935210    29B2     5.952390  
      15A2     5.983553    21B1     6.044813    37A1     6.162220  
      22B1     6.188279    16A2     6.260855    38A1     6.361987  
      30B2     6.439606    39A1     6.994541    23B1     7.286235  
      40A1     7.319108    31B2     7.329985    17A2     7.393872  
      32B2     7.567398    41A1     8.221448    33B2     8.721949  
      18A2    11.408718    34B2    11.415894    42A1    11.420025  
      24B1    11.420209    19A2    11.422515    35B2    11.423744  
      25B1    11.440450    43A1    11.497982    36B2    11.615458  
      26B1    11.702305    44A1    11.787878    20A2    11.848970  
      45A1    11.919235    21A2    12.020244    27B1    12.046644  
      37B2    12.139710    46A1    12.212767    38B2    12.231044  
      22A2    12.599042    28B1    12.620461    47A1    12.696816  
      39B2    12.706440    40B2    13.536918    48A1    13.624333  
      29B1    14.590448    23A2    14.595156    41B2    14.596224  
      49A1    14.598722    24A2    14.820312    42B2    14.846366  
      30B1    14.956896    50A1    15.000042    51A1    15.172598  
      31B1    15.484847    43B2    15.507923    25A2    15.589302  
      52A1    15.698461    44B2    15.760433    53A1    15.797239  
      26A2    15.841414    32B1    15.845216    45B2    15.900448  
      54A1    16.104320    27A2    16.141022    33B1    16.169901  
      46B2    16.390068    55A1    16.781362    47B2    16.862959  
      56A1    22.268406    48B2    52.744060    57A1    52.851791  

    Final Occupation by Irrep:
             A1    A2    B1    B2 
    DOCC [     6,    1,    1,    4 ]

  @DF-RKS Final Energy:  -237.73562754601085

   => Energetics <=

    Nuclear Repulsion Energy =             64.9270001059123985
    One-Electron Energy =                -457.5666851316574366
    Two-Electron Energy =                 173.6587025809887734
    DFT Exchange-Correlation Energy =     -18.8552744286294001
    Empirical Dispersion Energy =           0.0000000000000000
    VV10 Nonlocal Energy =                  0.1006293273748091
    Total Energy =                       -237.7356275460108748

Computation Completed


Properties will be evaluated at   0.000000,   0.000000,   0.000000 [a0]

Properties computed using the SCF density matrix

  Nuclear Dipole Moment: [e a0]
     X:    -0.0000      Y:    -0.0000      Z:    -0.3578

  Electronic Dipole Moment: [e a0]
     X:     0.0000      Y:     0.0000      Z:     0.6155

  Dipole Moment: [e a0]
     X:    -0.0000      Y:    -0.0000      Z:     0.2577     Total:     0.2577

  Dipole Moment: [D]
     X:    -0.0000      Y:    -0.0000      Z:     0.6550     Total:     0.6550


*** tstop() called on bp1-compute00067.data.bp.acrc.priv at Tue Apr 27 16:58:07 2021
Module time:
	user time   =      86.62 seconds =       1.44 minutes
	system time =       4.82 seconds =       0.08 minutes
	total time  =          4 seconds =       0.07 minutes
Total time:
	user time   =     263.93 seconds =       4.40 minutes
	system time =      16.91 seconds =       0.28 minutes
	total time  =         13 seconds =       0.22 minutes

  //>>>>>>>>>>>>>>>>>>>>>>>>>>>>>>>>>>>//
  //    Loading displacement 4 of 5    //
  //<<<<<<<<<<<<<<<<<<<<<<<<<<<<<<<<<<<//

*** tstart() called on bp1-compute00067.data.bp.acrc.priv
*** at Tue Apr 27 16:58:07 2021

   => Loading Basis Set <=

    Name: CC-PV(Q+D)Z
    Role: ORBITAL
    Keyword: BASIS
    atoms 1   entry C          line   249 file /work/zw18965/.conda/envs/p4env/share/psi4/basis/cc-pv_qpd_z.gbs 
    atoms 2-3 entry F          line   399 file /work/zw18965/.conda/envs/p4env/share/psi4/basis/cc-pv_qpd_z.gbs 


         ---------------------------------------------------------
                                   SCF
               by Justin Turney, Rob Parrish, Andy Simmonett
                          and Daniel G. A. Smith
                              RKS Reference
                       24 Threads, 137329 MiB Core
         ---------------------------------------------------------

  ==> Geometry <==

    Molecular point group: c2v
    Full point group: C2v

    Geometry (in Angstrom), charge = 0, multiplicity = 1:

       Center              X                  Y                   Z               Mass       
    ------------   -----------------  -----------------  -----------------  -----------------
         C            0.000000000000     0.000000000000    -0.601159776770    12.000000000000
         F           -0.000000000000     1.027560369327     0.189855885767    18.998403162730
         F            0.000000000000    -1.027560369327     0.189855885767    18.998403162730

  Running in c2v symmetry.

  Rotational constants: A =      2.95420  B =      0.42018  C =      0.36786 [cm^-1]
  Rotational constants: A =  88564.76119  B =  12596.66013  C =  11028.11904 [MHz]
  Nuclear repulsion =   64.929115797306693

  Charge       = 0
  Multiplicity = 1
  Electrons    = 24
  Nalpha       = 12
  Nbeta        = 12

  ==> Algorithm <==

  SCF Algorithm Type is DF.
  DIIS enabled.
  MOM disabled.
  Fractional occupation disabled.
  Guess Type is SAD.
  Energy threshold   = 1.00e-08
  Density threshold  = 1.00e-08
  Integral threshold = 0.00e+00

  ==> Primary Basis <==

  Basis Set: CC-PV(Q+D)Z
    Blend: CC-PV(Q+D)Z
    Number of shells: 45
    Number of basis function: 165
    Number of Cartesian functions: 210
    Spherical Harmonics?: true
    Max angular momentum: 4

  ==> DFT Potential <==

   => Composite Functional: WB97X-V <= 

    wB97X-V Hyb-GGA Exchange-Correlation Functional

    N. Mardirossian and M. Head-Gordon, Phys. Chem. Chem. Phys. 16, 9904 (2014)

    Deriv               =              1
    GGA                 =           TRUE
    Meta                =          FALSE

    Exchange Hybrid     =           TRUE
    MP2 Hybrid          =          FALSE

   => Exchange-Correlation Functionals <=

    1.0000   wB97X-V range-separated functional

   => Exact (HF) Exchange <=

    0.8330            HF,LR [omega = 0.3000]
    0.1670               HF 

   => VV10 Non-Local Parameters <=

    VV10 B              =     6.0000E+00
    VV10 C              =     1.0000E-02

   => Molecular Quadrature <=

    Radial Scheme          =       TREUTLER
    Pruning Scheme         =           FLAT
    Nuclear Scheme         =       TREUTLER

    BS radius alpha        =              1
    Pruning alpha          =              1
    Radial Points          =             75
    Spherical Points       =            302
    Total Points           =          66195
    Total Blocks           =            560
    Max Points             =            256
    Max Functions          =            165

   => Loading Basis Set <=

    Name: (CC-PV(Q+D)Z AUX)
    Role: JKFIT
    Keyword: DF_BASIS_SCF
    atoms 1   entry C          line   137 file /work/zw18965/.conda/envs/p4env/share/psi4/basis/cc-pvqz-jkfit.gbs 
    atoms 2-3 entry F          line   311 file /work/zw18965/.conda/envs/p4env/share/psi4/basis/cc-pvqz-jkfit.gbs 

  ==> Pre-Iterations <==

   -------------------------------------------------------
    Irrep   Nso     Nmo     Nalpha   Nbeta   Ndocc  Nsocc
   -------------------------------------------------------
     A1        57      57       0       0       0       0
     A2        27      27       0       0       0       0
     B1        33      33       0       0       0       0
     B2        48      48       0       0       0       0
   -------------------------------------------------------
    Total     165     165      12      12      12       0
   -------------------------------------------------------

  ==> Integral Setup <==

  ==> DiskDFJK: Density-Fitted J/K Matrices <==

    J tasked:                  Yes
    K tasked:                  Yes
    wK tasked:                 Yes
    Omega:               3.000E-01
    OpenMP threads:             24
    Integrals threads:          24
    Memory [MiB]:           102738
    Algorithm:                Core
    Integral Cache:           NONE
    Schwarz Cutoff:          1E-12
    Fitting Condition:       1E-10

   => Auxiliary Basis Set <=

  Basis Set: (CC-PV(Q+D)Z AUX)
    Blend: CC-PVQZ-JKFIT
    Number of shells: 84
    Number of basis function: 318
    Number of Cartesian functions: 426
    Spherical Harmonics?: true
    Max angular momentum: 5

  Cached 100.0% of DFT collocation blocks in 0.252 [GiB].

  Minimum eigenvalue in the overlap matrix is 9.8868536289E-04.
  Using Symmetric Orthogonalization.

  SCF Guess: Superposition of Atomic Densities via on-the-fly atomic UHF.

  ==> Iterations <==

                           Total Energy        Delta E     RMS |[F,P]|

   @DF-RKS iter SAD:  -237.23814340014428   -2.37238e+02   0.00000e+00 
   @DF-RKS iter   1:  -237.70327053593311   -4.65127e-01   3.77353e-03 DIIS
   @DF-RKS iter   2:  -237.71242470419139   -9.15417e-03   3.55059e-03 DIIS
   @DF-RKS iter   3:  -237.73511848979987   -2.26938e-02   4.48710e-04 DIIS
   @DF-RKS iter   4:  -237.73560537796757   -4.86888e-04   6.37952e-05 DIIS
   @DF-RKS iter   5:  -237.73563128654408   -2.59086e-05   1.10334e-05 DIIS
   @DF-RKS iter   6:  -237.73563219960548   -9.13061e-07   2.60172e-06 DIIS
   @DF-RKS iter   7:  -237.73563224742861   -4.78231e-08   4.20328e-07 DIIS
   @DF-RKS iter   8:  -237.73563224901335   -1.58474e-09   1.11869e-07 DIIS
   @DF-RKS iter   9:  -237.73563224909427   -8.09166e-11   3.11554e-08 DIIS
   @DF-RKS iter  10:  -237.73563224909938   -5.11591e-12   4.60806e-09 DIIS
  Energy and wave function converged.


  ==> Post-Iterations <==

    Orbital Energies [Eh]
    ---------------------

    Doubly Occupied:                                                      

       1B2   -24.837847     1A1   -24.837836     2A1   -10.474419  
       3A1    -1.476399     2B2    -1.397644     4A1    -0.834630  
       3B2    -0.723633     1B1    -0.680857     5A1    -0.675637  
       1A2    -0.597859     4B2    -0.571530     6A1    -0.417481  

    Virtual:                                                              

       2B1     0.012944     5B2     0.196902     7A1     0.205404  
       3B1     0.280356     8A1     0.285515     6B2     0.384585  
       9A1     0.388051     7B2     0.486796    10A1     0.495499  
       4B1     0.604821    11A1     0.619470     2A2     0.634212  
       3A2     0.706672     5B1     0.737896    12A1     0.758912  
       8B2     0.768922    13A1     0.824062     9B2     0.901183  
      10B2     1.098375    14A1     1.105740     6B1     1.322682  
       7B1     1.352066    15A1     1.356631    16A1     1.392024  
      11B2     1.486028    12B2     1.520507     4A2     1.545735  
       5A2     1.644803     8B1     1.673030    17A1     1.747056  
      18A1     1.776999    13B2     1.879426    19A1     1.904354  
       9B1     1.958100    14B2     1.988864     6A2     2.006875  
      20A1     2.103611    10B1     2.190540    21A1     2.191745  
      15B2     2.295434    11B1     2.383375    16B2     2.401508  
      22A1     2.413633     7A2     2.431270    17B2     2.710134  
      23A1     2.778012     8A2     3.242752    12B1     3.262365  
      18B2     3.274525    24A1     3.380569    19B2     3.926611  
      25A1     3.949059     9A2     4.028446    13B1     4.078219  
      26A1     4.106753    10A2     4.193952    20B2     4.204015  
      21B2     4.243393    27A1     4.263268    14B1     4.343488  
      22B2     4.353090    15B1     4.454518    11A2     4.503485  
      28A1     4.581818    23B2     4.598268    29A1     4.681883  
      24B2     4.801942    30A1     4.901904    31A1     5.043471  
      16B1     5.055721    12A2     5.105380    25B2     5.169409  
      17B1     5.176301    32A1     5.268569    33A1     5.406920  
      26B2     5.432276    13A2     5.482183    18B1     5.506772  
      34A1     5.578664    27B2     5.609469    14A2     5.640211  
      19B1     5.716682    35A1     5.731812    28B2     5.832425  
      36A1     5.930881    20B1     5.935149    29B2     5.952303  
      15A2     5.982522    21B1     6.045321    37A1     6.162342  
      22B1     6.187967    16A2     6.260809    38A1     6.362481  
      30B2     6.439261    39A1     6.994116    23B1     7.285489  
      40A1     7.318148    31B2     7.329687    17A2     7.393223  
      32B2     7.566894    41A1     8.221148    33B2     8.721366  
      18A2    11.408780    34B2    11.416008    42A1    11.420105  
      24B1    11.420288    19A2    11.422571    35B2    11.423807  
      25B1    11.440379    43A1    11.497955    36B2    11.614714  
      26B1    11.702924    44A1    11.788256    20A2    11.847713  
      45A1    11.918885    21A2    12.020172    27B1    12.046156  
      37B2    12.139345    46A1    12.212147    38B2    12.230306  
      22A2    12.598891    28B1    12.620270    47A1    12.696587  
      39B2    12.706195    40B2    13.536918    48A1    13.624282  
      29B1    14.590369    23A2    14.595397    41B2    14.596404  
      49A1    14.598650    24A2    14.819859    42B2    14.846606  
      30B1    14.957070    50A1    14.999430    51A1    15.172367  
      31B1    15.484758    43B2    15.507691    25A2    15.588878  
      52A1    15.697773    44B2    15.759841    53A1    15.797321  
      26A2    15.841697    32B1    15.844914    45B2    15.900570  
      54A1    16.103484    27A2    16.141032    33B1    16.169546  
      46B2    16.390555    55A1    16.781285    47B2    16.862679  
      56A1    22.265779    48B2    52.743583    57A1    52.851380  

    Final Occupation by Irrep:
             A1    A2    B1    B2 
    DOCC [     6,    1,    1,    4 ]

  @DF-RKS Final Energy:  -237.73563224909938

   => Energetics <=

    Nuclear Repulsion Energy =             64.9291157973066930
    One-Electron Energy =                -457.5725463485709952
    Two-Electron Energy =                 173.6623560691864441
    DFT Exchange-Correlation Energy =     -18.8551863549823864
    Empirical Dispersion Energy =           0.0000000000000000
    VV10 Nonlocal Energy =                  0.1006285879608827
    Total Energy =                       -237.7356322490993819

Computation Completed


Properties will be evaluated at   0.000000,   0.000000,   0.000000 [a0]

Properties computed using the SCF density matrix

  Nuclear Dipole Moment: [e a0]
     X:     0.0000      Y:     0.0000      Z:    -0.3582

  Electronic Dipole Moment: [e a0]
     X:     0.0000      Y:     0.0000      Z:     0.6146

  Dipole Moment: [e a0]
     X:     0.0000      Y:     0.0000      Z:     0.2564     Total:     0.2564

  Dipole Moment: [D]
     X:     0.0000      Y:     0.0000      Z:     0.6518     Total:     0.6518


*** tstop() called on bp1-compute00067.data.bp.acrc.priv at Tue Apr 27 16:58:11 2021
Module time:
	user time   =      84.78 seconds =       1.41 minutes
	system time =       2.72 seconds =       0.05 minutes
	total time  =          4 seconds =       0.07 minutes
Total time:
	user time   =     348.86 seconds =       5.81 minutes
	system time =      19.64 seconds =       0.33 minutes
	total time  =         17 seconds =       0.28 minutes

  //>>>>>>>>>>>>>>>>>>>>>>>>>>>>>>>>>>>//
  //    Loading displacement 5 of 5    //
  //<<<<<<<<<<<<<<<<<<<<<<<<<<<<<<<<<<<//

*** tstart() called on bp1-compute00067.data.bp.acrc.priv
*** at Tue Apr 27 16:58:11 2021

   => Loading Basis Set <=

    Name: CC-PV(Q+D)Z
    Role: ORBITAL
    Keyword: BASIS
    atoms 1   entry C          line   249 file /work/zw18965/.conda/envs/p4env/share/psi4/basis/cc-pv_qpd_z.gbs 
    atoms 2-3 entry F          line   399 file /work/zw18965/.conda/envs/p4env/share/psi4/basis/cc-pv_qpd_z.gbs 


         ---------------------------------------------------------
                                   SCF
               by Justin Turney, Rob Parrish, Andy Simmonett
                          and Daniel G. A. Smith
                              RKS Reference
                       24 Threads, 137329 MiB Core
         ---------------------------------------------------------

  ==> Geometry <==

    Molecular point group: c2v
    Full point group: C2v

    Geometry (in Angstrom), charge = 0, multiplicity = 1:

       Center              X                  Y                   Z               Mass       
    ------------   -----------------  -----------------  -----------------  -----------------
         C            0.000000000000     0.000000000000    -0.601159776770    12.000000000000
         F           -0.000000000000     1.028418844194     0.189855885767    18.998403162730
         F            0.000000000000    -1.028418844194     0.189855885767    18.998403162730

  Running in c2v symmetry.

  Rotational constants: A =      2.95420  B =      0.41948  C =      0.36732 [cm^-1]
  Rotational constants: A =  88564.76119  B =  12575.63873  C =  11012.00353 [MHz]
  Nuclear repulsion =   64.888594381756931

  Charge       = 0
  Multiplicity = 1
  Electrons    = 24
  Nalpha       = 12
  Nbeta        = 12

  ==> Algorithm <==

  SCF Algorithm Type is DF.
  DIIS enabled.
  MOM disabled.
  Fractional occupation disabled.
  Guess Type is SAD.
  Energy threshold   = 1.00e-08
  Density threshold  = 1.00e-08
  Integral threshold = 0.00e+00

  ==> Primary Basis <==

  Basis Set: CC-PV(Q+D)Z
    Blend: CC-PV(Q+D)Z
    Number of shells: 45
    Number of basis function: 165
    Number of Cartesian functions: 210
    Spherical Harmonics?: true
    Max angular momentum: 4

  ==> DFT Potential <==

   => Composite Functional: WB97X-V <= 

    wB97X-V Hyb-GGA Exchange-Correlation Functional

    N. Mardirossian and M. Head-Gordon, Phys. Chem. Chem. Phys. 16, 9904 (2014)

    Deriv               =              1
    GGA                 =           TRUE
    Meta                =          FALSE

    Exchange Hybrid     =           TRUE
    MP2 Hybrid          =          FALSE

   => Exchange-Correlation Functionals <=

    1.0000   wB97X-V range-separated functional

   => Exact (HF) Exchange <=

    0.8330            HF,LR [omega = 0.3000]
    0.1670               HF 

   => VV10 Non-Local Parameters <=

    VV10 B              =     6.0000E+00
    VV10 C              =     1.0000E-02

   => Molecular Quadrature <=

    Radial Scheme          =       TREUTLER
    Pruning Scheme         =           FLAT
    Nuclear Scheme         =       TREUTLER

    BS radius alpha        =              1
    Pruning alpha          =              1
    Radial Points          =             75
    Spherical Points       =            302
    Total Points           =          66199
    Total Blocks           =            561
    Max Points             =            254
    Max Functions          =            165

   => Loading Basis Set <=

    Name: (CC-PV(Q+D)Z AUX)
    Role: JKFIT
    Keyword: DF_BASIS_SCF
    atoms 1   entry C          line   137 file /work/zw18965/.conda/envs/p4env/share/psi4/basis/cc-pvqz-jkfit.gbs 
    atoms 2-3 entry F          line   311 file /work/zw18965/.conda/envs/p4env/share/psi4/basis/cc-pvqz-jkfit.gbs 

  ==> Pre-Iterations <==

   -------------------------------------------------------
    Irrep   Nso     Nmo     Nalpha   Nbeta   Ndocc  Nsocc
   -------------------------------------------------------
     A1        57      57       0       0       0       0
     A2        27      27       0       0       0       0
     B1        33      33       0       0       0       0
     B2        48      48       0       0       0       0
   -------------------------------------------------------
    Total     165     165      12      12      12       0
   -------------------------------------------------------

  ==> Integral Setup <==

  ==> DiskDFJK: Density-Fitted J/K Matrices <==

    J tasked:                  Yes
    K tasked:                  Yes
    wK tasked:                 Yes
    Omega:               3.000E-01
    OpenMP threads:             24
    Integrals threads:          24
    Memory [MiB]:           102739
    Algorithm:                Core
    Integral Cache:           NONE
    Schwarz Cutoff:          1E-12
    Fitting Condition:       1E-10

   => Auxiliary Basis Set <=

  Basis Set: (CC-PV(Q+D)Z AUX)
    Blend: CC-PVQZ-JKFIT
    Number of shells: 84
    Number of basis function: 318
    Number of Cartesian functions: 426
    Spherical Harmonics?: true
    Max angular momentum: 5

  Cached 100.0% of DFT collocation blocks in 0.252 [GiB].

  Minimum eigenvalue in the overlap matrix is 9.9069056620E-04.
  Using Symmetric Orthogonalization.

  SCF Guess: Superposition of Atomic Densities via on-the-fly atomic UHF.

  ==> Iterations <==

                           Total Energy        Delta E     RMS |[F,P]|

   @DF-RKS iter SAD:  -237.23588832115286   -2.37236e+02   0.00000e+00 
   @DF-RKS iter   1:  -237.70323673863300   -4.67348e-01   3.77540e-03 DIIS
   @DF-RKS iter   2:  -237.71233738127069   -9.10064e-03   3.55671e-03 DIIS
   @DF-RKS iter   3:  -237.73512589948740   -2.27885e-02   4.48956e-04 DIIS
   @DF-RKS iter   4:  -237.73561325622180   -4.87357e-04   6.37994e-05 DIIS
   @DF-RKS iter   5:  -237.73563920636840   -2.59501e-05   1.10595e-05 DIIS
   @DF-RKS iter   6:  -237.73564012285817   -9.16490e-07   2.62320e-06 DIIS
   @DF-RKS iter   7:  -237.73564017108498   -4.82268e-08   4.30622e-07 DIIS
   @DF-RKS iter   8:  -237.73564017271028   -1.62530e-09   1.15280e-07 DIIS
   @DF-RKS iter   9:  -237.73564017279557   -8.52936e-11   3.11789e-08 DIIS
   @DF-RKS iter  10:  -237.73564017280074   -5.17275e-12   4.65600e-09 DIIS
  Energy and wave function converged.


  ==> Post-Iterations <==

    Orbital Energies [Eh]
    ---------------------

    Doubly Occupied:                                                      

       1B2   -24.837833     1A1   -24.837822     2A1   -10.474652  
       3A1    -1.475953     2B2    -1.397491     4A1    -0.834535  
       3B2    -0.723472     1B1    -0.680588     5A1    -0.675388  
       1A2    -0.597790     4B2    -0.571579     6A1    -0.417574  

    Virtual:                                                              

       2B1     0.012693     5B2     0.196810     7A1     0.205277  
       3B1     0.280382     8A1     0.285446     6B2     0.384241  
       9A1     0.387278     7B2     0.486848    10A1     0.495509  
       4B1     0.604661    11A1     0.619357     2A2     0.634173  
       3A2     0.706668     5B1     0.737942    12A1     0.758553  
       8B2     0.768828    13A1     0.824023     9B2     0.901117  
      10B2     1.098305    14A1     1.105958     6B1     1.322676  
       7B1     1.352213    15A1     1.356615    16A1     1.392292  
      11B2     1.485839    12B2     1.520594     4A2     1.544981  
       5A2     1.644782     8B1     1.672853    17A1     1.747231  
      18A1     1.777058    13B2     1.878919    19A1     1.904094  
       9B1     1.957964    14B2     1.987668     6A2     2.006767  
      20A1     2.103493    10B1     2.190003    21A1     2.191065  
      15B2     2.295664    11B1     2.383408    16B2     2.401786  
      22A1     2.413408     7A2     2.431161    17B2     2.708529  
      23A1     2.777470     8A2     3.242213    12B1     3.261565  
      18B2     3.274165    24A1     3.379813    19B2     3.927156  
      25A1     3.949861     9A2     4.027937    13B1     4.078693  
      26A1     4.106960    10A2     4.193676    20B2     4.203003  
      21B2     4.242976    27A1     4.263260    14B1     4.343041  
      22B2     4.352713    15B1     4.454212    11A2     4.502754  
      28A1     4.580441    23B2     4.598075    29A1     4.681489  
      24B2     4.801574    30A1     4.901565    31A1     5.043481  
      16B1     5.055600    12A2     5.104813    25B2     5.168325  
      17B1     5.177329    32A1     5.267327    33A1     5.405570  
      26B2     5.432089    13A2     5.482733    18B1     5.505153  
      34A1     5.578654    27B2     5.608680    14A2     5.639575  
      19B1     5.716109    35A1     5.732055    28B2     5.831525  
      36A1     5.930221    20B1     5.934089    29B2     5.952116  
      15A2     5.981287    21B1     6.045018    37A1     6.160591  
      22B1     6.187455    16A2     6.260218    38A1     6.360594  
      30B2     6.438238    39A1     6.992991    23B1     7.282883  
      40A1     7.316144    31B2     7.327307    17A2     7.390512  
      32B2     7.564533    41A1     8.220952    33B2     8.717879  
      18A2    11.408862    34B2    11.416054    42A1    11.420217  
      24B1    11.420397    19A2    11.422659    35B2    11.423829  
      25B1    11.440298    43A1    11.497498    36B2    11.614243  
      26B1    11.701286    44A1    11.786561    20A2    11.846927  
      45A1    11.917749    21A2    12.018672    27B1    12.044919  
      37B2    12.137102    46A1    12.210578    38B2    12.229067  
      22A2    12.597935    28B1    12.619354    47A1    12.695842  
      39B2    12.704579    40B2    13.536204    48A1    13.623585  
      29B1    14.590424    23A2    14.595159    41B2    14.596243  
      49A1    14.598684    24A2    14.819482    42B2    14.845612  
      30B1    14.956057    50A1    14.998844    51A1    15.171198  
      31B1    15.483634    43B2    15.506814    25A2    15.587690  
      52A1    15.696340    44B2    15.759453    53A1    15.797053  
      26A2    15.841365    32B1    15.845089    45B2    15.900141  
      54A1    16.103813    27A2    16.140090    33B1    16.169091  
      46B2    16.388362    55A1    16.780379    47B2    16.859811  
      56A1    22.255290    48B2    52.741556    57A1    52.848746  

    Final Occupation by Irrep:
             A1    A2    B1    B2 
    DOCC [     6,    1,    1,    4 ]

  @DF-RKS Final Energy:  -237.73564017280074

   => Energetics <=

    Nuclear Repulsion Energy =             64.8885943817569313
    One-Electron Energy =                -457.4941335447618940
    Two-Electron Energy =                 173.6237738267154498
    DFT Exchange-Correlation Energy =     -18.8545060551601473
    Empirical Dispersion Energy =           0.0000000000000000
    VV10 Nonlocal Energy =                  0.1006312186489178
    Total Energy =                       -237.7356401728007427

Computation Completed


Properties will be evaluated at   0.000000,   0.000000,   0.000000 [a0]

Properties computed using the SCF density matrix

  Nuclear Dipole Moment: [e a0]
     X:     0.0000      Y:    -0.0000      Z:    -0.3582

  Electronic Dipole Moment: [e a0]
     X:     0.0000      Y:     0.0000      Z:     0.6138

  Dipole Moment: [e a0]
     X:     0.0000      Y:    -0.0000      Z:     0.2556     Total:     0.2556

  Dipole Moment: [D]
     X:     0.0000      Y:    -0.0000      Z:     0.6496     Total:     0.6496


*** tstop() called on bp1-compute00067.data.bp.acrc.priv at Tue Apr 27 16:58:15 2021
Module time:
	user time   =      87.34 seconds =       1.46 minutes
	system time =       4.72 seconds =       0.08 minutes
	total time  =          4 seconds =       0.07 minutes
Total time:
	user time   =     436.34 seconds =       7.27 minutes
	system time =      24.37 seconds =       0.41 minutes
	total time  =         21 seconds =       0.35 minutes

         ----------------------------------------------------------
                                   FINDIF
                     R. A. King and Jonathon Misiewicz
         ---------------------------------------------------------

  Computing gradient from energies.
    Using 3-point formula.
    Energy without displacement: -237.7356365184
    Check energies below for precision!
    Forces are for mass-weighted, symmetry-adapted cartesians (in au).

     Coord      Energy(-1)        Energy(+1)            Force
        0   -237.7356441398   -237.7356275460      0.0016593784
        1   -237.7356322491   -237.7356401728     -0.0007923701


-------------------------------------------------------------
  ## New Matrix (Symmetry 0) ##
  Irrep: 1 Size: 3 x 3

                 1                   2                   3

    1     0.00000000000000     0.00000000000000     0.00501116226579
    2     0.00000000000000    -0.00244214615078    -0.00250558113290
    3     0.00000000000000     0.00244214615078    -0.00250558113290




			-----------------------------------------
			 OPTKING 2.0: for geometry optimizations 
			  - R.A. King,  Bethel University        
			-----------------------------------------
	At level 1: Red. Int., RFO, no backsteps, dynamic trust

	Internal coordinates to be generated automatically.
	Detected frag 1 with atoms:  1 2 3
	---Fragment 1 Bond Connectivity---
	 1 : 2 3
	 2 : 1
	 3 : 1

	---Fragment 1 Geometry and Gradient---
	 C           0.0000000000        0.0000000000       -1.1360273357
	 F          -0.0000000000        1.9426188166        0.3587756274
	 F           0.0000000000       -1.9426188166        0.3587756274
	             0.0000000000        0.0000000000        0.0050111623
	             0.0000000000       -0.0024421462       -0.0025055811
	             0.0000000000        0.0024421462       -0.0025055811

	Previous optimization step data not found.  Starting new optimization.

	---Fragment 1 Intrafragment Coordinates---
	 - Coordinate -           - BOHR/RAD -       - ANG/DEG -
	 R(1,2)           =         2.451164	       1.297100
	 R(1,3)           =         2.451164	       1.297100
	 B(2,1,3)         =         1.829890	     104.845000

	Current energy   :      -237.7356365184

	Generating empirical Hessian (Schlegel '84) for each fragment.
	Taking RFO optimization step.
	Going to follow RFO solution 1.
	Using RFO vector 1.
	Norm of target step-size    0.00869
	Projected energy change by RFO approximation:        -0.0000035571

	Back-transformation to cartesian coordinates...
	Successfully converged to displaced geometry.

	--- Internal Coordinate Step in ANG or DEG, aJ/ANG or AJ/DEG ---
	 ---------------------------------------------------------------------------
	   Coordinate                Previous        Force       Change         New 
	   ----------                --------       ------       ------       ------
	    1 R(1,2)          =      1.297100     0.028534     0.002695     1.299795
	    2 R(1,3)          =      1.297100     0.028534     0.002695     1.299795
	    3 B(2,1,3)        =    104.845000    -0.000093    -0.278838   104.566162
	 ---------------------------------------------------------------------------
	Successfully symmetrized geometry.

  ==> Convergence Check <==

  Measures of convergence in internal coordinates in au.
  Criteria marked as inactive (o), active & met (*), and active & unmet ( ).
  --------------------------------------------------------------------------------------------- ~
   Step     Total Energy     Delta E     MAX Force     RMS Force      MAX Disp      RMS Disp    ~
  --------------------------------------------------------------------------------------------- ~
    Convergence Criteria    1.00e-06 *    3.00e-04 *             o    1.20e-03 *             o  ~
  --------------------------------------------------------------------------------------------- ~
      1    -237.73563652   -2.38e+02      3.46e-03      2.91e-03 o    5.09e-03      5.02e-03 o  ~
  ---------------------------------------------------------------------------------------------

	Writing optimization data to binary file.
	Structure for next step:
	Cartesian Geometry (in Angstrom)
	    C    -0.0000000000   0.0000000000  -0.6039249250
	    F    -0.0000000000   1.0281935545   0.1912384603
	    F     0.0000000000  -1.0281935545   0.1912384603
			--------------------------
			 OPTKING Finished Execution 
			--------------------------

    Structure for next step:
    Molecular point group: c2v
    Full point group: C2v

    Geometry (in Angstrom), charge = 0, multiplicity = 1:

    C           -0.000000000000     0.000000000000    -0.604311984841
    F           -0.000000000000     1.028193558516     0.190851403562
    F            0.000000000000    -1.028193558516     0.190851403562

gradient() will perform gradient computation by finite difference of analytic energies.

         ----------------------------------------------------------
                                   FINDIF
                     R. A. King and Jonathon Misiewicz
         ---------------------------------------------------------

  Using finite-differences of energies to determine gradients.
    Generating geometries for use with 3-point formula.
    Displacement size will be 5.00e-03.
    Number of atoms is 3.
    Number of symmetric SALCs is 2.
    Translations projected? 1. Rotations projected? 1.
    Number of geometries (including reference) is 5.

  //>>>>>>>>>>>>>>>>>>>>>>>>>>>>>>>>>>>//
  //    Loading displacement 1 of 5    //
  //<<<<<<<<<<<<<<<<<<<<<<<<<<<<<<<<<<<//

*** tstart() called on bp1-compute00067.data.bp.acrc.priv
*** at Tue Apr 27 16:58:15 2021

   => Loading Basis Set <=

    Name: CC-PV(Q+D)Z
    Role: ORBITAL
    Keyword: BASIS
    atoms 1   entry C          line   249 file /work/zw18965/.conda/envs/p4env/share/psi4/basis/cc-pv_qpd_z.gbs 
    atoms 2-3 entry F          line   399 file /work/zw18965/.conda/envs/p4env/share/psi4/basis/cc-pv_qpd_z.gbs 


         ---------------------------------------------------------
                                   SCF
               by Justin Turney, Rob Parrish, Andy Simmonett
                          and Daniel G. A. Smith
                              RKS Reference
                       24 Threads, 137329 MiB Core
         ---------------------------------------------------------

  ==> Geometry <==

    Molecular point group: c2v
    Full point group: C2v

    Geometry (in Angstrom), charge = 0, multiplicity = 1:

       Center              X                  Y                   Z               Mass       
    ------------   -----------------  -----------------  -----------------  -----------------
         C           -0.000000000000     0.000000000000    -0.604311984841    12.000000000000
         F           -0.000000000000     1.028193558516     0.190851403562    18.998403162730
         F            0.000000000000    -1.028193558516     0.190851403562    18.998403162730

  Running in c2v symmetry.

  Rotational constants: A =      2.92346  B =      0.41966  C =      0.36698 [cm^-1]
  Rotational constants: A =  87643.22911  B =  12581.15018  C =  11001.84043 [MHz]
  Nuclear repulsion =   64.813361308320424

  Charge       = 0
  Multiplicity = 1
  Electrons    = 24
  Nalpha       = 12
  Nbeta        = 12

  ==> Algorithm <==

  SCF Algorithm Type is DF.
  DIIS enabled.
  MOM disabled.
  Fractional occupation disabled.
  Guess Type is READ.
  Energy threshold   = 1.00e-08
  Density threshold  = 1.00e-08
  Integral threshold = 0.00e+00

  ==> Primary Basis <==

  Basis Set: CC-PV(Q+D)Z
    Blend: CC-PV(Q+D)Z
    Number of shells: 45
    Number of basis function: 165
    Number of Cartesian functions: 210
    Spherical Harmonics?: true
    Max angular momentum: 4

  ==> DFT Potential <==

   => Composite Functional: WB97X-V <= 

    wB97X-V Hyb-GGA Exchange-Correlation Functional

    N. Mardirossian and M. Head-Gordon, Phys. Chem. Chem. Phys. 16, 9904 (2014)

    Deriv               =              1
    GGA                 =           TRUE
    Meta                =          FALSE

    Exchange Hybrid     =           TRUE
    MP2 Hybrid          =          FALSE

   => Exchange-Correlation Functionals <=

    1.0000   wB97X-V range-separated functional

   => Exact (HF) Exchange <=

    0.8330            HF,LR [omega = 0.3000]
    0.1670               HF 

   => VV10 Non-Local Parameters <=

    VV10 B              =     6.0000E+00
    VV10 C              =     1.0000E-02

   => Molecular Quadrature <=

    Radial Scheme          =       TREUTLER
    Pruning Scheme         =           FLAT
    Nuclear Scheme         =       TREUTLER

    BS radius alpha        =              1
    Pruning alpha          =              1
    Radial Points          =             75
    Spherical Points       =            302
    Total Points           =          66195
    Total Blocks           =            561
    Max Points             =            254
    Max Functions          =            165

   => Loading Basis Set <=

    Name: (CC-PV(Q+D)Z AUX)
    Role: JKFIT
    Keyword: DF_BASIS_SCF
    atoms 1   entry C          line   137 file /work/zw18965/.conda/envs/p4env/share/psi4/basis/cc-pvqz-jkfit.gbs 
    atoms 2-3 entry F          line   311 file /work/zw18965/.conda/envs/p4env/share/psi4/basis/cc-pvqz-jkfit.gbs 

   => Loading Basis Set <=

    Name: CC-PV(Q+D)Z
    Role: ORBITAL
    Keyword: BASIS
    atoms 1   entry C          line   249 file /work/zw18965/.conda/envs/p4env/share/psi4/basis/cc-pv_qpd_z.gbs 
    atoms 2-3 entry F          line   399 file /work/zw18965/.conda/envs/p4env/share/psi4/basis/cc-pv_qpd_z.gbs 

  Reading orbitals from file 180, no projection.

  ==> Pre-Iterations <==

   -------------------------------------------------------
    Irrep   Nso     Nmo     Nalpha   Nbeta   Ndocc  Nsocc
   -------------------------------------------------------
     A1        57      57       0       0       0       0
     A2        27      27       0       0       0       0
     B1        33      33       0       0       0       0
     B2        48      48       0       0       0       0
   -------------------------------------------------------
    Total     165     165      12      12      12       0
   -------------------------------------------------------

  ==> Integral Setup <==

  ==> DiskDFJK: Density-Fitted J/K Matrices <==

    J tasked:                  Yes
    K tasked:                  Yes
    wK tasked:                 Yes
    Omega:               3.000E-01
    OpenMP threads:             24
    Integrals threads:          24
    Memory [MiB]:           102739
    Algorithm:                Core
    Integral Cache:           NONE
    Schwarz Cutoff:          1E-12
    Fitting Condition:       1E-10

   => Auxiliary Basis Set <=

  Basis Set: (CC-PV(Q+D)Z AUX)
    Blend: CC-PVQZ-JKFIT
    Number of shells: 84
    Number of basis function: 318
    Number of Cartesian functions: 426
    Spherical Harmonics?: true
    Max angular momentum: 5

  Cached 100.0% of DFT collocation blocks in 0.252 [GiB].

  Minimum eigenvalue in the overlap matrix is 9.9796978415E-04.
  Using Symmetric Orthogonalization.

  SCF Guess: Orbitals guess was supplied from a previous computation.

  ==> Iterations <==

                           Total Energy        Delta E     RMS |[F,P]|

   @DF-RKS iter   0:  -237.73004925854033   -2.37730e+02   1.53280e-04 
   @DF-RKS iter   1:  -237.73565812876322   -5.60887e-03   3.55111e-05 DIIS
   @DF-RKS iter   2:  -237.73565893724705   -8.08484e-07   3.75415e-05 DIIS
   @DF-RKS iter   3:  -237.73566158897236   -2.65173e-06   3.22278e-06 DIIS
   @DF-RKS iter   4:  -237.73566161796339   -2.89910e-08   8.85090e-07 DIIS
   @DF-RKS iter   5:  -237.73566162160498   -3.64159e-09   2.47756e-07 DIIS
   @DF-RKS iter   6:  -237.73566162184846   -2.43489e-10   3.71661e-08 DIIS
   @DF-RKS iter   7:  -237.73566162185421   -5.74119e-12   8.59888e-09 DIIS
  Energy and wave function converged.


  ==> Post-Iterations <==

    Orbital Energies [Eh]
    ---------------------

    Doubly Occupied:                                                      

       1B2   -24.837375     1A1   -24.837364     2A1   -10.475501  
       3A1    -1.474732     2B2    -1.396233     4A1    -0.834137  
       3B2    -0.722377     1B1    -0.679657     5A1    -0.674660  
       1A2    -0.597099     4B2    -0.570720     6A1    -0.418814  

    Virtual:                                                              

       2B1     0.011740     5B2     0.195816     7A1     0.205283  
       3B1     0.280439     8A1     0.285060     6B2     0.381953  
       9A1     0.386094     7B2     0.486843    10A1     0.495635  
       4B1     0.604834    11A1     0.619486     2A2     0.633871  
       3A2     0.706551     5B1     0.738032    12A1     0.759247  
       8B2     0.769344    13A1     0.821881     9B2     0.900598  
      10B2     1.098526    14A1     1.105709     6B1     1.322427  
       7B1     1.350863    15A1     1.357011    16A1     1.391205  
      11B2     1.486602    12B2     1.520251     4A2     1.546004  
       5A2     1.643824     8B1     1.671446    17A1     1.746476  
      18A1     1.776982    13B2     1.876150    19A1     1.903188  
       9B1     1.958094    14B2     1.988334     6A2     2.005646  
      20A1     2.102977    10B1     2.188426    21A1     2.191337  
      15B2     2.295752    11B1     2.383443    16B2     2.400215  
      22A1     2.412545     7A2     2.431226    17B2     2.706642  
      23A1     2.772808     8A2     3.240363    12B1     3.259729  
      18B2     3.270361    24A1     3.378560    19B2     3.929652  
      25A1     3.951322     9A2     4.026434    13B1     4.077931  
      26A1     4.106160    10A2     4.194161    20B2     4.203080  
      21B2     4.242237    27A1     4.259585    14B1     4.341555  
      22B2     4.350728    15B1     4.451442    11A2     4.499567  
      28A1     4.577396    23B2     4.594878    29A1     4.681129  
      24B2     4.802000    30A1     4.899687    31A1     5.042361  
      16B1     5.055108    12A2     5.105356    25B2     5.167045  
      17B1     5.180457    32A1     5.262946    33A1     5.403986  
      26B2     5.429395    13A2     5.484103    18B1     5.504159  
      34A1     5.576219    27B2     5.612310    14A2     5.634874  
      19B1     5.714335    35A1     5.728292    28B2     5.828800  
      36A1     5.928671    20B1     5.931543    29B2     5.951331  
      15A2     5.973874    21B1     6.046776    37A1     6.157394  
      22B1     6.184922    16A2     6.258755    38A1     6.359019  
      30B2     6.434461    39A1     6.988653    23B1     7.273887  
      40A1     7.307490    31B2     7.320816    17A2     7.381729  
      32B2     7.557196    41A1     8.218972    33B2     8.707814  
      18A2    11.409331    34B2    11.416688    42A1    11.420832  
      24B1    11.421000    19A2    11.423116    35B2    11.424180  
      25B1    11.439821    43A1    11.496422    36B2    11.609825  
      26B1    11.700756    44A1    11.784773    20A2    11.839376  
      45A1    11.913721    21A2    12.015183    27B1    12.040020  
      37B2    12.130636    46A1    12.204348    38B2    12.223017  
      22A2    12.595198    28B1    12.616523    47A1    12.693190  
      39B2    12.700070    40B2    13.534726    48A1    13.621907  
      29B1    14.590173    23A2    14.595794    41B2    14.596762  
      49A1    14.598421    24A2    14.816564    42B2    14.844665  
      30B1    14.954740    50A1    14.994693    51A1    15.167748  
      31B1    15.480793    43B2    15.503866    25A2    15.583130  
      52A1    15.690064    44B2    15.755785    53A1    15.796845  
      26A2    15.842012    32B1    15.844032    45B2    15.899832  
      54A1    16.100692    27A2    16.138233    33B1    16.166519  
      46B2    16.386115    55A1    16.778007    47B2    16.852497  
      56A1    22.220925    48B2    52.735094    57A1    52.841330  

    Final Occupation by Irrep:
             A1    A2    B1    B2 
    DOCC [     6,    1,    1,    4 ]

  @DF-RKS Final Energy:  -237.73566162185421

   => Energetics <=

    Nuclear Repulsion Energy =             64.8133613083204239
    One-Electron Energy =                -457.3568774177614955
    Two-Electron Energy =                 173.5598813337267359
    DFT Exchange-Correlation Energy =     -18.8526601031104590
    Empirical Dispersion Energy =           0.0000000000000000
    VV10 Nonlocal Energy =                  0.1006332569705549
    Total Energy =                       -237.7356616218542058

Computation Completed


Properties will be evaluated at   0.000000,   0.000000,   0.000000 [a0]

Properties computed using the SCF density matrix

  Nuclear Dipole Moment: [e a0]
     X:    -0.0000      Y:    -0.0000      Z:    -0.3601

  Electronic Dipole Moment: [e a0]
     X:     0.0000      Y:     0.0000      Z:     0.6078

  Dipole Moment: [e a0]
     X:    -0.0000      Y:    -0.0000      Z:     0.2477     Total:     0.2477

  Dipole Moment: [D]
     X:    -0.0000      Y:    -0.0000      Z:     0.6297     Total:     0.6297


*** tstop() called on bp1-compute00067.data.bp.acrc.priv at Tue Apr 27 16:58:18 2021
Module time:
	user time   =      62.32 seconds =       1.04 minutes
	system time =       2.09 seconds =       0.03 minutes
	total time  =          3 seconds =       0.05 minutes
Total time:
	user time   =     499.06 seconds =       8.32 minutes
	system time =      26.48 seconds =       0.44 minutes
	total time  =         24 seconds =       0.40 minutes

  //>>>>>>>>>>>>>>>>>>>>>>>>>>>>>>>>>>>//
  //    Loading displacement 2 of 5    //
  //<<<<<<<<<<<<<<<<<<<<<<<<<<<<<<<<<<<//

[...]

  //>>>>>>>>>>>>>>>>>>>>>>>>>>>>>>>>>>>//
  //    Loading displacement 8 of 8    //
  //<<<<<<<<<<<<<<<<<<<<<<<<<<<<<<<<<<<//

*** tstart() called on bp1-compute00067.data.bp.acrc.priv
*** at Tue Apr 27 16:59:45 2021

   => Loading Basis Set <=

    Name: CC-PV(Q+D)Z
    Role: ORBITAL
    Keyword: BASIS
    atoms 1   entry C          line   249 file /work/zw18965/.conda/envs/p4env/share/psi4/basis/cc-pv_qpd_z.gbs 
    atoms 2-3 entry F          line   399 file /work/zw18965/.conda/envs/p4env/share/psi4/basis/cc-pv_qpd_z.gbs 


         ---------------------------------------------------------
                                   SCF
               by Justin Turney, Rob Parrish, Andy Simmonett
                          and Daniel G. A. Smith
                              RKS Reference
                       24 Threads, 137329 MiB Core
         ---------------------------------------------------------

  ==> Geometry <==

    Molecular point group: cs
    Full point group: Cs

    Geometry (in Angstrom), charge = 0, multiplicity = 1:

       Center              X                  Y                   Z               Mass       
    ------------   -----------------  -----------------  -----------------  -----------------
         C            0.000000000000    -0.000622685604    -0.604768800507    12.000000000000
         F            0.000000000000     1.029420416160     0.191147720218    18.998403162730
         F            0.000000000000    -1.029027107986     0.190843626314    18.998403162730

  Running in cs symmetry.

  Rotational constants: A =      2.91905  B =      0.41882  C =      0.36627 [cm^-1]
  Rotational constants: A =  87510.92431  B =  12555.97334  C =  10980.50263 [MHz]
  Nuclear repulsion =   64.752538888635627

  Charge       = 0
  Multiplicity = 1
  Electrons    = 24
  Nalpha       = 12
  Nbeta        = 12

  ==> Algorithm <==

  SCF Algorithm Type is DF.
  DIIS enabled.
  MOM disabled.
  Fractional occupation disabled.
  Guess Type is SAD.
  Energy threshold   = 1.00e-10
  Density threshold  = 1.00e-10
  Integral threshold = 0.00e+00

  ==> Primary Basis <==

  Basis Set: CC-PV(Q+D)Z
    Blend: CC-PV(Q+D)Z
    Number of shells: 45
    Number of basis function: 165
    Number of Cartesian functions: 210
    Spherical Harmonics?: true
    Max angular momentum: 4

  ==> DFT Potential <==

   => Composite Functional: WB97X-V <= 

    wB97X-V Hyb-GGA Exchange-Correlation Functional

    N. Mardirossian and M. Head-Gordon, Phys. Chem. Chem. Phys. 16, 9904 (2014)

    Deriv               =              1
    GGA                 =           TRUE
    Meta                =          FALSE

    Exchange Hybrid     =           TRUE
    MP2 Hybrid          =          FALSE

   => Exchange-Correlation Functionals <=

    1.0000   wB97X-V range-separated functional

   => Exact (HF) Exchange <=

    0.8330            HF,LR [omega = 0.3000]
    0.1670               HF 

   => VV10 Non-Local Parameters <=

    VV10 B              =     6.0000E+00
    VV10 C              =     1.0000E-02

   => Molecular Quadrature <=

    Radial Scheme          =       TREUTLER
    Pruning Scheme         =           FLAT
    Nuclear Scheme         =       TREUTLER

    BS radius alpha        =              1
    Pruning alpha          =              1
    Radial Points          =             75
    Spherical Points       =            302
    Total Points           =          66197
    Total Blocks           =            567
    Max Points             =            256
    Max Functions          =            165

   => Loading Basis Set <=

    Name: (CC-PV(Q+D)Z AUX)
    Role: JKFIT
    Keyword: DF_BASIS_SCF
    atoms 1   entry C          line   137 file /work/zw18965/.conda/envs/p4env/share/psi4/basis/cc-pvqz-jkfit.gbs 
    atoms 2-3 entry F          line   311 file /work/zw18965/.conda/envs/p4env/share/psi4/basis/cc-pvqz-jkfit.gbs 

  ==> Pre-Iterations <==

   -------------------------------------------------------
    Irrep   Nso     Nmo     Nalpha   Nbeta   Ndocc  Nsocc
   -------------------------------------------------------
     A'       105     105       0       0       0       0
     A"        60      60       0       0       0       0
   -------------------------------------------------------
    Total     165     165      12      12      12       0
   -------------------------------------------------------

  ==> Integral Setup <==

  ==> DiskDFJK: Density-Fitted J/K Matrices <==

    J tasked:                  Yes
    K tasked:                  Yes
    wK tasked:                 Yes
    Omega:               3.000E-01
    OpenMP threads:             24
    Integrals threads:          24
    Memory [MiB]:           102740
    Algorithm:                Core
    Integral Cache:           NONE
    Schwarz Cutoff:          1E-12
    Fitting Condition:       1E-10

   => Auxiliary Basis Set <=

  Basis Set: (CC-PV(Q+D)Z AUX)
    Blend: CC-PVQZ-JKFIT
    Number of shells: 84
    Number of basis function: 318
    Number of Cartesian functions: 426
    Spherical Harmonics?: true
    Max angular momentum: 5

  Cached 100.0% of DFT collocation blocks in 0.251 [GiB].

  Minimum eigenvalue in the overlap matrix is 1.0015267599E-03.
  Using Symmetric Orthogonalization.

  SCF Guess: Superposition of Atomic Densities via on-the-fly atomic UHF.

  ==> Iterations <==

                           Total Energy        Delta E     RMS |[F,P]|

   @DF-RKS iter SAD:  -237.22511769446729   -2.37225e+02   0.00000e+00 
   @DF-RKS iter   1:  -237.70296697605292   -4.77849e-01   2.69311e-03 DIIS
   @DF-RKS iter   2:  -237.71163009163314   -8.66312e-03   2.55973e-03 DIIS
   @DF-RKS iter   3:  -237.73515312666646   -2.35230e-02   3.17463e-04 DIIS
   @DF-RKS iter   4:  -237.73563699433288   -4.83868e-04   4.52393e-05 DIIS
   @DF-RKS iter   5:  -237.73566280497462   -2.58106e-05   8.14431e-06 DIIS
   @DF-RKS iter   6:  -237.73566370799989   -9.03025e-07   3.20741e-06 DIIS
   @DF-RKS iter   7:  -237.73566376549960   -5.74997e-08   2.00350e-06 DIIS
   @DF-RKS iter   8:  -237.73566378464551   -1.91459e-08   2.28827e-07 DIIS
   @DF-RKS iter   9:  -237.73566378523208   -5.86567e-10   4.76424e-08 DIIS
   @DF-RKS iter  10:  -237.73566378526201   -2.99281e-11   1.30517e-08 DIIS
   @DF-RKS iter  11:  -237.73566378526377   -1.76215e-12   1.99408e-09 DIIS
   @DF-RKS iter  12:  -237.73566378526391   -1.42109e-13   3.69102e-10 DIIS
   @DF-RKS iter  13:  -237.73566378526363    2.84217e-13   4.92997e-11 DIIS
  Energy and wave function converged.


  ==> Post-Iterations <==

    Orbital Energies [Eh]
    ---------------------

    Doubly Occupied:                                                      

       1Ap   -24.837611     2Ap   -24.836961     3Ap   -10.475912  
       4Ap    -1.474011     5Ap    -1.395861     6Ap    -0.833964  
       7Ap    -0.722019     1App   -0.679193     8Ap    -0.674247  
       2App   -0.596914     9Ap    -0.570657    10Ap    -0.419107  

    Virtual:                                                              

       3App    0.011293    11Ap     0.195552    12Ap     0.205121  
       4App    0.280478    13Ap     0.284913    14Ap     0.381144  
      15Ap     0.385033    16Ap     0.486911    17Ap     0.495671  
       5App    0.604660    18Ap     0.619369     6App    0.633775  
       7App    0.706532     8App    0.738101    19Ap     0.758909  
      20Ap     0.769304    21Ap     0.821521    22Ap     0.900445  
      23Ap     1.098468    24Ap     1.105947     9App    1.322380  
      10App    1.350850    25Ap     1.357042    26Ap     1.391386  
      27Ap     1.486466    28Ap     1.520324    11App    1.545220  
      12App    1.643656    13App    1.671029    29Ap     1.746584  
      30Ap     1.777037    31Ap     1.875119    32Ap     1.902732  
      14App    1.957941    33Ap     1.986949    15App    2.005351  
      34Ap     2.102762    16App    2.187541    35Ap     2.190552  
      36Ap     2.296054    17App    2.383477    37Ap     2.400299  
      38Ap     2.412142    18App    2.431098    39Ap     2.704386  
      40Ap     2.771465    19App    3.239415    20App    3.258493  
      41Ap     3.269365    42Ap     3.377464    43Ap     3.930660  
      44Ap     3.952563    21App    4.025601    22App    4.078415  
      45Ap     4.106311    23App    4.193889    46Ap     4.201820  
      47Ap     4.241626    48Ap     4.259047    24App    4.340791  
      49Ap     4.349992    25App    4.450665    26App    4.498208  
      50Ap     4.575183    51Ap     4.594144    52Ap     4.680631  
      53Ap     4.801656    54Ap     4.899016    55Ap     5.042216  
      27App    5.054856    28App    5.104729    56Ap     5.165512  
      29App    5.182175    57Ap     5.260732    58Ap     5.402105  
      59Ap     5.428737    30App    5.484970    31App    5.502010  
      60Ap     5.575839    61Ap     5.611868    32App    5.633394  
      33App    5.713357    62Ap     5.728046    63Ap     5.827320  
      64Ap     5.927627    34App    5.929866    65Ap     5.951005  
      35App    5.971304    36App    6.046658    66Ap     6.154773  
      37App    6.183935    38App    6.257831    67Ap     6.356519  
      68Ap     6.432675    69Ap     6.986678    39App    7.269326  
      70Ap     7.303335    71Ap     7.317333    40App    7.377192  
      72Ap     7.553264    73Ap     8.218348    74Ap     8.702068  
      41App   11.409497    75Ap    11.416818    76Ap    11.421055  
      42App   11.421176    43App   11.423342    77Ap    11.424286  
      44App   11.439666    78Ap    11.495721    79Ap    11.608629  
      45App   11.698676    80Ap    11.782445    46App   11.837333  
      81Ap    11.911744    47App   12.012811    48App   12.037833  
      82Ap    12.126952    83Ap    12.201540    84Ap    12.220610  
      49App   12.593598    50App   12.615010    85Ap    12.691815  
      86Ap    12.697514    87Ap    13.533643    88Ap    13.620871  
      51App   14.590201    52App   14.595602    89Ap    14.596616  
      90Ap    14.598453    53App   14.815678    91Ap    14.843302  
      54App   14.953311    92Ap    14.993392    93Ap    15.165910  
      55App   15.478947    94Ap    15.502335    56App   15.580960  
      95Ap    15.687293    96Ap    15.754721    97Ap    15.796506  
      57App   15.841678    58App   15.844118    98Ap    15.899270  
      99Ap    16.100737    59App   16.136871    60App   16.165650  
     100Ap    16.383131   101Ap    16.776465   102Ap    16.847969  
     103Ap    22.203195   104Ap    52.731657   105Ap    52.837078  

    Final Occupation by Irrep:
             Ap   App 
    DOCC [    10,    2 ]

  @DF-RKS Final Energy:  -237.73566378526363

   => Energetics <=

    Nuclear Repulsion Energy =             64.7525388886356268
    One-Electron Energy =                -457.2403514058233327
    Two-Electron Energy =                 173.5030708574335563
    DFT Exchange-Correlation Energy =     -18.8515589389805847
    Empirical Dispersion Energy =           0.0000000000000000
    VV10 Nonlocal Energy =                  0.1006368134710989
    Total Energy =                       -237.7356637852636254

Computation Completed


Properties will be evaluated at   0.000000,   0.000000,   0.000000 [a0]

Properties computed using the SCF density matrix

  Nuclear Dipole Moment: [e a0]
     X:     0.0000      Y:    -0.0004      Z:    -0.3604

  Electronic Dipole Moment: [e a0]
     X:     0.0000      Y:    -0.0027      Z:     0.6059

  Dipole Moment: [e a0]
     X:     0.0000      Y:    -0.0031      Z:     0.2455     Total:     0.2455

  Dipole Moment: [D]
     X:     0.0000      Y:    -0.0079      Z:     0.6241     Total:     0.6241


*** tstop() called on bp1-compute00067.data.bp.acrc.priv at Tue Apr 27 16:59:49 2021
Module time:
	user time   =      96.32 seconds =       1.61 minutes
	system time =       2.80 seconds =       0.05 minutes
	total time  =          4 seconds =       0.07 minutes
Total time:
	user time   =    2518.90 seconds =      41.98 minutes
	system time =     102.53 seconds =       1.71 minutes
	total time  =        115 seconds =       1.92 minutes

         ----------------------------------------------------------
                                   FINDIF
                     R. A. King and Jonathon Misiewicz
         ---------------------------------------------------------

  Computing second-derivative from energies using projected, 
  symmetry-adapted, cartesian coordinates.

  8 energies passed in, including the reference geometry.
    Using 3-point formula.
    Energy without displacement: -237.7356644057
    Check energies below for precision!
    0: -1        :      -237.7356636340
    0: 1         :      -237.7356638470
    1: -1        :      -237.7356640369
    1: 1         :      -237.7356641709
    0: 1, 1: 1   :      -237.7356640010
    0: -1, 1: -1 :      -237.7356636531
    2: -1        :      -237.7356637853

-------------------------------------------------------------


  ==> Harmonic Vibrational Analysis <==

  non-mass-weighted Hessian:       Symmetric? True   Hermitian? True   Lin Dep Dim?  6 (0)
  projection of translations (True) and rotations (True) removed 6 degrees of freedom (6)
  total projector:                 Symmetric? True   Hermitian? True   Lin Dep Dim?  6 (6)
  mass-weighted Hessian:           Symmetric? True   Hermitian? True   Lin Dep Dim?  6 (0)
  pre-proj  low-frequency mode:    0.0000i [cm^-1]
  pre-proj  low-frequency mode:    0.0000i [cm^-1]
  pre-proj  low-frequency mode:    0.0000  [cm^-1]
  pre-proj  low-frequency mode:    0.0000  [cm^-1]
  pre-proj  low-frequency mode:    0.0000  [cm^-1]
  pre-proj  low-frequency mode:    0.0000  [cm^-1]
  pre-proj  all modes:['0.0000i' '0.0000i' '0.0000' '0.0000' '0.0000' '0.0000' '678.1399'
 '1145.2142' '1258.6360']
  projected mass-weighted Hessian: Symmetric? True   Hermitian? True   Lin Dep Dim?  6 (6)
  post-proj low-frequency mode:    0.0000i [cm^-1] (TR)
  post-proj low-frequency mode:    0.0000i [cm^-1] (TR)
  post-proj low-frequency mode:    0.0000i [cm^-1] (TR)
  post-proj low-frequency mode:    0.0000i [cm^-1] (TR)
  post-proj low-frequency mode:    0.0000  [cm^-1] (TR)
  post-proj low-frequency mode:    0.0000  [cm^-1] (TR)
  post-proj  all modes:['0.0000i' '0.0000i' '0.0000i' '0.0000i' '0.0000' '0.0000' '678.1399'
 '1145.2142' '1258.6360']

  Vibration                       7                   8                   9           
  Freq [cm^-1]                 678.1399           1145.2142           1258.6360       
  Irrep                           A1                  B2                  A1          
  Reduced mass [u]             17.7527             13.6915             13.8366        
  Force const [mDyne/A]         4.8101             10.5797             12.9146        
  Turning point v=0 [a0]        0.1000              0.0876              0.0831        
  RMS dev v=0 [a0 u^1/2]        0.2979              0.2293              0.2187        
  Char temp [K]                975.6923           1647.7083           1810.8970       
  ----------------------------------------------------------------------------------
      1   C               -0.00 -0.00  0.42   -0.00  0.87 -0.00    0.00  0.00  0.86   
      2   F                0.00  0.63 -0.13   -0.00 -0.28 -0.21   -0.00 -0.24 -0.27   
      3   F                0.00 -0.63 -0.13   -0.00 -0.28  0.21    0.00  0.24 -0.27   

  ==> Thermochemistry Components <==

  Entropy, S
    Electronic S            0.000 [cal/(mol K)]        0.000 [J/(mol K)]       0.00000000 [mEh/K] (multiplicity = 1)
    Translational S        37.652 [cal/(mol K)]      157.535 [J/(mol K)]       0.06000175 [mEh/K] (mol. weight = 49.9968 [u], P = 101325.00 [Pa])
    Rotational S           19.438 [cal/(mol K)]       81.329 [J/(mol K)]       0.03097660 [mEh/K] (symmetry no. = 2)
    Vibrational S           0.417 [cal/(mol K)]        1.746 [J/(mol K)]       0.00066503 [mEh/K]
  Total S                  57.507 [cal/(mol K)]      240.610 [J/(mol K)]       0.09164337 [mEh/K]
  Correction S              0.000 [cal/(mol K)]        0.000 [J/(mol K)]       0.00000000 [mEh/K]

  Constant volume heat capacity, Cv
    Electronic Cv           0.000 [cal/(mol K)]        0.000 [J/(mol K)]       0.00000000 [mEh/K]
    Translational Cv        2.981 [cal/(mol K)]       12.472 [J/(mol K)]       0.00475022 [mEh/K]
    Rotational Cv           2.981 [cal/(mol K)]       12.472 [J/(mol K)]       0.00475022 [mEh/K]
    Vibrational Cv          1.285 [cal/(mol K)]        5.375 [J/(mol K)]       0.00204734 [mEh/K]
  Total Cv                  7.246 [cal/(mol K)]       30.319 [J/(mol K)]       0.01154777 [mEh/K]
  Correction Cv             0.000 [cal/(mol K)]        0.000 [J/(mol K)]       0.00000000 [mEh/K]

  Constant pressure heat capacity, Cp
    Electronic Cp           0.000 [cal/(mol K)]        0.000 [J/(mol K)]       0.00000000 [mEh/K]
    Translational Cp        4.968 [cal/(mol K)]       20.786 [J/(mol K)]       0.00791703 [mEh/K]
    Rotational Cp           2.981 [cal/(mol K)]       12.472 [J/(mol K)]       0.00475022 [mEh/K]
    Vibrational Cp          1.285 [cal/(mol K)]        5.375 [J/(mol K)]       0.00204734 [mEh/K]
  Total Cp                  9.234 [cal/(mol K)]       38.633 [J/(mol K)]       0.01471458 [mEh/K]
  Correction Cp             0.000 [cal/(mol K)]        0.000 [J/(mol K)]       0.00000000 [mEh/K]

  ==> Thermochemistry Energy Analysis <==

  Raw electronic energy, E0
  Total E0, Electronic energy at well bottom at 0 [K]                 -237.73566441 [Eh]

  Zero-point energy, ZPE_vib = Sum_i nu_i / 2
    Electronic ZPE          0.000 [kcal/mol]        0.000 [kJ/mol]       0.00000000 [Eh]
    Translational ZPE       0.000 [kcal/mol]        0.000 [kJ/mol]       0.00000000 [Eh]
    Rotational ZPE          0.000 [kcal/mol]        0.000 [kJ/mol]       0.00000000 [Eh]
    Vibrational ZPE         4.406 [kcal/mol]       18.434 [kJ/mol]       0.00702129 [Eh]        1540.995 [cm^-1]
  Correction ZPE            4.406 [kcal/mol]       18.434 [kJ/mol]       0.00702129 [Eh]        1540.995 [cm^-1]
  Total ZPE, Electronic energy at 0 [K]                               -237.72864312 [Eh]

  Thermal Energy, E (includes ZPE)
    Electronic E            0.000 [kcal/mol]        0.000 [kJ/mol]       0.00000000 [Eh]
    Translational E         0.889 [kcal/mol]        3.718 [kJ/mol]       0.00141628 [Eh]
    Rotational E            0.889 [kcal/mol]        3.718 [kJ/mol]       0.00141628 [Eh]
    Vibrational E           4.504 [kcal/mol]       18.844 [kJ/mol]       0.00717713 [Eh]
  Correction E              6.281 [kcal/mol]       26.280 [kJ/mol]       0.01000969 [Eh]
  Total E, Electronic energy at  298.15 [K]                           -237.72565472 [Eh]

  Enthalpy, H_trans = E_trans + k_B * T
    Electronic H            0.000 [kcal/mol]        0.000 [kJ/mol]       0.00000000 [Eh]
    Translational H         1.481 [kcal/mol]        6.197 [kJ/mol]       0.00236046 [Eh]
    Rotational H            0.889 [kcal/mol]        3.718 [kJ/mol]       0.00141628 [Eh]
    Vibrational H           4.504 [kcal/mol]       18.844 [kJ/mol]       0.00717713 [Eh]
  Correction H              6.874 [kcal/mol]       28.759 [kJ/mol]       0.01095387 [Eh]
  Total H, Enthalpy at  298.15 [K]                                    -237.72471053 [Eh]

  Gibbs free energy, G = H - T * S
    Electronic G            0.000 [kcal/mol]        0.000 [kJ/mol]       0.00000000 [Eh]
    Translational G        -9.745 [kcal/mol]      -40.772 [kJ/mol]      -0.01552906 [Eh]
    Rotational G           -4.907 [kcal/mol]      -20.530 [kJ/mol]      -0.00781940 [Eh]
    Vibrational G           4.379 [kcal/mol]       18.323 [kJ/mol]       0.00697886 [Eh]
  Correction G            -10.272 [kcal/mol]      -42.978 [kJ/mol]      -0.01636960 [Eh]
  Total G, Free enthalpy at  298.15 [K]                               -237.75203400 [Eh]

    Psi4 stopped on: Tuesday, 27 April 2021 04:59PM
    Psi4 wall time for execution: 0:01:54.93

*** Psi4 exiting successfully. Buy a developer a beer!
