
    -----------------------------------------------------------------------
          Psi4: An Open-Source Ab Initio Electronic Structure Package
                               Psi4 1.3.2 release

                         Git: Rev {HEAD} ecbda83 


    R. M. Parrish, L. A. Burns, D. G. A. Smith, A. C. Simmonett,
    A. E. DePrince III, E. G. Hohenstein, U. Bozkaya, A. Yu. Sokolov,
    R. Di Remigio, R. M. Richard, J. F. Gonthier, A. M. James,
    H. R. McAlexander, A. Kumar, M. Saitow, X. Wang, B. P. Pritchard,
    P. Verma, H. F. Schaefer III, K. Patkowski, R. A. King, E. F. Valeev,
    F. A. Evangelista, J. M. Turney, T. D. Crawford, and C. D. Sherrill,
    J. Chem. Theory Comput. 13(7) pp 3185--3197 (2017).
    (doi: 10.1021/acs.jctc.7b00174)


                         Additional Contributions by
    P. Kraus, H. Kruse, M. H. Lechner, M. C. Schieber, R. A. Shaw,
    A. Alenaizan, R. Galvelis, Z. L. Glick, S. Lehtola, and J. P. Misiewicz

    -----------------------------------------------------------------------


    Psi4 started on: Tuesday, 27 April 2021 05:00PM

    Process ID: 275245
    Host:       bp1-compute00046.data.bp.acrc.priv
    PSIDATADIR: /work/zw18965/.conda/envs/p4env/share/psi4
    Memory:     500.0 MiB
    Threads:    24
    
  ==> Input File <==

--------------------------------------------------------------------------
memory 144 GB

molecule {
0 1
S 0.0000000000 0.0000000000 0.0000000000
H 0.0000000000 0.0000000000 1.3377284100
H 1.3366219004 0.0000000000 -0.0543984776
}

set dynamic_level 1
set basis cc-pV(Q+d)Z
 
optimize("wB97X-V")
frequencies("wB97X-V")
--------------------------------------------------------------------------

  Memory set to 134.110 GiB by Python driver.
gradient() will perform gradient computation by finite difference of analytic energies.

         ----------------------------------------------------------
                                   FINDIF
                     R. A. King and Jonathon Misiewicz
         ---------------------------------------------------------

  Using finite-differences of energies to determine gradients.
    Generating geometries for use with 3-point formula.
    Displacement size will be 5.00e-03.
    Number of atoms is 3.
    Number of symmetric SALCs is 2.
    Translations projected? 1. Rotations projected? 1.
    Number of geometries (including reference) is 5.

  //>>>>>>>>>>>>>>>>>>>>>>>>>>>>>>>>>>>//
  //    Loading displacement 1 of 5    //
  //<<<<<<<<<<<<<<<<<<<<<<<<<<<<<<<<<<<//

*** tstart() called on bp1-compute00046.data.bp.acrc.priv
*** at Tue Apr 27 17:00:43 2021

   => Loading Basis Set <=

    Name: CC-PV(Q+D)Z
    Role: ORBITAL
    Keyword: BASIS
    atoms 1   entry S          line   978 file /work/zw18965/.conda/envs/p4env/share/psi4/basis/cc-pv_qpd_z.gbs 
    atoms 2-3 entry H          line    32 file /work/zw18965/.conda/envs/p4env/share/psi4/basis/cc-pv_qpd_z.gbs 


         ---------------------------------------------------------
                                   SCF
               by Justin Turney, Rob Parrish, Andy Simmonett
                          and Daniel G. A. Smith
                              RKS Reference
                       24 Threads, 137329 MiB Core
         ---------------------------------------------------------

  ==> Geometry <==

    Molecular point group: c2v
    Full point group: C2v

    Geometry (in Angstrom), charge = 0, multiplicity = 1:

       Center              X                  Y                   Z               Mass       
    ------------   -----------------  -----------------  -----------------  -----------------
         S           -0.000000000000     0.000000000000    -0.054945385977    31.972071174400
         H           -0.000000000000     0.964957949318     0.871539074231     1.007825032230
         H            0.000000000000    -0.964957949318     0.871539074231     1.007825032230

  Running in c2v symmetry.

  Rotational constants: A =     10.35753  B =      8.98182  C =      4.81037 [cm^-1]
  Rotational constants: A = 310511.05038  B = 269268.33579  C = 144211.39450 [MHz]
  Nuclear repulsion =   12.932723691197257

  Charge       = 0
  Multiplicity = 1
  Electrons    = 18
  Nalpha       = 9
  Nbeta        = 9

  ==> Algorithm <==

  SCF Algorithm Type is DF.
  DIIS enabled.
  MOM disabled.
  Fractional occupation disabled.
  Guess Type is SAD.
  Energy threshold   = 1.00e-08
  Density threshold  = 1.00e-08
  Integral threshold = 0.00e+00

  ==> Primary Basis <==

  Basis Set: CC-PV(Q+D)Z
    Blend: CC-PV(Q+D)Z
    Number of shells: 38
    Number of basis function: 124
    Number of Cartesian functions: 150
    Spherical Harmonics?: true
    Max angular momentum: 4

  ==> DFT Potential <==

   => Composite Functional: WB97X-V <= 

    wB97X-V Hyb-GGA Exchange-Correlation Functional

    N. Mardirossian and M. Head-Gordon, Phys. Chem. Chem. Phys. 16, 9904 (2014)

    Deriv               =              1
    GGA                 =           TRUE
    Meta                =          FALSE

    Exchange Hybrid     =           TRUE
    MP2 Hybrid          =          FALSE

   => Exchange-Correlation Functionals <=

    1.0000   wB97X-V range-separated functional

   => Exact (HF) Exchange <=

    0.8330            HF,LR [omega = 0.3000]
    0.1670               HF 

   => VV10 Non-Local Parameters <=

    VV10 B              =     6.0000E+00
    VV10 C              =     1.0000E-02

   => Molecular Quadrature <=

    Radial Scheme          =       TREUTLER
    Pruning Scheme         =           FLAT
    Nuclear Scheme         =       TREUTLER

    BS radius alpha        =              1
    Pruning alpha          =              1
    Radial Points          =             75
    Spherical Points       =            302
    Total Points           =          66917
    Total Blocks           =            562
    Max Points             =            256
    Max Functions          =            124

   => Loading Basis Set <=

    Name: (CC-PV(Q+D)Z AUX)
    Role: JKFIT
    Keyword: DF_BASIS_SCF
    atoms 1   entry S          line   673 file /work/zw18965/.conda/envs/p4env/share/psi4/basis/cc-pvqz-jkfit.gbs 
    atoms 2-3 entry H          line    51 file /work/zw18965/.conda/envs/p4env/share/psi4/basis/cc-pvqz-jkfit.gbs 

  ==> Pre-Iterations <==

   -------------------------------------------------------
    Irrep   Nso     Nmo     Nalpha   Nbeta   Ndocc  Nsocc
   -------------------------------------------------------
     A1        46      46       0       0       0       0
     A2        18      18       0       0       0       0
     B1        25      25       0       0       0       0
     B2        35      35       0       0       0       0
   -------------------------------------------------------
    Total     124     124       9       9       9       0
   -------------------------------------------------------

  ==> Integral Setup <==

  ==> DiskDFJK: Density-Fitted J/K Matrices <==

    J tasked:                  Yes
    K tasked:                  Yes
    wK tasked:                 Yes
    Omega:               3.000E-01
    OpenMP threads:             24
    Integrals threads:          24
    Memory [MiB]:           102773
    Algorithm:                Core
    Integral Cache:           NONE
    Schwarz Cutoff:          1E-12
    Fitting Condition:       1E-10

   => Auxiliary Basis Set <=

  Basis Set: (CC-PV(Q+D)Z AUX)
    Blend: CC-PVQZ-JKFIT
    Number of shells: 66
    Number of basis function: 250
    Number of Cartesian functions: 323
    Spherical Harmonics?: true
    Max angular momentum: 5

  Cached 100.0% of DFT collocation blocks in 0.218 [GiB].

  Minimum eigenvalue in the overlap matrix is 3.1386452550E-04.
  Using Symmetric Orthogonalization.

  SCF Guess: Superposition of Atomic Densities via on-the-fly atomic UHF.

  ==> Iterations <==

                           Total Energy        Delta E     RMS |[F,P]|

   @DF-RKS iter SAD:  -399.09238809633860   -3.99092e+02   0.00000e+00 
   @DF-RKS iter   1:  -399.31516989653198   -2.22782e-01   4.42540e-03 DIIS
   @DF-RKS iter   2:  -399.34296062913535   -2.77907e-02   2.51234e-03 DIIS
   @DF-RKS iter   3:  -399.35260276735409   -9.64214e-03   1.71955e-04 DIIS
   @DF-RKS iter   4:  -399.35279779765335   -1.95030e-04   4.39166e-05 DIIS
   @DF-RKS iter   5:  -399.35280919237414   -1.13947e-05   9.80081e-06 DIIS
   @DF-RKS iter   6:  -399.35280950847937   -3.16105e-07   1.92371e-06 DIIS
   @DF-RKS iter   7:  -399.35280952345778   -1.49784e-08   3.29262e-07 DIIS
   @DF-RKS iter   8:  -399.35280952404281   -5.85032e-10   5.47523e-08 DIIS
   @DF-RKS iter   9:  -399.35280952406640   -2.35900e-11   8.52595e-09 DIIS
  Energy and wave function converged.


  ==> Post-Iterations <==

    Orbital Energies [Eh]
    ---------------------

    Doubly Occupied:                                                      

       1A1   -88.894913     2A1    -8.052128     1B2    -6.009311  
       3A1    -6.005954     1B1    -5.999982     4A1    -0.871854  
       2B2    -0.550921     5A1    -0.471903     2B1    -0.366390  

    Virtual:                                                              

       6A1     0.085534     3B2     0.098865     4B2     0.210909  
       7A1     0.245161     8A1     0.284144     3B1     0.288318  
       9A1     0.306995     1A2     0.327450     4B1     0.335025  
       5B2     0.351338    10A1     0.419147    11A1     0.564233  
       6B2     0.609486     2A2     0.732161     7B2     0.750452  
       5B1     0.782752    12A1     0.784513     8B2     0.886407  
      13A1     0.933232    14A1     1.011729     3A2     1.030309  
       6B1     1.038243     7B1     1.116685    15A1     1.129383  
       9B2     1.187164    16A1     1.228613    10B2     1.271804  
      11B2     1.290027     8B1     1.299037    17A1     1.313052  
       4A2     1.386129     9B1     1.402611    18A1     1.504768  
      12B2     1.606853    19A1     1.607383    13B2     1.855071  
      20A1     2.085906     5A2     2.090987    14B2     2.159877  
      10B1     2.238066     6A2     2.271340    11B1     2.306695  
      21A1     2.310884    22A1     2.359982    15B2     2.428552  
      16B2     2.589085    23A1     2.632779    24A1     2.702055  
       7A2     2.714459    12B1     2.734855     8A2     2.805751  
      17B2     2.830856    13B1     2.839772    25A1     2.874038  
      26A1     2.944415    18B2     3.102951    14B1     3.194219  
      27A1     3.225700     9A2     3.282419    19B2     3.287313  
      28A1     3.302006    20B2     3.355929    15B1     3.368779  
      16B1     3.403651    10A2     3.417160    29A1     3.500801  
      30A1     3.788737    21B2     3.844216    31A1     3.951000  
      22B2     4.057634    17B1     4.069859    11A2     4.155923  
      32A1     4.246020    23B2     4.366682    18B1     5.255448  
      33A1     5.693975    24B2     5.763327    19B1     5.892416  
      12A2     5.910046    25B2     5.933836    34A1     5.957482  
      26B2     6.246186    13A2     6.316602    35A1     6.585564  
      20B1     6.618491    27B2     6.653066    36A1     6.726023  
      14A2     6.879249    21B1     6.924004    37A1     6.982859  
      28B2     7.059835    38A1     7.691050    29B2     7.702850  
      39A1     7.984638    15A2     8.027480    30B2     8.080881  
      22B1     8.085939    16A2     8.096194    23B1     8.104256  
      40A1     8.221194    31B2     8.287709    17A2     8.591804  
      24B1     8.638437    32B2     8.700287    41A1     8.721528  
      25B1     8.879019    18A2     8.879277    42A1     8.923262  
      43A1     9.013361    33B2     9.083061    44A1     9.149393  
      34B2     9.364153    45A1    10.302719    35B2    11.150495  
      46A1    19.579319  

    Final Occupation by Irrep:
             A1    A2    B1    B2 
    DOCC [     5,    0,    2,    2 ]

  @DF-RKS Final Energy:  -399.35280952406640

   => Energetics <=

    Nuclear Repulsion Energy =             12.9327236911972570
    One-Electron Energy =                -576.7230454537041169
    Two-Electron Energy =                 184.0956937756611467
    DFT Exchange-Correlation Energy =     -19.7339396305395880
    Empirical Dispersion Energy =           0.0000000000000000
    VV10 Nonlocal Energy =                  0.0757580933189167
    Total Energy =                       -399.3528095240663447

Computation Completed


Properties will be evaluated at   0.000000,   0.000000,   0.000000 [a0]

Properties computed using the SCF density matrix

  Nuclear Dipole Moment: [e a0]
     X:    -0.0000      Y:     0.0000      Z:     1.6326

  Electronic Dipole Moment: [e a0]
     X:     0.0000      Y:     0.0000      Z:    -1.2091

  Dipole Moment: [e a0]
     X:    -0.0000      Y:     0.0000      Z:     0.4236     Total:     0.4236

  Dipole Moment: [D]
     X:    -0.0000      Y:     0.0000      Z:     1.0766     Total:     1.0766


*** tstop() called on bp1-compute00046.data.bp.acrc.priv at Tue Apr 27 17:00:46 2021
Module time:
	user time   =      71.78 seconds =       1.20 minutes
	system time =       3.15 seconds =       0.05 minutes
	total time  =          3 seconds =       0.05 minutes
Total time:
	user time   =      71.78 seconds =       1.20 minutes
	system time =       3.15 seconds =       0.05 minutes
	total time  =          3 seconds =       0.05 minutes

  //>>>>>>>>>>>>>>>>>>>>>>>>>>>>>>>>>>>//
  //    Loading displacement 2 of 5    //
  //<<<<<<<<<<<<<<<<<<<<<<<<<<<<<<<<<<<//

*** tstart() called on bp1-compute00046.data.bp.acrc.priv
*** at Tue Apr 27 17:00:46 2021

   => Loading Basis Set <=

    Name: CC-PV(Q+D)Z
    Role: ORBITAL
    Keyword: BASIS
    atoms 1   entry S          line   978 file /work/zw18965/.conda/envs/p4env/share/psi4/basis/cc-pv_qpd_z.gbs 
    atoms 2-3 entry H          line    32 file /work/zw18965/.conda/envs/p4env/share/psi4/basis/cc-pv_qpd_z.gbs 


         ---------------------------------------------------------
                                   SCF
               by Justin Turney, Rob Parrish, Andy Simmonett
                          and Daniel G. A. Smith
                              RKS Reference
                       24 Threads, 137329 MiB Core
         ---------------------------------------------------------

  ==> Geometry <==

    Molecular point group: c2v
    Full point group: C2v

    Geometry (in Angstrom), charge = 0, multiplicity = 1:

       Center              X                  Y                   Z               Mass       
    ------------   -----------------  -----------------  -----------------  -----------------
         S           -0.000000000000     0.000000000000    -0.055059340691    31.972071174400
         H           -0.000000000000     0.964957949318     0.873346614288     1.007825032230
         H            0.000000000000    -0.964957949318     0.873346614288     1.007825032230

  Running in c2v symmetry.

  Rotational constants: A =     10.31470  B =      8.98182  C =      4.80112 [cm^-1]
  Rotational constants: A = 309227.06911  B = 269268.33579  C = 143933.82830 [MHz]
  Nuclear repulsion =   12.920136565049020

  Charge       = 0
  Multiplicity = 1
  Electrons    = 18
  Nalpha       = 9
  Nbeta        = 9

  ==> Algorithm <==

  SCF Algorithm Type is DF.
  DIIS enabled.
  MOM disabled.
  Fractional occupation disabled.
  Guess Type is SAD.
  Energy threshold   = 1.00e-08
  Density threshold  = 1.00e-08
  Integral threshold = 0.00e+00

  ==> Primary Basis <==

  Basis Set: CC-PV(Q+D)Z
    Blend: CC-PV(Q+D)Z
    Number of shells: 38
    Number of basis function: 124
    Number of Cartesian functions: 150
    Spherical Harmonics?: true
    Max angular momentum: 4

  ==> DFT Potential <==

   => Composite Functional: WB97X-V <= 

    wB97X-V Hyb-GGA Exchange-Correlation Functional

    N. Mardirossian and M. Head-Gordon, Phys. Chem. Chem. Phys. 16, 9904 (2014)

    Deriv               =              1
    GGA                 =           TRUE
    Meta                =          FALSE

    Exchange Hybrid     =           TRUE
    MP2 Hybrid          =          FALSE

   => Exchange-Correlation Functionals <=

    1.0000   wB97X-V range-separated functional

   => Exact (HF) Exchange <=

    0.8330            HF,LR [omega = 0.3000]
    0.1670               HF 

   => VV10 Non-Local Parameters <=

    VV10 B              =     6.0000E+00
    VV10 C              =     1.0000E-02

   => Molecular Quadrature <=

    Radial Scheme          =       TREUTLER
    Pruning Scheme         =           FLAT
    Nuclear Scheme         =       TREUTLER

    BS radius alpha        =              1
    Pruning alpha          =              1
    Radial Points          =             75
    Spherical Points       =            302
    Total Points           =          66917
    Total Blocks           =            562
    Max Points             =            256
    Max Functions          =            124

   => Loading Basis Set <=

    Name: (CC-PV(Q+D)Z AUX)
    Role: JKFIT
    Keyword: DF_BASIS_SCF
    atoms 1   entry S          line   673 file /work/zw18965/.conda/envs/p4env/share/psi4/basis/cc-pvqz-jkfit.gbs 
    atoms 2-3 entry H          line    51 file /work/zw18965/.conda/envs/p4env/share/psi4/basis/cc-pvqz-jkfit.gbs 

  ==> Pre-Iterations <==

   -------------------------------------------------------
    Irrep   Nso     Nmo     Nalpha   Nbeta   Ndocc  Nsocc
   -------------------------------------------------------
     A1        46      46       0       0       0       0
     A2        18      18       0       0       0       0
     B1        25      25       0       0       0       0
     B2        35      35       0       0       0       0
   -------------------------------------------------------
    Total     124     124       9       9       9       0
   -------------------------------------------------------

  ==> Integral Setup <==

  ==> DiskDFJK: Density-Fitted J/K Matrices <==

    J tasked:                  Yes
    K tasked:                  Yes
    wK tasked:                 Yes
    Omega:               3.000E-01
    OpenMP threads:             24
    Integrals threads:          24
    Memory [MiB]:           102773
    Algorithm:                Core
    Integral Cache:           NONE
    Schwarz Cutoff:          1E-12
    Fitting Condition:       1E-10

   => Auxiliary Basis Set <=

  Basis Set: (CC-PV(Q+D)Z AUX)
    Blend: CC-PVQZ-JKFIT
    Number of shells: 66
    Number of basis function: 250
    Number of Cartesian functions: 323
    Spherical Harmonics?: true
    Max angular momentum: 5

  Cached 100.0% of DFT collocation blocks in 0.218 [GiB].

  Minimum eigenvalue in the overlap matrix is 3.1520264907E-04.
  Using Symmetric Orthogonalization.

  SCF Guess: Superposition of Atomic Densities via on-the-fly atomic UHF.

  ==> Iterations <==

                           Total Energy        Delta E     RMS |[F,P]|

   @DF-RKS iter SAD:  -399.09120062961165   -3.99091e+02   0.00000e+00 
   @DF-RKS iter   1:  -399.31512466779532   -2.23924e-01   4.42554e-03 DIIS
   @DF-RKS iter   2:  -399.34291492360734   -2.77903e-02   2.51549e-03 DIIS
   @DF-RKS iter   3:  -399.35259771756984   -9.68279e-03   1.71946e-04 DIIS
   @DF-RKS iter   4:  -399.35279277338770   -1.95056e-04   4.40139e-05 DIIS
   @DF-RKS iter   5:  -399.35280422003956   -1.14467e-05   9.82174e-06 DIIS
   @DF-RKS iter   6:  -399.35280453853386   -3.18494e-07   1.92910e-06 DIIS
   @DF-RKS iter   7:  -399.35280455359356   -1.50597e-08   3.29610e-07 DIIS
   @DF-RKS iter   8:  -399.35280455418120   -5.87647e-10   5.47617e-08 DIIS
   @DF-RKS iter   9:  -399.35280455420548   -2.42721e-11   8.52622e-09 DIIS
  Energy and wave function converged.


  ==> Post-Iterations <==

    Orbital Energies [Eh]
    ---------------------

    Doubly Occupied:                                                      

       1A1   -88.895110     2A1    -8.052255     1B2    -6.009440  
       3A1    -6.006094     1B1    -6.000108     4A1    -0.871589  
       2B2    -0.550411     5A1    -0.472021     2B1    -0.366371  

    Virtual:                                                              

       6A1     0.085397     3B2     0.098514     4B2     0.211012  
       7A1     0.245296     8A1     0.284140     3B1     0.288322  
       9A1     0.306789     1A2     0.327506     4B1     0.334954  
       5B2     0.351187    10A1     0.419014    11A1     0.564147  
       6B2     0.609031     2A2     0.731858     7B2     0.750712  
       5B1     0.782504    12A1     0.783500     8B2     0.886433  
      13A1     0.933240    14A1     1.011699     3A2     1.030395  
       6B1     1.038253     7B1     1.116626    15A1     1.129103  
       9B2     1.187122    16A1     1.228751    10B2     1.271156  
      11B2     1.289809     8B1     1.299061    17A1     1.313618  
       4A2     1.385845     9B1     1.402554    18A1     1.505530  
      19A1     1.606033    12B2     1.606779    13B2     1.854786  
      20A1     2.084902     5A2     2.091160    14B2     2.160150  
      10B1     2.236589     6A2     2.271083    11B1     2.306256  
      21A1     2.309809    22A1     2.359476    15B2     2.427487  
      16B2     2.588088    23A1     2.632259    24A1     2.700832  
       7A2     2.713745    12B1     2.734112     8A2     2.805753  
      17B2     2.831381    13B1     2.839648    25A1     2.873500  
      26A1     2.944203    18B2     3.102430    14B1     3.194052  
      27A1     3.225203     9A2     3.280958    19B2     3.285641  
      28A1     3.301393    20B2     3.355425    15B1     3.369048  
      16B1     3.403657    10A2     3.416494    29A1     3.500084  
      30A1     3.788176    21B2     3.843424    31A1     3.948796  
      22B2     4.057537    17B1     4.068289    11A2     4.153953  
      32A1     4.245584    23B2     4.365127    18B1     5.254190  
      33A1     5.695790    24B2     5.764476    19B1     5.891989  
      12A2     5.910389    25B2     5.933774    34A1     5.956483  
      26B2     6.245147    13A2     6.313270    35A1     6.581938  
      20B1     6.616717    27B2     6.648323    36A1     6.723861  
      14A2     6.878713    21B1     6.923039    37A1     6.980679  
      28B2     7.057728    38A1     7.687954    29B2     7.700302  
      39A1     7.983988    15A2     8.027429    30B2     8.078688  
      22B1     8.083718    16A2     8.094142    23B1     8.102943  
      40A1     8.220558    31B2     8.284819    17A2     8.591609  
      24B1     8.638137    32B2     8.701539    41A1     8.719294  
      18A2     8.876797    25B1     8.877075    42A1     8.923552  
      43A1     9.009308    33B2     9.081567    44A1     9.148340  
      34B2     9.365139    45A1    10.297589    35B2    11.139381  
      46A1    19.564905  

    Final Occupation by Irrep:
             A1    A2    B1    B2 
    DOCC [     5,    0,    2,    2 ]

  @DF-RKS Final Energy:  -399.35280455420548

   => Energetics <=

    Nuclear Repulsion Energy =             12.9201365650490203
    One-Electron Energy =                -576.6981857491094843
    Two-Electron Energy =                 184.0827832502827732
    DFT Exchange-Correlation Energy =     -19.7332958747849965
    Empirical Dispersion Energy =           0.0000000000000000
    VV10 Nonlocal Energy =                  0.0757572543572664
    Total Energy =                       -399.3528045542054201

Computation Completed


Properties will be evaluated at   0.000000,   0.000000,   0.000000 [a0]

Properties computed using the SCF density matrix

  Nuclear Dipole Moment: [e a0]
     X:    -0.0000      Y:     0.0000      Z:     1.6360

  Electronic Dipole Moment: [e a0]
     X:     0.0000      Y:     0.0000      Z:    -1.2125

  Dipole Moment: [e a0]
     X:    -0.0000      Y:     0.0000      Z:     0.4235     Total:     0.4235

  Dipole Moment: [D]
     X:    -0.0000      Y:     0.0000      Z:     1.0764     Total:     1.0764


*** tstop() called on bp1-compute00046.data.bp.acrc.priv at Tue Apr 27 17:00:50 2021
Module time:
	user time   =      71.56 seconds =       1.19 minutes
	system time =       2.68 seconds =       0.04 minutes
	total time  =          4 seconds =       0.07 minutes
Total time:
	user time   =     143.48 seconds =       2.39 minutes
	system time =       5.83 seconds =       0.10 minutes
	total time  =          7 seconds =       0.12 minutes

  //>>>>>>>>>>>>>>>>>>>>>>>>>>>>>>>>>>>//
  //    Loading displacement 3 of 5    //
  //<<<<<<<<<<<<<<<<<<<<<<<<<<<<<<<<<<<//

*** tstart() called on bp1-compute00046.data.bp.acrc.priv
*** at Tue Apr 27 17:00:50 2021

   => Loading Basis Set <=

    Name: CC-PV(Q+D)Z
    Role: ORBITAL
    Keyword: BASIS
    atoms 1   entry S          line   978 file /work/zw18965/.conda/envs/p4env/share/psi4/basis/cc-pv_qpd_z.gbs 
    atoms 2-3 entry H          line    32 file /work/zw18965/.conda/envs/p4env/share/psi4/basis/cc-pv_qpd_z.gbs 


         ---------------------------------------------------------
                                   SCF
               by Justin Turney, Rob Parrish, Andy Simmonett
                          and Daniel G. A. Smith
                              RKS Reference
                       24 Threads, 137329 MiB Core
         ---------------------------------------------------------

  ==> Geometry <==

    Molecular point group: c2v
    Full point group: C2v

    Geometry (in Angstrom), charge = 0, multiplicity = 1:

       Center              X                  Y                   Z               Mass       
    ------------   -----------------  -----------------  -----------------  -----------------
         S           -0.000000000000     0.000000000000    -0.054831431263    31.972071174400
         H           -0.000000000000     0.964957949318     0.869731534174     1.007825032230
         H            0.000000000000    -0.964957949318     0.869731534174     1.007825032230

  Running in c2v symmetry.

  Rotational constants: A =     10.40063  B =      8.98182  C =      4.81965 [cm^-1]
  Rotational constants: A = 311803.04537  B = 269268.33579  C = 144489.45490 [MHz]
  Nuclear repulsion =   12.945322282799047

  Charge       = 0
  Multiplicity = 1
  Electrons    = 18
  Nalpha       = 9
  Nbeta        = 9

  ==> Algorithm <==

  SCF Algorithm Type is DF.
  DIIS enabled.
  MOM disabled.
  Fractional occupation disabled.
  Guess Type is SAD.
  Energy threshold   = 1.00e-08
  Density threshold  = 1.00e-08
  Integral threshold = 0.00e+00

  ==> Primary Basis <==

  Basis Set: CC-PV(Q+D)Z
    Blend: CC-PV(Q+D)Z
    Number of shells: 38
    Number of basis function: 124
    Number of Cartesian functions: 150
    Spherical Harmonics?: true
    Max angular momentum: 4

  ==> DFT Potential <==

   => Composite Functional: WB97X-V <= 

    wB97X-V Hyb-GGA Exchange-Correlation Functional

    N. Mardirossian and M. Head-Gordon, Phys. Chem. Chem. Phys. 16, 9904 (2014)

    Deriv               =              1
    GGA                 =           TRUE
    Meta                =          FALSE

    Exchange Hybrid     =           TRUE
    MP2 Hybrid          =          FALSE

   => Exchange-Correlation Functionals <=

    1.0000   wB97X-V range-separated functional

   => Exact (HF) Exchange <=

    0.8330            HF,LR [omega = 0.3000]
    0.1670               HF 

   => VV10 Non-Local Parameters <=

    VV10 B              =     6.0000E+00
    VV10 C              =     1.0000E-02

   => Molecular Quadrature <=

    Radial Scheme          =       TREUTLER
    Pruning Scheme         =           FLAT
    Nuclear Scheme         =       TREUTLER

    BS radius alpha        =              1
    Pruning alpha          =              1
    Radial Points          =             75
    Spherical Points       =            302
    Total Points           =          66917
    Total Blocks           =            561
    Max Points             =            256
    Max Functions          =            124

   => Loading Basis Set <=

    Name: (CC-PV(Q+D)Z AUX)
    Role: JKFIT
    Keyword: DF_BASIS_SCF
    atoms 1   entry S          line   673 file /work/zw18965/.conda/envs/p4env/share/psi4/basis/cc-pvqz-jkfit.gbs 
    atoms 2-3 entry H          line    51 file /work/zw18965/.conda/envs/p4env/share/psi4/basis/cc-pvqz-jkfit.gbs 

  ==> Pre-Iterations <==

   -------------------------------------------------------
    Irrep   Nso     Nmo     Nalpha   Nbeta   Ndocc  Nsocc
   -------------------------------------------------------
     A1        46      46       0       0       0       0
     A2        18      18       0       0       0       0
     B1        25      25       0       0       0       0
     B2        35      35       0       0       0       0
   -------------------------------------------------------
    Total     124     124       9       9       9       0
   -------------------------------------------------------

  ==> Integral Setup <==

  ==> DiskDFJK: Density-Fitted J/K Matrices <==

    J tasked:                  Yes
    K tasked:                  Yes
    wK tasked:                 Yes
    Omega:               3.000E-01
    OpenMP threads:             24
    Integrals threads:          24
    Memory [MiB]:           102773
    Algorithm:                Core
    Integral Cache:           NONE
    Schwarz Cutoff:          1E-12
    Fitting Condition:       1E-10

   => Auxiliary Basis Set <=

  Basis Set: (CC-PV(Q+D)Z AUX)
    Blend: CC-PVQZ-JKFIT
    Number of shells: 66
    Number of basis function: 250
    Number of Cartesian functions: 323
    Spherical Harmonics?: true
    Max angular momentum: 5

  Cached 100.0% of DFT collocation blocks in 0.218 [GiB].

  Minimum eigenvalue in the overlap matrix is 3.1253410386E-04.
  Using Symmetric Orthogonalization.

  SCF Guess: Superposition of Atomic Densities via on-the-fly atomic UHF.

  ==> Iterations <==

                           Total Energy        Delta E     RMS |[F,P]|

   @DF-RKS iter SAD:  -399.09357469055925   -3.99094e+02   0.00000e+00 
   @DF-RKS iter   1:  -399.31521066747945   -2.21636e-01   4.42526e-03 DIIS
   @DF-RKS iter   2:  -399.34300187517255   -2.77912e-02   2.50919e-03 DIIS
   @DF-RKS iter   3:  -399.35260363682227   -9.60176e-03   1.71974e-04 DIIS
   @DF-RKS iter   4:  -399.35279866523183   -1.95028e-04   4.38231e-05 DIIS
   @DF-RKS iter   5:  -399.35281000987527   -1.13446e-05   9.78034e-06 DIIS
   @DF-RKS iter   6:  -399.35281032364890   -3.13774e-07   1.91837e-06 DIIS
   @DF-RKS iter   7:  -399.35281033854511   -1.48962e-08   3.28867e-07 DIIS
   @DF-RKS iter   8:  -399.35281033912850   -5.83384e-10   5.47415e-08 DIIS
   @DF-RKS iter   9:  -399.35281033915214   -2.36469e-11   8.52558e-09 DIIS
  Energy and wave function converged.


  ==> Post-Iterations <==

    Orbital Energies [Eh]
    ---------------------

    Doubly Occupied:                                                      

       1A1   -88.894715     2A1    -8.052001     1B2    -6.009181  
       3A1    -6.005814     1B1    -5.999856     4A1    -0.872120  
       2B2    -0.551432     5A1    -0.471784     2B1    -0.366409  

    Virtual:                                                              

       6A1     0.085670     3B2     0.099216     4B2     0.210807  
       7A1     0.245023     8A1     0.284147     3B1     0.288315  
       9A1     0.307203     1A2     0.327394     4B1     0.335096  
       5B2     0.351489    10A1     0.419280    11A1     0.564320  
       6B2     0.609940     2A2     0.732465     7B2     0.750191  
       5B1     0.782997    12A1     0.785529     8B2     0.886381  
      13A1     0.933220    14A1     1.011761     3A2     1.030224  
       6B1     1.038233     7B1     1.116744    15A1     1.129664  
       9B2     1.187204    16A1     1.228476    10B2     1.272450  
      11B2     1.290249     8B1     1.299014    17A1     1.312489  
       4A2     1.386412     9B1     1.402667    18A1     1.504001  
      12B2     1.606928    19A1     1.608734    13B2     1.855354  
      20A1     2.086919     5A2     2.090814    14B2     2.159607  
      10B1     2.239535     6A2     2.271598    11B1     2.307141  
      21A1     2.311954    22A1     2.360488    15B2     2.429611  
      16B2     2.590084    23A1     2.633299    24A1     2.703277  
       7A2     2.715172    12B1     2.735591     8A2     2.805747  
      17B2     2.830326    13B1     2.839901    25A1     2.874577  
      26A1     2.944633    18B2     3.103468    14B1     3.194387  
      27A1     3.226199     9A2     3.283882    19B2     3.288980  
      28A1     3.302608    20B2     3.356441    15B1     3.368489  
      16B1     3.403655    10A2     3.417829    29A1     3.501521  
      30A1     3.789304    21B2     3.845004    31A1     3.953195  
      22B2     4.057729    17B1     4.071421    11A2     4.157892  
      32A1     4.246456    23B2     4.368241    18B1     5.256722  
      33A1     5.692158    24B2     5.762137    19B1     5.892846  
      12A2     5.909702    25B2     5.933903    34A1     5.958487  
      26B2     6.247241    13A2     6.319951    35A1     6.589190  
      20B1     6.620250    27B2     6.657851    36A1     6.728129  
      14A2     6.879774    21B1     6.924963    37A1     6.985121  
      28B2     7.061922    38A1     7.694154    29B2     7.705421  
      39A1     7.985294    15A2     8.027495    30B2     8.083022  
      22B1     8.088116    16A2     8.098265    23B1     8.105607  
      40A1     8.221797    31B2     8.290668    17A2     8.591995  
      24B1     8.638728    32B2     8.699045    41A1     8.723751  
      25B1     8.880987    18A2     8.881794    42A1     8.922954  
      43A1     9.017446    33B2     9.084538    44A1     9.150483  
      34B2     9.363165    45A1    10.307844    35B2    11.161590  
      46A1    19.593763  

    Final Occupation by Irrep:
             A1    A2    B1    B2 
    DOCC [     5,    0,    2,    2 ]

  @DF-RKS Final Energy:  -399.35281033915214

   => Energetics <=

    Nuclear Repulsion Energy =             12.9453222827990473
    One-Electron Energy =                -576.7479189161731483
    Two-Electron Energy =                 184.1086112157607886
    DFT Exchange-Correlation Energy =     -19.7345838535021691
    Empirical Dispersion Energy =           0.0000000000000000
    VV10 Nonlocal Energy =                  0.0757589319633671
    Total Energy =                       -399.3528103391521427

Computation Completed


Properties will be evaluated at   0.000000,   0.000000,   0.000000 [a0]

Properties computed using the SCF density matrix

  Nuclear Dipole Moment: [e a0]
     X:    -0.0000      Y:     0.0000      Z:     1.6292

  Electronic Dipole Moment: [e a0]
     X:     0.0000      Y:     0.0000      Z:    -1.2056

  Dipole Moment: [e a0]
     X:    -0.0000      Y:     0.0000      Z:     0.4236     Total:     0.4236

  Dipole Moment: [D]
     X:    -0.0000      Y:     0.0000      Z:     1.0768     Total:     1.0768


*** tstop() called on bp1-compute00046.data.bp.acrc.priv at Tue Apr 27 17:00:53 2021
Module time:
	user time   =      71.02 seconds =       1.18 minutes
	system time =       2.23 seconds =       0.04 minutes
	total time  =          3 seconds =       0.05 minutes
Total time:
	user time   =     214.64 seconds =       3.58 minutes
	system time =       8.07 seconds =       0.13 minutes
	total time  =         10 seconds =       0.17 minutes

  //>>>>>>>>>>>>>>>>>>>>>>>>>>>>>>>>>>>//
  //    Loading displacement 4 of 5    //
  //<<<<<<<<<<<<<<<<<<<<<<<<<<<<<<<<<<<//

*** tstart() called on bp1-compute00046.data.bp.acrc.priv
*** at Tue Apr 27 17:00:53 2021

   => Loading Basis Set <=

    Name: CC-PV(Q+D)Z
    Role: ORBITAL
    Keyword: BASIS
    atoms 1   entry S          line   978 file /work/zw18965/.conda/envs/p4env/share/psi4/basis/cc-pv_qpd_z.gbs 
    atoms 2-3 entry H          line    32 file /work/zw18965/.conda/envs/p4env/share/psi4/basis/cc-pv_qpd_z.gbs 


         ---------------------------------------------------------
                                   SCF
               by Justin Turney, Rob Parrish, Andy Simmonett
                          and Daniel G. A. Smith
                              RKS Reference
                       24 Threads, 137329 MiB Core
         ---------------------------------------------------------

  ==> Geometry <==

    Molecular point group: c2v
    Full point group: C2v

    Geometry (in Angstrom), charge = 0, multiplicity = 1:

       Center              X                  Y                   Z               Mass       
    ------------   -----------------  -----------------  -----------------  -----------------
         S           -0.000000000000     0.000000000000    -0.054945385977    31.972071174400
         H           -0.000000000000     0.963094302686     0.871539074231     1.007825032230
         H            0.000000000000    -0.963094302686     0.871539074231     1.007825032230

  Running in c2v symmetry.

  Rotational constants: A =     10.35753  B =      9.01662  C =      4.82034 [cm^-1]
  Rotational constants: A = 310511.05038  B = 270311.44559  C = 144510.05511 [MHz]
  Nuclear repulsion =   12.945982106081932

  Charge       = 0
  Multiplicity = 1
  Electrons    = 18
  Nalpha       = 9
  Nbeta        = 9

  ==> Algorithm <==

  SCF Algorithm Type is DF.
  DIIS enabled.
  MOM disabled.
  Fractional occupation disabled.
  Guess Type is SAD.
  Energy threshold   = 1.00e-08
  Density threshold  = 1.00e-08
  Integral threshold = 0.00e+00

  ==> Primary Basis <==

  Basis Set: CC-PV(Q+D)Z
    Blend: CC-PV(Q+D)Z
    Number of shells: 38
    Number of basis function: 124
    Number of Cartesian functions: 150
    Spherical Harmonics?: true
    Max angular momentum: 4

  ==> DFT Potential <==

   => Composite Functional: WB97X-V <= 

    wB97X-V Hyb-GGA Exchange-Correlation Functional

    N. Mardirossian and M. Head-Gordon, Phys. Chem. Chem. Phys. 16, 9904 (2014)

    Deriv               =              1
    GGA                 =           TRUE
    Meta                =          FALSE

    Exchange Hybrid     =           TRUE
    MP2 Hybrid          =          FALSE

   => Exchange-Correlation Functionals <=

    1.0000   wB97X-V range-separated functional

   => Exact (HF) Exchange <=

    0.8330            HF,LR [omega = 0.3000]
    0.1670               HF 

   => VV10 Non-Local Parameters <=

    VV10 B              =     6.0000E+00
    VV10 C              =     1.0000E-02

   => Molecular Quadrature <=

    Radial Scheme          =       TREUTLER
    Pruning Scheme         =           FLAT
    Nuclear Scheme         =       TREUTLER

    BS radius alpha        =              1
    Pruning alpha          =              1
    Radial Points          =             75
    Spherical Points       =            302
    Total Points           =          66917
    Total Blocks           =            563
    Max Points             =            255
    Max Functions          =            124

   => Loading Basis Set <=

    Name: (CC-PV(Q+D)Z AUX)
    Role: JKFIT
    Keyword: DF_BASIS_SCF
    atoms 1   entry S          line   673 file /work/zw18965/.conda/envs/p4env/share/psi4/basis/cc-pvqz-jkfit.gbs 
    atoms 2-3 entry H          line    51 file /work/zw18965/.conda/envs/p4env/share/psi4/basis/cc-pvqz-jkfit.gbs 

  ==> Pre-Iterations <==

   -------------------------------------------------------
    Irrep   Nso     Nmo     Nalpha   Nbeta   Ndocc  Nsocc
   -------------------------------------------------------
     A1        46      46       0       0       0       0
     A2        18      18       0       0       0       0
     B1        25      25       0       0       0       0
     B2        35      35       0       0       0       0
   -------------------------------------------------------
    Total     124     124       9       9       9       0
   -------------------------------------------------------

  ==> Integral Setup <==

  ==> DiskDFJK: Density-Fitted J/K Matrices <==

    J tasked:                  Yes
    K tasked:                  Yes
    wK tasked:                 Yes
    Omega:               3.000E-01
    OpenMP threads:             24
    Integrals threads:          24
    Memory [MiB]:           102773
    Algorithm:                Core
    Integral Cache:           NONE
    Schwarz Cutoff:          1E-12
    Fitting Condition:       1E-10

   => Auxiliary Basis Set <=

  Basis Set: (CC-PV(Q+D)Z AUX)
    Blend: CC-PVQZ-JKFIT
    Number of shells: 66
    Number of basis function: 250
    Number of Cartesian functions: 323
    Spherical Harmonics?: true
    Max angular momentum: 5

  Cached 100.0% of DFT collocation blocks in 0.218 [GiB].

  Minimum eigenvalue in the overlap matrix is 3.1258785716E-04.
  Using Symmetric Orthogonalization.

  SCF Guess: Superposition of Atomic Densities via on-the-fly atomic UHF.

  ==> Iterations <==

                           Total Energy        Delta E     RMS |[F,P]|

   @DF-RKS iter SAD:  -399.09377089680544   -3.99094e+02   0.00000e+00 
   @DF-RKS iter   1:  -399.31522493044895   -2.21454e-01   4.42474e-03 DIIS
   @DF-RKS iter   2:  -399.34298881766136   -2.77639e-02   2.50974e-03 DIIS
   @DF-RKS iter   3:  -399.35259933369804   -9.61052e-03   1.71957e-04 DIIS
   @DF-RKS iter   4:  -399.35279414484341   -1.94811e-04   4.41092e-05 DIIS
   @DF-RKS iter   5:  -399.35280558607377   -1.14412e-05   9.84242e-06 DIIS
   @DF-RKS iter   6:  -399.35280590487673   -3.18803e-07   1.92403e-06 DIIS
   @DF-RKS iter   7:  -399.35280591992296   -1.50462e-08   3.28843e-07 DIIS
   @DF-RKS iter   8:  -399.35280592050776   -5.84805e-10   5.46583e-08 DIIS
   @DF-RKS iter   9:  -399.35280592053152   -2.37605e-11   8.50349e-09 DIIS
  Energy and wave function converged.


  ==> Post-Iterations <==

    Orbital Energies [Eh]
    ---------------------

    Doubly Occupied:                                                      

       1A1   -88.894727     2A1    -8.052011     1B2    -6.009186  
       3A1    -6.005832     1B1    -5.999864     4A1    -0.872165  
       2B2    -0.551015     5A1    -0.472138     2B1    -0.366414  

    Virtual:                                                              

       6A1     0.085720     3B2     0.099024     4B2     0.210886  
       7A1     0.245272     8A1     0.284296     3B1     0.288311  
       9A1     0.306903     1A2     0.327517     4B1     0.334975  
       5B2     0.351405    10A1     0.419296    11A1     0.564635  
       6B2     0.609593     2A2     0.732434     7B2     0.751324  
       5B1     0.783101    12A1     0.783964     8B2     0.886219  
      13A1     0.933568    14A1     1.011478     3A2     1.030300  
       6B1     1.038150     7B1     1.116671    15A1     1.129573  
       9B2     1.187266    16A1     1.228624    10B2     1.272135  
      11B2     1.290090     8B1     1.299058    17A1     1.313555  
       4A2     1.386168     9B1     1.402855    18A1     1.505154  
      19A1     1.606612    12B2     1.606947    13B2     1.855509  
      20A1     2.085797     5A2     2.092466    14B2     2.161240  
      10B1     2.237542     6A2     2.271780    11B1     2.307149  
      21A1     2.311895    22A1     2.360651    15B2     2.429161  
      16B2     2.589608    23A1     2.633863    24A1     2.701984  
       7A2     2.715405    12B1     2.735425     8A2     2.805596  
      17B2     2.832763    13B1     2.840036    25A1     2.873439  
      26A1     2.944341    18B2     3.103958    14B1     3.194643  
      27A1     3.226988     9A2     3.282370    19B2     3.288206  
      28A1     3.302481    20B2     3.356249    15B1     3.369446  
      16B1     3.404969    10A2     3.417492    29A1     3.502003  
      30A1     3.788487    21B2     3.846117    31A1     3.952571  
      22B2     4.057053    17B1     4.070689    11A2     4.158536  
      32A1     4.247568    23B2     4.369361    18B1     5.256732  
      33A1     5.694095    24B2     5.761449    19B1     5.892196  
      12A2     5.911504    25B2     5.934192    34A1     5.957250  
      26B2     6.249580    13A2     6.316990    35A1     6.588245  
      20B1     6.623020    27B2     6.657067    36A1     6.727863  
      14A2     6.880003    21B1     6.924412    37A1     6.986789  
      28B2     7.059904    38A1     7.692760    29B2     7.705917  
      39A1     7.984519    15A2     8.028723    30B2     8.083369  
      22B1     8.087057    16A2     8.098803    23B1     8.105179  
      40A1     8.226099    31B2     8.288288    17A2     8.592128  
      24B1     8.638599    32B2     8.703998    41A1     8.718491  
      18A2     8.881256    25B1     8.881524    42A1     8.923996  
      43A1     9.016724    33B2     9.085403    44A1     9.150582  
      34B2     9.363969    45A1    10.308094    35B2    11.161676  
      46A1    19.594868  

    Final Occupation by Irrep:
             A1    A2    B1    B2 
    DOCC [     5,    0,    2,    2 ]

  @DF-RKS Final Energy:  -399.35280592053152

   => Energetics <=

    Nuclear Repulsion Energy =             12.9459821060819316
    One-Electron Energy =                -576.7491331479184282
    Two-Electron Energy =                 184.1091939271215381
    DFT Exchange-Correlation Energy =     -19.7346074952051254
    Empirical Dispersion Energy =           0.0000000000000000
    VV10 Nonlocal Energy =                  0.0757586893885222
    Total Energy =                       -399.3528059205315799

Computation Completed


Properties will be evaluated at   0.000000,   0.000000,   0.000000 [a0]

Properties computed using the SCF density matrix

  Nuclear Dipole Moment: [e a0]
     X:     0.0000      Y:     0.0000      Z:     1.6326

  Electronic Dipole Moment: [e a0]
     X:     0.0000      Y:     0.0000      Z:    -1.2092

  Dipole Moment: [e a0]
     X:     0.0000      Y:     0.0000      Z:     0.4235     Total:     0.4235

  Dipole Moment: [D]
     X:     0.0000      Y:     0.0000      Z:     1.0764     Total:     1.0764


*** tstop() called on bp1-compute00046.data.bp.acrc.priv at Tue Apr 27 17:00:56 2021
Module time:
	user time   =      71.43 seconds =       1.19 minutes
	system time =       2.25 seconds =       0.04 minutes
	total time  =          3 seconds =       0.05 minutes
Total time:
	user time   =     286.20 seconds =       4.77 minutes
	system time =      10.32 seconds =       0.17 minutes
	total time  =         13 seconds =       0.22 minutes

  //>>>>>>>>>>>>>>>>>>>>>>>>>>>>>>>>>>>//
  //    Loading displacement 5 of 5    //
  //<<<<<<<<<<<<<<<<<<<<<<<<<<<<<<<<<<<//

*** tstart() called on bp1-compute00046.data.bp.acrc.priv
*** at Tue Apr 27 17:00:56 2021

   => Loading Basis Set <=

    Name: CC-PV(Q+D)Z
    Role: ORBITAL
    Keyword: BASIS
    atoms 1   entry S          line   978 file /work/zw18965/.conda/envs/p4env/share/psi4/basis/cc-pv_qpd_z.gbs 
    atoms 2-3 entry H          line    32 file /work/zw18965/.conda/envs/p4env/share/psi4/basis/cc-pv_qpd_z.gbs 


         ---------------------------------------------------------
                                   SCF
               by Justin Turney, Rob Parrish, Andy Simmonett
                          and Daniel G. A. Smith
                              RKS Reference
                       24 Threads, 137329 MiB Core
         ---------------------------------------------------------

  ==> Geometry <==

    Molecular point group: c2v
    Full point group: C2v

    Geometry (in Angstrom), charge = 0, multiplicity = 1:

       Center              X                  Y                   Z               Mass       
    ------------   -----------------  -----------------  -----------------  -----------------
         S           -0.000000000000     0.000000000000    -0.054945385977    31.972071174400
         H           -0.000000000000     0.966821595950     0.871539074231     1.007825032230
         H            0.000000000000    -0.966821595950     0.871539074231     1.007825032230

  Running in c2v symmetry.

  Rotational constants: A =     10.35753  B =      8.94723  C =      4.80043 [cm^-1]
  Rotational constants: A = 310511.05038  B = 268231.25227  C = 143913.39203 [MHz]
  Nuclear repulsion =   12.919481104525435

  Charge       = 0
  Multiplicity = 1
  Electrons    = 18
  Nalpha       = 9
  Nbeta        = 9

  ==> Algorithm <==

  SCF Algorithm Type is DF.
  DIIS enabled.
  MOM disabled.
  Fractional occupation disabled.
  Guess Type is SAD.
  Energy threshold   = 1.00e-08
  Density threshold  = 1.00e-08
  Integral threshold = 0.00e+00

  ==> Primary Basis <==

  Basis Set: CC-PV(Q+D)Z
    Blend: CC-PV(Q+D)Z
    Number of shells: 38
    Number of basis function: 124
    Number of Cartesian functions: 150
    Spherical Harmonics?: true
    Max angular momentum: 4

  ==> DFT Potential <==

   => Composite Functional: WB97X-V <= 

    wB97X-V Hyb-GGA Exchange-Correlation Functional

    N. Mardirossian and M. Head-Gordon, Phys. Chem. Chem. Phys. 16, 9904 (2014)

    Deriv               =              1
    GGA                 =           TRUE
    Meta                =          FALSE

    Exchange Hybrid     =           TRUE
    MP2 Hybrid          =          FALSE

   => Exchange-Correlation Functionals <=

    1.0000   wB97X-V range-separated functional

   => Exact (HF) Exchange <=

    0.8330            HF,LR [omega = 0.3000]
    0.1670               HF 

   => VV10 Non-Local Parameters <=

    VV10 B              =     6.0000E+00
    VV10 C              =     1.0000E-02

   => Molecular Quadrature <=

    Radial Scheme          =       TREUTLER
    Pruning Scheme         =           FLAT
    Nuclear Scheme         =       TREUTLER

    BS radius alpha        =              1
    Pruning alpha          =              1
    Radial Points          =             75
    Spherical Points       =            302
    Total Points           =          66917
    Total Blocks           =            562
    Max Points             =            256
    Max Functions          =            124

   => Loading Basis Set <=

    Name: (CC-PV(Q+D)Z AUX)
    Role: JKFIT
    Keyword: DF_BASIS_SCF
    atoms 1   entry S          line   673 file /work/zw18965/.conda/envs/p4env/share/psi4/basis/cc-pvqz-jkfit.gbs 
    atoms 2-3 entry H          line    51 file /work/zw18965/.conda/envs/p4env/share/psi4/basis/cc-pvqz-jkfit.gbs 

  ==> Pre-Iterations <==

   -------------------------------------------------------
    Irrep   Nso     Nmo     Nalpha   Nbeta   Ndocc  Nsocc
   -------------------------------------------------------
     A1        46      46       0       0       0       0
     A2        18      18       0       0       0       0
     B1        25      25       0       0       0       0
     B2        35      35       0       0       0       0
   -------------------------------------------------------
    Total     124     124       9       9       9       0
   -------------------------------------------------------

  ==> Integral Setup <==

  ==> DiskDFJK: Density-Fitted J/K Matrices <==

    J tasked:                  Yes
    K tasked:                  Yes
    wK tasked:                 Yes
    Omega:               3.000E-01
    OpenMP threads:             24
    Integrals threads:          24
    Memory [MiB]:           102773
    Algorithm:                Core
    Integral Cache:           NONE
    Schwarz Cutoff:          1E-12
    Fitting Condition:       1E-10

   => Auxiliary Basis Set <=

  Basis Set: (CC-PV(Q+D)Z AUX)
    Blend: CC-PVQZ-JKFIT
    Number of shells: 66
    Number of basis function: 250
    Number of Cartesian functions: 323
    Spherical Harmonics?: true
    Max angular momentum: 5

  Cached 100.0% of DFT collocation blocks in 0.218 [GiB].

  Minimum eigenvalue in the overlap matrix is 3.1514655603E-04.
  Using Symmetric Orthogonalization.

  SCF Guess: Superposition of Atomic Densities via on-the-fly atomic UHF.

  ==> Iterations <==

                           Total Energy        Delta E     RMS |[F,P]|

   @DF-RKS iter SAD:  -399.09099953384435   -3.99091e+02   0.00000e+00 
   @DF-RKS iter   1:  -399.31511069495423   -2.24111e-01   4.42607e-03 DIIS
   @DF-RKS iter   2:  -399.34292775410722   -2.78171e-02   2.51495e-03 DIIS
   @DF-RKS iter   3:  -399.35260174342494   -9.67399e-03   1.71944e-04 DIIS
   @DF-RKS iter   4:  -399.35279697342014   -1.95230e-04   4.37231e-05 DIIS
   @DF-RKS iter   5:  -399.35280832228477   -1.13489e-05   9.75853e-06 DIIS
   @DF-RKS iter   6:  -399.35280863572893   -3.13444e-07   1.92342e-06 DIIS
   @DF-RKS iter   7:  -399.35280865063942   -1.49105e-08   3.29736e-07 DIIS
   @DF-RKS iter   8:  -399.35280865122593   -5.86510e-10   5.48506e-08 DIIS
   @DF-RKS iter   9:  -399.35280865124946   -2.35332e-11   8.54952e-09 DIIS
  Energy and wave function converged.


  ==> Post-Iterations <==

    Orbital Energies [Eh]
    ---------------------

    Doubly Occupied:                                                      

       1A1   -88.895098     2A1    -8.052245     1B2    -6.009435  
       3A1    -6.006076     1B1    -6.000100     4A1    -0.871545  
       2B2    -0.550826     5A1    -0.471668     2B1    -0.366366  

    Virtual:                                                              

       6A1     0.085346     3B2     0.098706     4B2     0.210932  
       7A1     0.245046     8A1     0.283995     3B1     0.288326  
       9A1     0.307088     1A2     0.327384     4B1     0.335074  
       5B2     0.351271    10A1     0.418998    11A1     0.563833  
       6B2     0.609378     2A2     0.731889     7B2     0.749579  
       5B1     0.782400    12A1     0.785061     8B2     0.886596  
      13A1     0.932895    14A1     1.011984     3A2     1.030320  
       6B1     1.038335     7B1     1.116699    15A1     1.129193  
       9B2     1.187059    16A1     1.228604    10B2     1.271464  
      11B2     1.289974     8B1     1.299017    17A1     1.312552  
       4A2     1.386089     9B1     1.402366    18A1     1.504384  
      12B2     1.606752    19A1     1.608153    13B2     1.854635  
      20A1     2.086021     5A2     2.089517    14B2     2.158518  
      10B1     2.238577     6A2     2.270902    11B1     2.306239  
      21A1     2.309858    22A1     2.359321    15B2     2.427945  
      16B2     2.588567    23A1     2.631701    24A1     2.702132  
       7A2     2.713511    12B1     2.734284     8A2     2.805907  
      17B2     2.828945    13B1     2.839505    25A1     2.874623  
      26A1     2.944493    18B2     3.101947    14B1     3.193789  
      27A1     3.224414     9A2     3.282464    19B2     3.286421  
      28A1     3.301524    20B2     3.355614    15B1     3.368099  
      16B1     3.402361    10A2     3.416826    29A1     3.499599  
      30A1     3.788970    21B2     3.842314    31A1     3.949416  
      22B2     4.058218    17B1     4.069021    11A2     4.153309  
      32A1     4.244517    23B2     4.363993    18B1     5.254179  
      33A1     5.693827    24B2     5.765179    19B1     5.892623  
      12A2     5.908625    25B2     5.933493    34A1     5.957692  
      26B2     6.242841    13A2     6.316213    35A1     6.582815  
      20B1     6.613950    27B2     6.649085    36A1     6.724233  
      14A2     6.878481    21B1     6.923584    37A1     6.978889  
      28B2     7.059782    38A1     7.689356    29B2     7.699793  
      39A1     7.984740    15A2     8.026249    30B2     8.078396  
      22B1     8.084498    16A2     8.093575    23B1     8.103632  
      40A1     8.216319    31B2     8.287135    17A2     8.591481  
      24B1     8.638256    32B2     8.696589    41A1     8.724524  
      25B1     8.876552    18A2     8.877321    42A1     8.922522  
      43A1     9.010018    33B2     9.080735    44A1     9.148243  
      34B2     9.364319    45A1    10.297343    35B2    11.139320  
      46A1    19.563834  

    Final Occupation by Irrep:
             A1    A2    B1    B2 
    DOCC [     5,    0,    2,    2 ]

  @DF-RKS Final Energy:  -399.35280865124946

   => Energetics <=

    Nuclear Repulsion Energy =             12.9194811045254347
    One-Electron Energy =                -576.6969812684366161
    Two-Electron Energy =                 184.0822065251911681
    DFT Exchange-Correlation Energy =     -19.7332725100706767
    Empirical Dispersion Energy =           0.0000000000000000
    VV10 Nonlocal Energy =                  0.0757574975412092
    Total Energy =                       -399.3528086512495179

Computation Completed


Properties will be evaluated at   0.000000,   0.000000,   0.000000 [a0]

Properties computed using the SCF density matrix

  Nuclear Dipole Moment: [e a0]
     X:     0.0000      Y:     0.0000      Z:     1.6326

  Electronic Dipole Moment: [e a0]
     X:     0.0000      Y:     0.0000      Z:    -1.2090

  Dipole Moment: [e a0]
     X:     0.0000      Y:     0.0000      Z:     0.4236     Total:     0.4236

  Dipole Moment: [D]
     X:     0.0000      Y:     0.0000      Z:     1.0768     Total:     1.0768


*** tstop() called on bp1-compute00046.data.bp.acrc.priv at Tue Apr 27 17:00:59 2021
Module time:
	user time   =      71.14 seconds =       1.19 minutes
	system time =       2.14 seconds =       0.04 minutes
	total time  =          3 seconds =       0.05 minutes
Total time:
	user time   =     357.47 seconds =       5.96 minutes
	system time =      12.47 seconds =       0.21 minutes
	total time  =         16 seconds =       0.27 minutes

         ----------------------------------------------------------
                                   FINDIF
                     R. A. King and Jonathon Misiewicz
         ---------------------------------------------------------

  Computing gradient from energies.
    Using 3-point formula.
    Energy without displacement: -399.3528095241
    Check energies below for precision!
    Forces are for mass-weighted, symmetry-adapted cartesians (in au).

     Coord      Energy(-1)        Energy(+1)            Force
        0   -399.3528045542   -399.3528103392     -0.0005784947
        1   -399.3528059205   -399.3528086512     -0.0002730718


-------------------------------------------------------------
  ## New Matrix (Symmetry 0) ##
  Irrep: 1 Size: 3 x 3

                 1                   2                   3

    1     0.00000000000000     0.00000000000000    -0.00079658346890
    2     0.00000000000000    -0.00019384491633     0.00039829173445
    3     0.00000000000000     0.00019384491633     0.00039829173445




			-----------------------------------------
			 OPTKING 2.0: for geometry optimizations 
			  - R.A. King,  Bethel University        
			-----------------------------------------
	At level 1: Red. Int., RFO, no backsteps, dynamic trust

	Internal coordinates to be generated automatically.
	Detected frag 1 with atoms:  1 2 3
	---Fragment 1 Bond Connectivity---
	 1 : 2 3
	 2 : 1
	 3 : 1

	---Fragment 1 Geometry and Gradient---
	 S          -0.0000000000        0.0000000000       -0.1038317314
	 H          -0.0000000000        1.8235062468        1.6469701579
	 H           0.0000000000       -1.8235062468        1.6469701579
	             0.0000000000        0.0000000000       -0.0007965835
	             0.0000000000       -0.0001938449        0.0003982917
	             0.0000000000        0.0001938449        0.0003982917

	Previous optimization step data not found.  Starting new optimization.

	---Fragment 1 Intrafragment Coordinates---
	 - Coordinate -           - BOHR/RAD -       - ANG/DEG -
	 R(1,2)           =         2.527940	       1.337728
	 R(1,3)           =         2.527940	       1.337728
	 B(2,1,3)         =         1.611472	      92.330565

	Current energy   :      -399.3528095241

	Generating empirical Hessian (Schlegel '84) for each fragment.
	Taking RFO optimization step.
	Going to follow RFO solution 1.
	Using RFO vector 1.
	Norm of target step-size    0.00670
	Projected energy change by RFO approximation:        -0.0000065556

	Back-transformation to cartesian coordinates...
	Successfully converged to displaced geometry.

	--- Internal Coordinate Step in ANG or DEG, aJ/ANG or AJ/DEG ---
	 ---------------------------------------------------------------------------
	   Coordinate                Previous        Force       Change         New 
	   ----------                --------       ------       ------       ------
	    1 R(1,2)          =      1.337728    -0.001121    -0.000271     1.337458
	    2 R(1,3)          =      1.337728    -0.001121    -0.000271     1.337458
	    3 B(2,1,3)        =     92.330565     0.000081     0.381598    92.712163
	 ---------------------------------------------------------------------------
	Successfully symmetrized geometry.

  ==> Convergence Check <==

  Measures of convergence in internal coordinates in au.
  Criteria marked as inactive (o), active & met (*), and active & unmet ( ).
  --------------------------------------------------------------------------------------------- ~
   Step     Total Energy     Delta E     MAX Force     RMS Force      MAX Disp      RMS Disp    ~
  --------------------------------------------------------------------------------------------- ~
    Convergence Criteria    1.00e-06 *    3.00e-04 *             o    1.20e-03 *             o  ~
  --------------------------------------------------------------------------------------------- ~
      1    -399.35280952   -3.99e+02      1.07e-03      6.25e-04 o    6.66e-03      3.87e-03 o  ~
  ---------------------------------------------------------------------------------------------

	Writing optimization data to binary file.
	Structure for next step:
	Cartesian Geometry (in Angstrom)
	    S     0.0000000000   0.0000000000  -0.0526752307
	    H    -0.0000000000   0.9678420744   0.8704039933
	    H     0.0000000000  -0.9678420744   0.8704039933
			--------------------------
			 OPTKING Finished Execution 
			--------------------------

    Structure for next step:
    Molecular point group: c2v
    Full point group: C2v

    Geometry (in Angstrom), charge = 0, multiplicity = 1:

    S           -0.000000000000     0.000000000000    -0.054743437834
    H           -0.000000000000     0.967842078190     0.868335789840
    H            0.000000000000    -0.967842078190     0.868335789840

gradient() will perform gradient computation by finite difference of analytic energies.

         ----------------------------------------------------------
                                   FINDIF
                     R. A. King and Jonathon Misiewicz
         ---------------------------------------------------------

  Using finite-differences of energies to determine gradients.
    Generating geometries for use with 3-point formula.
    Displacement size will be 5.00e-03.
    Number of atoms is 3.
    Number of symmetric SALCs is 2.
    Translations projected? 1. Rotations projected? 1.
    Number of geometries (including reference) is 5.

  //>>>>>>>>>>>>>>>>>>>>>>>>>>>>>>>>>>>//
  //    Loading displacement 1 of 5    //
  //<<<<<<<<<<<<<<<<<<<<<<<<<<<<<<<<<<<//

*** tstart() called on bp1-compute00046.data.bp.acrc.priv
*** at Tue Apr 27 17:00:59 2021

   => Loading Basis Set <=

    Name: CC-PV(Q+D)Z
    Role: ORBITAL
    Keyword: BASIS
    atoms 1   entry S          line   978 file /work/zw18965/.conda/envs/p4env/share/psi4/basis/cc-pv_qpd_z.gbs 
    atoms 2-3 entry H          line    32 file /work/zw18965/.conda/envs/p4env/share/psi4/basis/cc-pv_qpd_z.gbs 


         ---------------------------------------------------------
                                   SCF
               by Justin Turney, Rob Parrish, Andy Simmonett
                          and Daniel G. A. Smith
                              RKS Reference
                       24 Threads, 137329 MiB Core
         ---------------------------------------------------------

  ==> Geometry <==

    Molecular point group: c2v
    Full point group: C2v

    Geometry (in Angstrom), charge = 0, multiplicity = 1:

       Center              X                  Y                   Z               Mass       
    ------------   -----------------  -----------------  -----------------  -----------------
         S           -0.000000000000     0.000000000000    -0.054743437834    31.972071174400
         H           -0.000000000000     0.967842078190     0.868335789840     1.007825032230
         H            0.000000000000    -0.967842078190     0.868335789840     1.007825032230

  Running in c2v symmetry.

  Rotational constants: A =     10.43409  B =      8.92837  C =      4.81134 [cm^-1]
  Rotational constants: A = 312806.22202  B = 267665.91020  C = 144240.45098 [MHz]
  Nuclear repulsion =   12.934467171377907

  Charge       = 0
  Multiplicity = 1
  Electrons    = 18
  Nalpha       = 9
  Nbeta        = 9

  ==> Algorithm <==

  SCF Algorithm Type is DF.
  DIIS enabled.
  MOM disabled.
  Fractional occupation disabled.
  Guess Type is READ.
  Energy threshold   = 1.00e-08
  Density threshold  = 1.00e-08
  Integral threshold = 0.00e+00

  ==> Primary Basis <==

  Basis Set: CC-PV(Q+D)Z
    Blend: CC-PV(Q+D)Z
    Number of shells: 38
    Number of basis function: 124
    Number of Cartesian functions: 150
    Spherical Harmonics?: true
    Max angular momentum: 4

  ==> DFT Potential <==

   => Composite Functional: WB97X-V <= 

    wB97X-V Hyb-GGA Exchange-Correlation Functional

    N. Mardirossian and M. Head-Gordon, Phys. Chem. Chem. Phys. 16, 9904 (2014)

    Deriv               =              1
    GGA                 =           TRUE
    Meta                =          FALSE

    Exchange Hybrid     =           TRUE
    MP2 Hybrid          =          FALSE

   => Exchange-Correlation Functionals <=

    1.0000   wB97X-V range-separated functional

   => Exact (HF) Exchange <=

    0.8330            HF,LR [omega = 0.3000]
    0.1670               HF 

   => VV10 Non-Local Parameters <=

    VV10 B              =     6.0000E+00
    VV10 C              =     1.0000E-02

   => Molecular Quadrature <=

    Radial Scheme          =       TREUTLER
    Pruning Scheme         =           FLAT
    Nuclear Scheme         =       TREUTLER

    BS radius alpha        =              1
    Pruning alpha          =              1
    Radial Points          =             75
    Spherical Points       =            302
    Total Points           =          66917
    Total Blocks           =            563
    Max Points             =            256
    Max Functions          =            124

   => Loading Basis Set <=

    Name: (CC-PV(Q+D)Z AUX)
    Role: JKFIT
    Keyword: DF_BASIS_SCF
    atoms 1   entry S          line   673 file /work/zw18965/.conda/envs/p4env/share/psi4/basis/cc-pvqz-jkfit.gbs 
    atoms 2-3 entry H          line    51 file /work/zw18965/.conda/envs/p4env/share/psi4/basis/cc-pvqz-jkfit.gbs 

   => Loading Basis Set <=

    Name: CC-PV(Q+D)Z
    Role: ORBITAL
    Keyword: BASIS
    atoms 1   entry S          line   978 file /work/zw18965/.conda/envs/p4env/share/psi4/basis/cc-pv_qpd_z.gbs 
    atoms 2-3 entry H          line    32 file /work/zw18965/.conda/envs/p4env/share/psi4/basis/cc-pv_qpd_z.gbs 

  Reading orbitals from file 180, no projection.

  ==> Pre-Iterations <==

   -------------------------------------------------------
    Irrep   Nso     Nmo     Nalpha   Nbeta   Ndocc  Nsocc
   -------------------------------------------------------
     A1        46      46       0       0       0       0
     A2        18      18       0       0       0       0
     B1        25      25       0       0       0       0
     B2        35      35       0       0       0       0
   -------------------------------------------------------
    Total     124     124       9       9       9       0
   -------------------------------------------------------

  ==> Integral Setup <==

  ==> DiskDFJK: Density-Fitted J/K Matrices <==

    J tasked:                  Yes
    K tasked:                  Yes
    wK tasked:                 Yes
    Omega:               3.000E-01
    OpenMP threads:             24
    Integrals threads:          24
    Memory [MiB]:           102773
    Algorithm:                Core
    Integral Cache:           NONE
    Schwarz Cutoff:          1E-12
    Fitting Condition:       1E-10

   => Auxiliary Basis Set <=

  Basis Set: (CC-PV(Q+D)Z AUX)
    Blend: CC-PVQZ-JKFIT
    Number of shells: 66
    Number of basis function: 250
    Number of Cartesian functions: 323
    Spherical Harmonics?: true
    Max angular momentum: 5

  Cached 100.0% of DFT collocation blocks in 0.218 [GiB].

  Minimum eigenvalue in the overlap matrix is 3.1349458783E-04.
  Using Symmetric Orthogonalization.

  SCF Guess: Orbitals guess was supplied from a previous computation.

  ==> Iterations <==

                           Total Energy        Delta E     RMS |[F,P]|

   @DF-RKS iter   0:  -399.35322679657094   -3.99353e+02   4.18572e-05 
   @DF-RKS iter   1:  -399.35281271651314    4.14080e-04   6.16706e-06 DIIS
   @DF-RKS iter   2:  -399.35281281236325   -9.58501e-08   2.49385e-06 DIIS
   @DF-RKS iter   3:  -399.35281282275901   -1.03958e-08   4.67200e-07 DIIS
   @DF-RKS iter   4:  -399.35281282389172   -1.13272e-09   1.30204e-07 DIIS
   @DF-RKS iter   5:  -399.35281282397352   -8.17977e-11   4.10421e-08 DIIS
   @DF-RKS iter   6:  -399.35281282397881   -5.28644e-12   6.69308e-09 DIIS
  Energy and wave function converged.


  ==> Post-Iterations <==

    Orbital Energies [Eh]
    ---------------------

    Doubly Occupied:                                                      

       1A1   -88.894849     2A1    -8.052085     1B2    -6.009275  
       3A1    -6.005896     1B1    -5.999942     4A1    -0.871844  
       2B2    -0.551676     5A1    -0.471328     2B1    -0.366386  

    Virtual:                                                              

       6A1     0.085484     3B2     0.099240     4B2     0.210764  
       7A1     0.244732     8A1     0.283925     3B1     0.288323  
       9A1     0.307506     1A2     0.327249     4B1     0.335227  
       5B2     0.351503    10A1     0.419150    11A1     0.563770  
       6B2     0.610123     2A2     0.732280     7B2     0.748637  
       5B1     0.782634    12A1     0.787164     8B2     0.886654  
      13A1     0.932683    14A1     1.012185     3A2     1.030174  
       6B1     1.038367     7B1     1.116815    15A1     1.129591  
       9B2     1.187070    16A1     1.228353    10B2     1.272396  
      11B2     1.290372     8B1     1.298967    17A1     1.311282  
       4A2     1.386567     9B1     1.402333    18A1     1.502802  
      12B2     1.606811    19A1     1.610955    13B2     1.854894  
      20A1     2.087903     5A2     2.088412    14B2     2.157315  
      10B1     2.241426     6A2     2.271123    11B1     2.306788  
      21A1     2.311196    22A1     2.359832    15B2     2.429485  
      16B2     2.590058    23A1     2.632037    24A1     2.704341  
       7A2     2.714258    12B1     2.735272     8A2     2.805987  
      17B2     2.826963    13B1     2.839572    25A1     2.875899  
      26A1     2.944933    18B2     3.102314    14B1     3.193847  
      27A1     3.224590     9A2     3.285083    19B2     3.288881  
      28A1     3.302310    20B2     3.356356    15B1     3.367147  
      16B1     3.401713    10A2     3.417831    29A1     3.500191  
      30A1     3.790081    21B2     3.842661    31A1     3.952473  
      22B2     4.058680    17B1     4.071348    11A2     4.155349  
      32A1     4.244424    23B2     4.365258    18B1     5.255709  
      33A1     5.690570    24B2     5.764108    19B1     5.893475  
      12A2     5.907264    25B2     5.933455    34A1     5.959551  
      26B2     6.242936    13A2     6.321948    35A1     6.587641  
      20B1     6.614488    27B2     6.655317    36A1     6.726932  
      14A2     6.878990    21B1     6.925082    37A1     6.980686  
      28B2     7.063437    38A1     7.693905    29B2     7.702651  
      39A1     7.985970    15A2     8.025612    30B2     8.080792  
      22B1     8.087725    16A2     8.095806    23B1     8.105520  
      40A1     8.214733    31B2     8.292082    17A2     8.591657  
      24B1     8.638656    32B2     8.692434    41A1     8.730110  
      25B1     8.878624    18A2     8.880650    42A1     8.921595  
      43A1     9.015359    33B2     9.082081    44A1     9.149466  
      34B2     9.362671    45A1    10.303536    35B2    11.152768  
      46A1    19.580793  

    Final Occupation by Irrep:
             A1    A2    B1    B2 
    DOCC [     5,    0,    2,    2 ]

  @DF-RKS Final Energy:  -399.35281282397881

   => Energetics <=

    Nuclear Repulsion Energy =             12.9344671713779071
    One-Electron Energy =                -576.7266174485225747
    Two-Electron Energy =                 184.0976223172474420
    DFT Exchange-Correlation Energy =     -19.7340435107522438
    Empirical Dispersion Energy =           0.0000000000000000
    VV10 Nonlocal Energy =                  0.0757586466706292
    Total Energy =                       -399.3528128239788089

Computation Completed


Properties will be evaluated at   0.000000,   0.000000,   0.000000 [a0]

Properties computed using the SCF density matrix

  Nuclear Dipole Moment: [e a0]
     X:     0.0000      Y:     0.0000      Z:     1.6266

  Electronic Dipole Moment: [e a0]
     X:     0.0000      Y:     0.0000      Z:    -1.2028

  Dipole Moment: [e a0]
     X:     0.0000      Y:     0.0000      Z:     0.4238     Total:     0.4238

  Dipole Moment: [D]
     X:     0.0000      Y:     0.0000      Z:     1.0773     Total:     1.0773


*** tstop() called on bp1-compute00046.data.bp.acrc.priv at Tue Apr 27 17:01:02 2021
Module time:
	user time   =      51.84 seconds =       0.86 minutes
	system time =       1.63 seconds =       0.03 minutes
	total time  =          3 seconds =       0.05 minutes
Total time:
	user time   =     409.70 seconds =       6.83 minutes
	system time =      14.12 seconds =       0.24 minutes
	total time  =         19 seconds =       0.32 minutes

  //>>>>>>>>>>>>>>>>>>>>>>>>>>>>>>>>>>>//
  //    Loading displacement 2 of 5    //
  //<<<<<<<<<<<<<<<<<<<<<<<<<<<<<<<<<<<//

*** tstart() called on bp1-compute00046.data.bp.acrc.priv
*** at Tue Apr 27 17:01:02 2021

   => Loading Basis Set <=

    Name: CC-PV(Q+D)Z
    Role: ORBITAL
    Keyword: BASIS
    atoms 1   entry S          line   978 file /work/zw18965/.conda/envs/p4env/share/psi4/basis/cc-pv_qpd_z.gbs 
    atoms 2-3 entry H          line    32 file /work/zw18965/.conda/envs/p4env/share/psi4/basis/cc-pv_qpd_z.gbs 


         ---------------------------------------------------------
                                   SCF
               by Justin Turney, Rob Parrish, Andy Simmonett
                          and Daniel G. A. Smith
                              RKS Reference
                       24 Threads, 137329 MiB Core
         ---------------------------------------------------------

  ==> Geometry <==

    Molecular point group: c2v
    Full point group: C2v

    Geometry (in Angstrom), charge = 0, multiplicity = 1:

       Center              X                  Y                   Z               Mass       
    ------------   -----------------  -----------------  -----------------  -----------------
         S           -0.000000000000     0.000000000000    -0.054857392548    31.972071174400
         H           -0.000000000000     0.967842078190     0.870143329897     1.007825032230
         H            0.000000000000    -0.967842078190     0.870143329897     1.007825032230

  Running in c2v symmetry.

  Rotational constants: A =     10.39079  B =      8.92837  C =      4.80212 [cm^-1]
  Rotational constants: A = 311507.99334  B = 267665.91020  C = 143963.79060 [MHz]
  Nuclear repulsion =   12.921918587408976

  Charge       = 0
  Multiplicity = 1
  Electrons    = 18
  Nalpha       = 9
  Nbeta        = 9

  ==> Algorithm <==

  SCF Algorithm Type is DF.
  DIIS enabled.
  MOM disabled.
  Fractional occupation disabled.
  Guess Type is READ.
  Energy threshold   = 1.00e-08
  Density threshold  = 1.00e-08
  Integral threshold = 0.00e+00

  ==> Primary Basis <==

  Basis Set: CC-PV(Q+D)Z
    Blend: CC-PV(Q+D)Z
    Number of shells: 38
    Number of basis function: 124
    Number of Cartesian functions: 150
    Spherical Harmonics?: true
    Max angular momentum: 4

  ==> DFT Potential <==

   => Composite Functional: WB97X-V <= 

    wB97X-V Hyb-GGA Exchange-Correlation Functional

    N. Mardirossian and M. Head-Gordon, Phys. Chem. Chem. Phys. 16, 9904 (2014)

    Deriv               =              1
    GGA                 =           TRUE
    Meta                =          FALSE

    Exchange Hybrid     =           TRUE
    MP2 Hybrid          =          FALSE

   => Exchange-Correlation Functionals <=

    1.0000   wB97X-V range-separated functional

   => Exact (HF) Exchange <=

    0.8330            HF,LR [omega = 0.3000]
    0.1670               HF 

   => VV10 Non-Local Parameters <=

    VV10 B              =     6.0000E+00
    VV10 C              =     1.0000E-02

   => Molecular Quadrature <=

    Radial Scheme          =       TREUTLER
    Pruning Scheme         =           FLAT
    Nuclear Scheme         =       TREUTLER

    BS radius alpha        =              1
    Pruning alpha          =              1
    Radial Points          =             75
    Spherical Points       =            302
    Total Points           =          66917
    Total Blocks           =            562
    Max Points             =            256
    Max Functions          =            124

   => Loading Basis Set <=

    Name: (CC-PV(Q+D)Z AUX)
    Role: JKFIT
    Keyword: DF_BASIS_SCF
    atoms 1   entry S          line   673 file /work/zw18965/.conda/envs/p4env/share/psi4/basis/cc-pvqz-jkfit.gbs 
    atoms 2-3 entry H          line    51 file /work/zw18965/.conda/envs/p4env/share/psi4/basis/cc-pvqz-jkfit.gbs 

   => Loading Basis Set <=

    Name: CC-PV(Q+D)Z
    Role: ORBITAL
    Keyword: BASIS
    atoms 1   entry S          line   978 file /work/zw18965/.conda/envs/p4env/share/psi4/basis/cc-pv_qpd_z.gbs 
    atoms 2-3 entry H          line    32 file /work/zw18965/.conda/envs/p4env/share/psi4/basis/cc-pv_qpd_z.gbs 

  Reading orbitals from file 180, no projection.

  ==> Pre-Iterations <==

   -------------------------------------------------------
    Irrep   Nso     Nmo     Nalpha   Nbeta   Ndocc  Nsocc
   -------------------------------------------------------
     A1        46      46       0       0       0       0
     A2        18      18       0       0       0       0
     B1        25      25       0       0       0       0
     B2        35      35       0       0       0       0
   -------------------------------------------------------
    Total     124     124       9       9       9       0
   -------------------------------------------------------

  ==> Integral Setup <==

  ==> DiskDFJK: Density-Fitted J/K Matrices <==

    J tasked:                  Yes
    K tasked:                  Yes
    wK tasked:                 Yes
    Omega:               3.000E-01
    OpenMP threads:             24
    Integrals threads:          24
    Memory [MiB]:           102773
    Algorithm:                Core
    Integral Cache:           NONE
    Schwarz Cutoff:          1E-12
    Fitting Condition:       1E-10

   => Auxiliary Basis Set <=

  Basis Set: (CC-PV(Q+D)Z AUX)
    Blend: CC-PVQZ-JKFIT
    Number of shells: 66
    Number of basis function: 250
    Number of Cartesian functions: 323
    Spherical Harmonics?: true
    Max angular momentum: 5

  Cached 100.0% of DFT collocation blocks in 0.218 [GiB].

  Minimum eigenvalue in the overlap matrix is 3.1482118341E-04.
  Using Symmetric Orthogonalization.

  SCF Guess: Orbitals guess was supplied from a previous computation.

  ==> Iterations <==

                           Total Energy        Delta E     RMS |[F,P]|

   @DF-RKS iter   0:  -399.35151169908062   -3.99352e+02   4.91089e-05 
   @DF-RKS iter   1:  -399.35281054938565   -1.29885e-03   8.10033e-06 DIIS
   @DF-RKS iter   2:  -399.35281070535984   -1.55974e-07   4.10134e-06 DIIS
[...]

Computation Completed


Properties will be evaluated at   0.000000,   0.000000,   0.000000 [a0]

Properties computed using the SCF density matrix

  Nuclear Dipole Moment: [e a0]
     X:     0.0000      Y:     0.0000      Z:     1.6300

  Electronic Dipole Moment: [e a0]
     X:     0.0000      Y:     0.0000      Z:    -1.2064

  Dipole Moment: [e a0]
     X:     0.0000      Y:     0.0000      Z:     0.4237     Total:     0.4237

  Dipole Moment: [D]
     X:     0.0000      Y:     0.0000      Z:     1.0768     Total:     1.0768


*** tstop() called on bp1-compute00046.data.bp.acrc.priv at Tue Apr 27 17:01:53 2021
Module time:
	user time   =      79.98 seconds =       1.33 minutes
	system time =       2.34 seconds =       0.04 minutes
	total time  =          4 seconds =       0.07 minutes
Total time:
	user time   =    1561.43 seconds =      26.02 minutes
	system time =      50.73 seconds =       0.85 minutes
	total time  =         70 seconds =       1.17 minutes

  //>>>>>>>>>>>>>>>>>>>>>>>>>>>>>>>>>>>//
  //    Loading displacement 8 of 8    //
  //<<<<<<<<<<<<<<<<<<<<<<<<<<<<<<<<<<<//

*** tstart() called on bp1-compute00046.data.bp.acrc.priv
*** at Tue Apr 27 17:01:53 2021

   => Loading Basis Set <=

    Name: CC-PV(Q+D)Z
    Role: ORBITAL
    Keyword: BASIS
    atoms 1   entry S          line   978 file /work/zw18965/.conda/envs/p4env/share/psi4/basis/cc-pv_qpd_z.gbs 
    atoms 2-3 entry H          line    32 file /work/zw18965/.conda/envs/p4env/share/psi4/basis/cc-pv_qpd_z.gbs 


         ---------------------------------------------------------
                                   SCF
               by Justin Turney, Rob Parrish, Andy Simmonett
                          and Daniel G. A. Smith
                              RKS Reference
                       24 Threads, 137329 MiB Core
         ---------------------------------------------------------

  ==> Geometry <==

    Molecular point group: cs
    Full point group: Cs

    Geometry (in Angstrom), charge = 0, multiplicity = 1:

       Center              X                  Y                   Z               Mass       
    ------------   -----------------  -----------------  -----------------  -----------------
         S            0.000000000000    -0.000083652572    -0.054743437834    31.972071174400
         H            0.000000000000     0.969168968232     0.869601311006     1.007825032230
         H            0.000000000000    -0.966515188149     0.867070268675     1.007825032230

  Running in cs symmetry.

  Rotational constants: A =     10.43465  B =      8.92793  C =      4.81133 [cm^-1]
  Rotational constants: A = 312822.91659  B = 267652.69512  C = 144240.16278 [MHz]
  Nuclear repulsion =   12.934492320679642

  Charge       = 0
  Multiplicity = 1
  Electrons    = 18
  Nalpha       = 9
  Nbeta        = 9

  ==> Algorithm <==

  SCF Algorithm Type is DF.
  DIIS enabled.
  MOM disabled.
  Fractional occupation disabled.
  Guess Type is SAD.
  Energy threshold   = 1.00e-10
  Density threshold  = 1.00e-10
  Integral threshold = 0.00e+00

  ==> Primary Basis <==

  Basis Set: CC-PV(Q+D)Z
    Blend: CC-PV(Q+D)Z
    Number of shells: 38
    Number of basis function: 124
    Number of Cartesian functions: 150
    Spherical Harmonics?: true
    Max angular momentum: 4

  ==> DFT Potential <==

   => Composite Functional: WB97X-V <= 

    wB97X-V Hyb-GGA Exchange-Correlation Functional

    N. Mardirossian and M. Head-Gordon, Phys. Chem. Chem. Phys. 16, 9904 (2014)

    Deriv               =              1
    GGA                 =           TRUE
    Meta                =          FALSE

    Exchange Hybrid     =           TRUE
    MP2 Hybrid          =          FALSE

   => Exchange-Correlation Functionals <=

    1.0000   wB97X-V range-separated functional

   => Exact (HF) Exchange <=

    0.8330            HF,LR [omega = 0.3000]
    0.1670               HF 

   => VV10 Non-Local Parameters <=

    VV10 B              =     6.0000E+00
    VV10 C              =     1.0000E-02

   => Molecular Quadrature <=

    Radial Scheme          =       TREUTLER
    Pruning Scheme         =           FLAT
    Nuclear Scheme         =       TREUTLER

    BS radius alpha        =              1
    Pruning alpha          =              1
    Radial Points          =             75
    Spherical Points       =            302
    Total Points           =          66917
    Total Blocks           =            562
    Max Points             =            256
    Max Functions          =            124

   => Loading Basis Set <=

    Name: (CC-PV(Q+D)Z AUX)
    Role: JKFIT
    Keyword: DF_BASIS_SCF
    atoms 1   entry S          line   673 file /work/zw18965/.conda/envs/p4env/share/psi4/basis/cc-pvqz-jkfit.gbs 
    atoms 2-3 entry H          line    51 file /work/zw18965/.conda/envs/p4env/share/psi4/basis/cc-pvqz-jkfit.gbs 

  ==> Pre-Iterations <==

   -------------------------------------------------------
    Irrep   Nso     Nmo     Nalpha   Nbeta   Ndocc  Nsocc
   -------------------------------------------------------
     A'        81      81       0       0       0       0
     A"        43      43       0       0       0       0
   -------------------------------------------------------
    Total     124     124       9       9       9       0
   -------------------------------------------------------

  ==> Integral Setup <==

  ==> DiskDFJK: Density-Fitted J/K Matrices <==

    J tasked:                  Yes
    K tasked:                  Yes
    wK tasked:                 Yes
    Omega:               3.000E-01
    OpenMP threads:             24
    Integrals threads:          24
    Memory [MiB]:           102774
    Algorithm:                Core
    Integral Cache:           NONE
    Schwarz Cutoff:          1E-12
    Fitting Condition:       1E-10

   => Auxiliary Basis Set <=

  Basis Set: (CC-PV(Q+D)Z AUX)
    Blend: CC-PVQZ-JKFIT
    Number of shells: 66
    Number of basis function: 250
    Number of Cartesian functions: 323
    Spherical Harmonics?: true
    Max angular momentum: 5

  Cached 100.0% of DFT collocation blocks in 0.217 [GiB].

  Minimum eigenvalue in the overlap matrix is 3.1345398760E-04.
  Using Symmetric Orthogonalization.

  SCF Guess: Superposition of Atomic Densities via on-the-fly atomic UHF.

  ==> Iterations <==

                           Total Energy        Delta E     RMS |[F,P]|

   @DF-RKS iter SAD:  -399.09233551720752   -3.99092e+02   0.00000e+00 
   @DF-RKS iter   1:  -399.31515020133855   -2.22815e-01   3.16126e-03 DIIS
   @DF-RKS iter   2:  -399.34298226835864   -2.78321e-02   1.79327e-03 DIIS
   @DF-RKS iter   3:  -399.35260229819579   -9.62003e-03   1.22832e-04 DIIS
   @DF-RKS iter   4:  -399.35279765381836   -1.95356e-04   3.10398e-05 DIIS
   @DF-RKS iter   5:  -399.35280889321854   -1.12394e-05   6.92870e-06 DIIS
   @DF-RKS iter   6:  -399.35280920131328   -3.08095e-07   1.36746e-06 DIIS
   @DF-RKS iter   7:  -399.35280921604965   -1.47364e-08   2.35463e-07 DIIS
   @DF-RKS iter   8:  -399.35280921663195   -5.82304e-10   3.99515e-08 DIIS
   @DF-RKS iter   9:  -399.35280921665634   -2.43858e-11   8.23922e-09 DIIS
   @DF-RKS iter  10:  -399.35280921665719   -8.52651e-13   2.44727e-09 DIIS
   @DF-RKS iter  11:  -399.35280921665628    9.09495e-13   3.47365e-10 DIIS
   @DF-RKS iter  12:  -399.35280921665651   -2.27374e-13   6.50227e-11 DIIS
  Energy and wave function converged.


  ==> Post-Iterations <==

    Orbital Energies [Eh]
    ---------------------

    Doubly Occupied:                                                      

       1Ap   -88.894849     2Ap    -8.052084     3Ap    -6.009274  
       4Ap    -6.005896     1App   -5.999942     5Ap    -0.871846  
       6Ap    -0.551676     7Ap    -0.471328     2App   -0.366386  

    Virtual:                                                              

       8Ap     0.085475     9Ap     0.099248    10Ap     0.210764  
      11Ap     0.244733    12Ap     0.283925     3App    0.288323  
      13Ap     0.307506     4App    0.327249     5App    0.335227  
      14Ap     0.351503    15Ap     0.419151    16Ap     0.563767  
      17Ap     0.610126     6App    0.732276    18Ap     0.748634  
       7App    0.782638    19Ap     0.787166    20Ap     0.886655  
      21Ap     0.932682    22Ap     1.012185     8App    1.030173  
       9App    1.038368    10App    1.116815    23Ap     1.129589  
      24Ap     1.187071    25Ap     1.228353    26Ap     1.272394  
      27Ap     1.290367    11App    1.298967    28Ap     1.311294  
      12App    1.386563    13App    1.402336    29Ap     1.502797  
      30Ap     1.606787    31Ap     1.610986    32Ap     1.854892  
      33Ap     2.087900    14App    2.088410    34Ap     2.157317  
      15App    2.241420    16App    2.271130    17App    2.306792  
      35Ap     2.311196    36Ap     2.359832    37Ap     2.429483  
      38Ap     2.590052    39Ap     2.632041    40Ap     2.704342  
      18App    2.714203    19App    2.735323    20App    2.805990  
      41Ap     2.826971    21App    2.839574    42Ap     2.875902  
      43Ap     2.944929    44Ap     3.102306    22App    3.193841  
      45Ap     3.224562    23App    3.285083    46Ap     3.288906  
      47Ap     3.302316    48Ap     3.356354    24App    3.367146  
      25App    3.401714    26App    3.417839    49Ap     3.500189  
      50Ap     3.790049    51Ap     3.842697    52Ap     3.952474  
      53Ap     4.058686    27App    4.071280    28App    4.155410  
      54Ap     4.244386    55Ap     4.365307    29App    5.255729  
      56Ap     5.690479    57Ap     5.764166    30App    5.893474  
      31App    5.907264    58Ap     5.933447    59Ap     5.959565  
      60Ap     6.242931    32App    6.321934    61Ap     6.587353  
      33App    6.614515    62Ap     6.655555    63Ap     6.726982  
      34App    6.878972    35App    6.925084    64Ap     6.980675  
      65Ap     7.063512    66Ap     7.692544    67Ap     7.704046  
      68Ap     7.985969    36App    8.025583    69Ap     8.080750  
      37App    8.086723    38App    8.096603    39App    8.105739  
      70Ap     8.214703    71Ap     8.292126    40App    8.591651  
      41App    8.638653    72Ap     8.692415    73Ap     8.730119  
      42App    8.876390    43App    8.882949    74Ap     8.921586  
      75Ap     9.015420    76Ap     9.082071    77Ap     9.149459  
      78Ap     9.362692    79Ap    10.303398    80Ap    11.152881  
      81Ap    19.580878  

    Final Occupation by Irrep:
             Ap   App 
    DOCC [     7,    2 ]

  @DF-RKS Final Energy:  -399.35280921665651

   => Energetics <=

    Nuclear Repulsion Energy =             12.9344923206796416
    One-Electron Energy =                -576.7266607697082463
    Two-Electron Energy =                 184.0976455894136166
    DFT Exchange-Correlation Energy =     -19.7340450157250373
    Empirical Dispersion Energy =           0.0000000000000000
    VV10 Nonlocal Energy =                  0.0757586586835160
    Total Energy =                       -399.3528092166565102

Computation Completed


Properties will be evaluated at   0.000000,   0.000000,   0.000000 [a0]

Properties computed using the SCF density matrix

  Nuclear Dipole Moment: [e a0]
     X:     0.0000      Y:     0.0025      Z:     1.6266

  Electronic Dipole Moment: [e a0]
     X:     0.0000      Y:    -0.0025      Z:    -1.2028

  Dipole Moment: [e a0]
     X:     0.0000      Y:     0.0000      Z:     0.4238     Total:     0.4238

  Dipole Moment: [D]
     X:     0.0000      Y:     0.0000      Z:     1.0773     Total:     1.0773


*** tstop() called on bp1-compute00046.data.bp.acrc.priv at Tue Apr 27 17:01:57 2021
Module time:
	user time   =      79.81 seconds =       1.33 minutes
	system time =       2.27 seconds =       0.04 minutes
	total time  =          4 seconds =       0.07 minutes
Total time:
	user time   =    1641.37 seconds =      27.36 minutes
	system time =      53.01 seconds =       0.88 minutes
	total time  =         74 seconds =       1.23 minutes

         ----------------------------------------------------------
                                   FINDIF
                     R. A. King and Jonathon Misiewicz
         ---------------------------------------------------------

  Computing second-derivative from energies using projected, 
  symmetry-adapted, cartesian coordinates.

  8 energies passed in, including the reference geometry.
    Using 3-point formula.
    Energy without displacement: -399.3528128240
    Check energies below for precision!
    0: -1        :      -399.3528107285
    0: 1         :      -399.3528107731
    1: -1        :      -399.3528110156
    1: 1         :      -399.3528101429
    0: 1, 1: 1   :      -399.3528109917
    0: -1, 1: -1 :      -399.3528118209
    2: -1        :      -399.3528092167

-------------------------------------------------------------


  ==> Harmonic Vibrational Analysis <==

  non-mass-weighted Hessian:       Symmetric? True   Hermitian? True   Lin Dep Dim?  6 (0)
  projection of translations (True) and rotations (True) removed 6 degrees of freedom (6)
  total projector:                 Symmetric? True   Hermitian? True   Lin Dep Dim?  6 (6)
  mass-weighted Hessian:           Symmetric? True   Hermitian? True   Lin Dep Dim?  6 (0)
  pre-proj  low-frequency mode:    0.0000i [cm^-1]
  pre-proj  low-frequency mode:    0.0000i [cm^-1]
  pre-proj  low-frequency mode:    0.0000i [cm^-1]
  pre-proj  low-frequency mode:    0.0000  [cm^-1]
  pre-proj  low-frequency mode:    0.0000  [cm^-1]
  pre-proj  low-frequency mode:    0.0000  [cm^-1]
  pre-proj  all modes:['0.0000i' '0.0000i' '0.0000i' '0.0000' '0.0000' '0.0000' '1221.9275'
 '2761.4794' '2763.1133']
  projected mass-weighted Hessian: Symmetric? True   Hermitian? True   Lin Dep Dim?  6 (6)
  post-proj low-frequency mode:    0.0001i [cm^-1] (TR)
  post-proj low-frequency mode:    0.0000i [cm^-1] (TR)
  post-proj low-frequency mode:    0.0000i [cm^-1] (TR)
  post-proj low-frequency mode:    0.0000i [cm^-1] (TR)
  post-proj low-frequency mode:    0.0000  [cm^-1] (TR)
  post-proj low-frequency mode:    0.0000  [cm^-1] (TR)
  post-proj  all modes:['0.0001i' '0.0000i' '0.0000i' '0.0000i' '0.0000' '0.0000' '1221.9275'
 '2761.4794' '2763.1133']

  Vibration                       7                   8                   9           
  Freq [cm^-1]                1221.9275           2761.4794           2763.1133       
  Irrep                           A1                  B2                  A1          
  Reduced mass [u]              1.0394              1.0400              1.0358        
  Force const [mDyne/A]         0.9144              4.6728              4.6594        
  Turning point v=0 [a0]        0.3079              0.2047              0.2051        
  RMS dev v=0 [a0 u^1/2]        0.2220              0.1476              0.1476        
  Char temp [K]               1758.0817           3973.1540           3975.5048       
  ----------------------------------------------------------------------------------
      1   S                0.00 -0.00 -0.03   -0.00 -0.03 -0.00   -0.00  0.00 -0.03   
      2   H                0.00 -0.49  0.51    0.00  0.51  0.49    0.00  0.52  0.48   
      3   H               -0.00  0.49  0.51    0.00  0.51 -0.49    0.00 -0.52  0.48   

  ==> Thermochemistry Components <==

  Entropy, S
    Electronic S            0.000 [cal/(mol K)]        0.000 [J/(mol K)]       0.00000000 [mEh/K] (multiplicity = 1)
    Translational S        36.501 [cal/(mol K)]      152.721 [J/(mol K)]       0.05816835 [mEh/K] (mol. weight = 33.9877 [u], P = 101325.00 [Pa])
    Rotational S           12.574 [cal/(mol K)]       52.608 [J/(mol K)]       0.02003729 [mEh/K] (symmetry no. = 2)
    Vibrational S           0.038 [cal/(mol K)]        0.158 [J/(mol K)]       0.00006033 [mEh/K]
  Total S                  49.113 [cal/(mol K)]      205.487 [J/(mol K)]       0.07826598 [mEh/K]
  Correction S              0.000 [cal/(mol K)]        0.000 [J/(mol K)]       0.00000000 [mEh/K]

  Constant volume heat capacity, Cv
    Electronic Cv           0.000 [cal/(mol K)]        0.000 [J/(mol K)]       0.00000000 [mEh/K]
    Translational Cv        2.981 [cal/(mol K)]       12.472 [J/(mol K)]       0.00475022 [mEh/K]
    Rotational Cv           2.981 [cal/(mol K)]       12.472 [J/(mol K)]       0.00475022 [mEh/K]
    Vibrational Cv          0.192 [cal/(mol K)]        0.804 [J/(mol K)]       0.00030616 [mEh/K]
  Total Cv                  6.154 [cal/(mol K)]       25.747 [J/(mol K)]       0.00980659 [mEh/K]
  Correction Cv             0.000 [cal/(mol K)]        0.000 [J/(mol K)]       0.00000000 [mEh/K]

  Constant pressure heat capacity, Cp
    Electronic Cp           0.000 [cal/(mol K)]        0.000 [J/(mol K)]       0.00000000 [mEh/K]
    Translational Cp        4.968 [cal/(mol K)]       20.786 [J/(mol K)]       0.00791703 [mEh/K]
    Rotational Cp           2.981 [cal/(mol K)]       12.472 [J/(mol K)]       0.00475022 [mEh/K]
    Vibrational Cp          0.192 [cal/(mol K)]        0.804 [J/(mol K)]       0.00030616 [mEh/K]
  Total Cp                  8.141 [cal/(mol K)]       34.062 [J/(mol K)]       0.01297340 [mEh/K]
  Correction Cp             0.000 [cal/(mol K)]        0.000 [J/(mol K)]       0.00000000 [mEh/K]

  ==> Thermochemistry Energy Analysis <==

  Raw electronic energy, E0
  Total E0, Electronic energy at well bottom at 0 [K]                 -399.35281282 [Eh]

  Zero-point energy, ZPE_vib = Sum_i nu_i / 2
    Electronic ZPE          0.000 [kcal/mol]        0.000 [kJ/mol]       0.00000000 [Eh]
    Translational ZPE       0.000 [kcal/mol]        0.000 [kJ/mol]       0.00000000 [Eh]
    Rotational ZPE          0.000 [kcal/mol]        0.000 [kJ/mol]       0.00000000 [Eh]
    Vibrational ZPE         9.645 [kcal/mol]       40.353 [kJ/mol]       0.01536970 [Eh]        3373.260 [cm^-1]
  Correction ZPE            9.645 [kcal/mol]       40.353 [kJ/mol]       0.01536970 [Eh]        3373.260 [cm^-1]
  Total ZPE, Electronic energy at 0 [K]                               -399.33744312 [Eh]

  Thermal Energy, E (includes ZPE)
    Electronic E            0.000 [kcal/mol]        0.000 [kJ/mol]       0.00000000 [Eh]
    Translational E         0.889 [kcal/mol]        3.718 [kJ/mol]       0.00141628 [Eh]
    Rotational E            0.889 [kcal/mol]        3.718 [kJ/mol]       0.00141628 [Eh]
    Vibrational E           9.654 [kcal/mol]       40.394 [kJ/mol]       0.01538509 [Eh]
  Correction E             11.432 [kcal/mol]       47.830 [kJ/mol]       0.01821764 [Eh]
  Total E, Electronic energy at  298.15 [K]                           -399.33459518 [Eh]

  Enthalpy, H_trans = E_trans + k_B * T
    Electronic H            0.000 [kcal/mol]        0.000 [kJ/mol]       0.00000000 [Eh]
    Translational H         1.481 [kcal/mol]        6.197 [kJ/mol]       0.00236046 [Eh]
    Rotational H            0.889 [kcal/mol]        3.718 [kJ/mol]       0.00141628 [Eh]
    Vibrational H           9.654 [kcal/mol]       40.394 [kJ/mol]       0.01538509 [Eh]
  Correction H             12.024 [kcal/mol]       50.309 [kJ/mol]       0.01916183 [Eh]
  Total H, Enthalpy at  298.15 [K]                                    -399.33365100 [Eh]

  Gibbs free energy, G = H - T * S
    Electronic G            0.000 [kcal/mol]        0.000 [kJ/mol]       0.00000000 [Eh]
    Translational G        -9.402 [kcal/mol]      -39.336 [kJ/mol]      -0.01498243 [Eh]
    Rotational G           -2.860 [kcal/mol]      -11.967 [kJ/mol]      -0.00455784 [Eh]
    Vibrational G           9.643 [kcal/mol]       40.346 [kJ/mol]       0.01536710 [Eh]
  Correction G             -2.619 [kcal/mol]      -10.957 [kJ/mol]      -0.00417317 [Eh]
  Total G, Free enthalpy at  298.15 [K]                               -399.35698600 [Eh]

    Psi4 stopped on: Tuesday, 27 April 2021 05:01PM
    Psi4 wall time for execution: 0:01:13.98

*** Psi4 exiting successfully. Buy a developer a beer!
