
    -----------------------------------------------------------------------
          Psi4: An Open-Source Ab Initio Electronic Structure Package
                               Psi4 1.3.2 release

                         Git: Rev {HEAD} ecbda83 


    R. M. Parrish, L. A. Burns, D. G. A. Smith, A. C. Simmonett,
    A. E. DePrince III, E. G. Hohenstein, U. Bozkaya, A. Yu. Sokolov,
    R. Di Remigio, R. M. Richard, J. F. Gonthier, A. M. James,
    H. R. McAlexander, A. Kumar, M. Saitow, X. Wang, B. P. Pritchard,
    P. Verma, H. F. Schaefer III, K. Patkowski, R. A. King, E. F. Valeev,
    F. A. Evangelista, J. M. Turney, T. D. Crawford, and C. D. Sherrill,
    J. Chem. Theory Comput. 13(7) pp 3185--3197 (2017).
    (doi: 10.1021/acs.jctc.7b00174)


                         Additional Contributions by
    P. Kraus, H. Kruse, M. H. Lechner, M. C. Schieber, R. A. Shaw,
    A. Alenaizan, R. Galvelis, Z. L. Glick, S. Lehtola, and J. P. Misiewicz

    -----------------------------------------------------------------------


    Psi4 started on: Tuesday, 27 April 2021 05:01PM

    Process ID: 65476
    Host:       bp1-compute00065.data.bp.acrc.priv
    PSIDATADIR: /work/zw18965/.conda/envs/p4env/share/psi4
    Memory:     500.0 MiB
    Threads:    24
    
  ==> Input File <==

--------------------------------------------------------------------------
memory 144 GB

molecule {
0 1
Cl 0.0000000000 0.0000000000 0.0000000000
H 0.0000000000 0.0000000000 1.2756042300
}

set dynamic_level 1
set basis cc-pV(Q+d)Z
 
optimize("wB97X-V")
frequencies("wB97X-V")
--------------------------------------------------------------------------

  Memory set to 134.110 GiB by Python driver.
gradient() will perform gradient computation by finite difference of analytic energies.

         ----------------------------------------------------------
                                   FINDIF
                     R. A. King and Jonathon Misiewicz
         ---------------------------------------------------------

  Using finite-differences of energies to determine gradients.
    Generating geometries for use with 3-point formula.
    Displacement size will be 5.00e-03.
    Number of atoms is 2.
    Number of symmetric SALCs is 1.
    Translations projected? 1. Rotations projected? 1.
    Number of geometries (including reference) is 3.

  //>>>>>>>>>>>>>>>>>>>>>>>>>>>>>>>>>>>//
  //    Loading displacement 1 of 3    //
  //<<<<<<<<<<<<<<<<<<<<<<<<<<<<<<<<<<<//

*** tstart() called on bp1-compute00065.data.bp.acrc.priv
*** at Tue Apr 27 17:01:36 2021

   => Loading Basis Set <=

    Name: CC-PV(Q+D)Z
    Role: ORBITAL
    Keyword: BASIS
    atoms 1 entry CL         line  1066 file /work/zw18965/.conda/envs/p4env/share/psi4/basis/cc-pv_qpd_z.gbs 
    atoms 2 entry H          line    32 file /work/zw18965/.conda/envs/p4env/share/psi4/basis/cc-pv_qpd_z.gbs 


         ---------------------------------------------------------
                                   SCF
               by Justin Turney, Rob Parrish, Andy Simmonett
                          and Daniel G. A. Smith
                              RKS Reference
                       24 Threads, 137329 MiB Core
         ---------------------------------------------------------

  ==> Geometry <==

    Molecular point group: c2v
    Full point group: C_inf_v

    Geometry (in Angstrom), charge = 0, multiplicity = 1:

       Center              X                  Y                   Z               Mass       
    ------------   -----------------  -----------------  -----------------  -----------------
         CL           0.000000000000     0.000000000000    -0.035733868603    34.968852682000
         H            0.000000000000     0.000000000000     1.239870361397     1.007825032230

  Running in c2v symmetry.

  Rotational constants: A = ************  B =     10.57594  C =     10.57594 [cm^-1]
  Rotational constants: A = ************  B = 317058.81273  C = 317058.81273 [MHz]
  Nuclear repulsion =    7.052353990226264

  Charge       = 0
  Multiplicity = 1
  Electrons    = 18
  Nalpha       = 9
  Nbeta        = 9

  ==> Algorithm <==

  SCF Algorithm Type is DF.
  DIIS enabled.
  MOM disabled.
  Fractional occupation disabled.
  Guess Type is SAD.
  Energy threshold   = 1.00e-08
  Density threshold  = 1.00e-08
  Integral threshold = 0.00e+00

  ==> Primary Basis <==

  Basis Set: CC-PV(Q+D)Z
    Blend: CC-PV(Q+D)Z
    Number of shells: 28
    Number of basis function: 94
    Number of Cartesian functions: 115
    Spherical Harmonics?: true
    Max angular momentum: 4

  ==> DFT Potential <==

   => Composite Functional: WB97X-V <= 

    wB97X-V Hyb-GGA Exchange-Correlation Functional

    N. Mardirossian and M. Head-Gordon, Phys. Chem. Chem. Phys. 16, 9904 (2014)

    Deriv               =              1
    GGA                 =           TRUE
    Meta                =          FALSE

    Exchange Hybrid     =           TRUE
    MP2 Hybrid          =          FALSE

   => Exchange-Correlation Functionals <=

    1.0000   wB97X-V range-separated functional

   => Exact (HF) Exchange <=

    0.8330            HF,LR [omega = 0.3000]
    0.1670               HF 

   => VV10 Non-Local Parameters <=

    VV10 B              =     6.0000E+00
    VV10 C              =     1.0000E-02

   => Molecular Quadrature <=

    Radial Scheme          =       TREUTLER
    Pruning Scheme         =           FLAT
    Nuclear Scheme         =       TREUTLER

    BS radius alpha        =              1
    Pruning alpha          =              1
    Radial Points          =             75
    Spherical Points       =            302
    Total Points           =          43996
    Total Blocks           =            399
    Max Points             =            255
    Max Functions          =             94

   => Loading Basis Set <=

    Name: (CC-PV(Q+D)Z AUX)
    Role: JKFIT
    Keyword: DF_BASIS_SCF
    atoms 1 entry CL         line   755 file /work/zw18965/.conda/envs/p4env/share/psi4/basis/cc-pvqz-jkfit.gbs 
    atoms 2 entry H          line    51 file /work/zw18965/.conda/envs/p4env/share/psi4/basis/cc-pvqz-jkfit.gbs 

  ==> Pre-Iterations <==

   -------------------------------------------------------
    Irrep   Nso     Nmo     Nalpha   Nbeta   Ndocc  Nsocc
   -------------------------------------------------------
     A1        39      39       0       0       0       0
     A2        11      11       0       0       0       0
     B1        22      22       0       0       0       0
     B2        22      22       0       0       0       0
   -------------------------------------------------------
    Total      94      94       9       9       9       0
   -------------------------------------------------------

  ==> Integral Setup <==

  ==> DiskDFJK: Density-Fitted J/K Matrices <==

    J tasked:                  Yes
    K tasked:                  Yes
    wK tasked:                 Yes
    Omega:               3.000E-01
    OpenMP threads:             24
    Integrals threads:          24
    Memory [MiB]:           102883
    Algorithm:                Core
    Integral Cache:           NONE
    Schwarz Cutoff:          1E-12
    Fitting Condition:       1E-10

   => Auxiliary Basis Set <=

  Basis Set: (CC-PV(Q+D)Z AUX)
    Blend: CC-PVQZ-JKFIT
    Number of shells: 53
    Number of basis function: 199
    Number of Cartesian functions: 257
    Spherical Harmonics?: true
    Max angular momentum: 5

  Cached 100.0% of DFT collocation blocks in 0.111 [GiB].

  Minimum eigenvalue in the overlap matrix is 4.4504089984E-04.
  Using Symmetric Orthogonalization.

  SCF Guess: Superposition of Atomic Densities via on-the-fly atomic UHF.

  ==> Iterations <==

                           Total Energy        Delta E     RMS |[F,P]|

   @DF-RKS iter SAD:  -460.59947515788645   -4.60599e+02   0.00000e+00 
   @DF-RKS iter   1:  -460.73816746607935   -1.38692e-01   4.48024e-03 DIIS
   @DF-RKS iter   2:  -460.75414165065649   -1.59742e-02   2.71863e-03 DIIS
   @DF-RKS iter   3:  -460.76049223274731   -6.35058e-03   1.73593e-04 DIIS
   @DF-RKS iter   4:  -460.76056506465392   -7.28319e-05   5.81290e-05 DIIS
   @DF-RKS iter   5:  -460.76057352993183   -8.46528e-06   1.40925e-05 DIIS
   @DF-RKS iter   6:  -460.76057388971503   -3.59783e-07   2.69371e-06 DIIS
   @DF-RKS iter   7:  -460.76057390445800   -1.47430e-08   3.20017e-07 DIIS
   @DF-RKS iter   8:  -460.76057390478871   -3.30715e-10   4.93066e-08 DIIS
   @DF-RKS iter   9:  -460.76057390479815   -9.43601e-12   6.50009e-09 DIIS
  Energy and wave function converged.


  ==> Post-Iterations <==

    Orbital Energies [Eh]
    ---------------------

    Doubly Occupied:                                                      

       1A1  -101.556354     2A1    -9.573732     3A1    -7.329770  
       1B1    -7.320960     1B2    -7.320960     4A1    -0.974912  
       5A1    -0.580682     2B1    -0.440723     2B2    -0.440723  

    Virtual:                                                              

       6A1     0.078420     7A1     0.220537     8A1     0.308285  
       3B2     0.320425     3B1     0.320425     4B1     0.367257  
       4B2     0.367257     9A1     0.422375     1A2     0.422375  
      10A1     0.473424    11A1     0.654562     5B1     0.765229  
       5B2     0.765229    12A1     1.011854    13A1     1.146245  
       6B2     1.227075     6B1     1.227075    14A1     1.250377  
       2A2     1.250377     3A2     1.379804    15A1     1.379805  
      16A1     1.419735     7B1     1.426382     7B2     1.426382  
       8B1     1.501600     8B2     1.501600    17A1     1.601632  
       9B1     1.632735     9B2     1.632735    18A1     1.984690  
      19A1     2.215530     4A2     2.215532    10B2     2.322035  
      10B1     2.322035    20A1     2.452632    21A1     2.829356  
      11B1     2.839618    11B2     2.839618     5A2     3.311196  
      22A1     3.311200    23A1     3.342757    12B1     3.396243  
      12B2     3.396243    24A1     3.511002    13B1     3.661756  
      13B2     3.661756    25A1     3.695765     6A2     3.695765  
      26A1     3.824002     7A2     3.824003    14B2     4.014975  
      14B1     4.014975     8A2     4.069284    27A1     4.069284  
      15B1     4.077805    15B2     4.077805    28A1     4.424137  
      29A1     4.648382    16B1     4.670759    16B2     4.670759  
      17B2     5.603736    17B1     5.603736    18B1     5.913946  
      18B2     5.913946    30A1     6.039761    31A1     6.552367  
       9A2     6.552371    32A1     6.873476    19B2     7.100393  
      19B1     7.100393    33A1     7.770848    34A1     7.989272  
      10A2     7.989284    20B2     8.321176    20B1     8.321176  
      21B2     8.565279    21B1     8.565279    35A1     9.086848  
      36A1    10.519745    37A1    10.709876    11A2    10.709892  
      22B1    10.801603    22B2    10.801603    38A1    11.638552  
      39A1    23.771019  

    Final Occupation by Irrep:
             A1    A2    B1    B2 
    DOCC [     5,    0,    2,    2 ]

  @DF-RKS Final Energy:  -460.76057390479815

   => Energetics <=

    Nuclear Repulsion Energy =              7.0523539902262637
    One-Electron Energy =                -649.8903286586304375
    Two-Electron Energy =                 203.5377952420460588
    DFT Exchange-Correlation Energy =     -21.5368070688779341
    Empirical Dispersion Energy =           0.0000000000000000
    VV10 Nonlocal Energy =                  0.0764125904379051
    Total Energy =                       -460.7605739047981501

Computation Completed


Properties will be evaluated at   0.000000,   0.000000,   0.000000 [a0]

Properties computed using the SCF density matrix

  Nuclear Dipole Moment: [e a0]
     X:     0.0000      Y:     0.0000      Z:     1.1951

  Electronic Dipole Moment: [e a0]
     X:     0.0000      Y:     0.0000      Z:    -0.7359

  Dipole Moment: [e a0]
     X:     0.0000      Y:     0.0000      Z:     0.4591     Total:     0.4591

  Dipole Moment: [D]
     X:     0.0000      Y:     0.0000      Z:     1.1669     Total:     1.1669


*** tstop() called on bp1-compute00065.data.bp.acrc.priv at Tue Apr 27 17:01:38 2021
Module time:
	user time   =      58.27 seconds =       0.97 minutes
	system time =       2.60 seconds =       0.04 minutes
	total time  =          2 seconds =       0.03 minutes
Total time:
	user time   =      58.27 seconds =       0.97 minutes
	system time =       2.60 seconds =       0.04 minutes
	total time  =          2 seconds =       0.03 minutes

  //>>>>>>>>>>>>>>>>>>>>>>>>>>>>>>>>>>>//
  //    Loading displacement 2 of 3    //
  //<<<<<<<<<<<<<<<<<<<<<<<<<<<<<<<<<<<//

*** tstart() called on bp1-compute00065.data.bp.acrc.priv
*** at Tue Apr 27 17:01:38 2021

   => Loading Basis Set <=

    Name: CC-PV(Q+D)Z
    Role: ORBITAL
    Keyword: BASIS
    atoms 1 entry CL         line  1066 file /work/zw18965/.conda/envs/p4env/share/psi4/basis/cc-pv_qpd_z.gbs 
    atoms 2 entry H          line    32 file /work/zw18965/.conda/envs/p4env/share/psi4/basis/cc-pv_qpd_z.gbs 


         ---------------------------------------------------------
                                   SCF
               by Justin Turney, Rob Parrish, Andy Simmonett
                          and Daniel G. A. Smith
                              RKS Reference
                       24 Threads, 137329 MiB Core
         ---------------------------------------------------------

  ==> Geometry <==

    Molecular point group: c2v
    Full point group: C_inf_v

    Geometry (in Angstrom), charge = 0, multiplicity = 1:

       Center              X                  Y                   Z               Mass       
    ------------   -----------------  -----------------  -----------------  -----------------
         CL           0.000000000000     0.000000000000    -0.035808756647    34.968852682000
         H            0.000000000000     0.000000000000     1.242468777688     1.007825032230

  Running in c2v symmetry.

  Rotational constants: A = ************  B =     10.53175  C =     10.53175 [cm^-1]
  Rotational constants: A = ************  B = 315734.04815  C = 315734.04815 [MHz]
  Nuclear repulsion =    7.037605167698158

  Charge       = 0
  Multiplicity = 1
  Electrons    = 18
  Nalpha       = 9
  Nbeta        = 9

  ==> Algorithm <==

  SCF Algorithm Type is DF.
  DIIS enabled.
  MOM disabled.
  Fractional occupation disabled.
  Guess Type is SAD.
  Energy threshold   = 1.00e-08
  Density threshold  = 1.00e-08
  Integral threshold = 0.00e+00

  ==> Primary Basis <==

  Basis Set: CC-PV(Q+D)Z
    Blend: CC-PV(Q+D)Z
    Number of shells: 28
    Number of basis function: 94
    Number of Cartesian functions: 115
    Spherical Harmonics?: true
    Max angular momentum: 4

  ==> DFT Potential <==

   => Composite Functional: WB97X-V <= 

    wB97X-V Hyb-GGA Exchange-Correlation Functional

    N. Mardirossian and M. Head-Gordon, Phys. Chem. Chem. Phys. 16, 9904 (2014)

    Deriv               =              1
    GGA                 =           TRUE
    Meta                =          FALSE

    Exchange Hybrid     =           TRUE
    MP2 Hybrid          =          FALSE

   => Exchange-Correlation Functionals <=

    1.0000   wB97X-V range-separated functional

   => Exact (HF) Exchange <=

    0.8330            HF,LR [omega = 0.3000]
    0.1670               HF 

   => VV10 Non-Local Parameters <=

    VV10 B              =     6.0000E+00
    VV10 C              =     1.0000E-02

   => Molecular Quadrature <=

    Radial Scheme          =       TREUTLER
    Pruning Scheme         =           FLAT
    Nuclear Scheme         =       TREUTLER

    BS radius alpha        =              1
    Pruning alpha          =              1
    Radial Points          =             75
    Spherical Points       =            302
    Total Points           =          43996
    Total Blocks           =            398
    Max Points             =            255
    Max Functions          =             94

   => Loading Basis Set <=

    Name: (CC-PV(Q+D)Z AUX)
    Role: JKFIT
    Keyword: DF_BASIS_SCF
    atoms 1 entry CL         line   755 file /work/zw18965/.conda/envs/p4env/share/psi4/basis/cc-pvqz-jkfit.gbs 
    atoms 2 entry H          line    51 file /work/zw18965/.conda/envs/p4env/share/psi4/basis/cc-pvqz-jkfit.gbs 

  ==> Pre-Iterations <==

   -------------------------------------------------------
    Irrep   Nso     Nmo     Nalpha   Nbeta   Ndocc  Nsocc
   -------------------------------------------------------
     A1        39      39       0       0       0       0
     A2        11      11       0       0       0       0
     B1        22      22       0       0       0       0
     B2        22      22       0       0       0       0
   -------------------------------------------------------
    Total      94      94       9       9       9       0
   -------------------------------------------------------

  ==> Integral Setup <==

  ==> DiskDFJK: Density-Fitted J/K Matrices <==

    J tasked:                  Yes
    K tasked:                  Yes
    wK tasked:                 Yes
    Omega:               3.000E-01
    OpenMP threads:             24
    Integrals threads:          24
    Memory [MiB]:           102883
    Algorithm:                Core
    Integral Cache:           NONE
    Schwarz Cutoff:          1E-12
    Fitting Condition:       1E-10

   => Auxiliary Basis Set <=

  Basis Set: (CC-PV(Q+D)Z AUX)
    Blend: CC-PVQZ-JKFIT
    Number of shells: 53
    Number of basis function: 199
    Number of Cartesian functions: 257
    Spherical Harmonics?: true
    Max angular momentum: 5

  Cached 100.0% of DFT collocation blocks in 0.111 [GiB].

  Minimum eigenvalue in the overlap matrix is 4.4774125240E-04.
  Using Symmetric Orthogonalization.

  SCF Guess: Superposition of Atomic Densities via on-the-fly atomic UHF.

  ==> Iterations <==

                           Total Energy        Delta E     RMS |[F,P]|

   @DF-RKS iter SAD:  -460.59797855720342   -4.60598e+02   0.00000e+00 
   @DF-RKS iter   1:  -460.73807089969017   -1.40092e-01   4.48414e-03 DIIS
   @DF-RKS iter   2:  -460.75408718529826   -1.60163e-02   2.72634e-03 DIIS
   @DF-RKS iter   3:  -460.76048837337476   -6.40119e-03   1.73727e-04 DIIS
   @DF-RKS iter   4:  -460.76056125835964   -7.28850e-05   5.81180e-05 DIIS
   @DF-RKS iter   5:  -460.76056974961853   -8.49126e-06   1.41227e-05 DIIS
   @DF-RKS iter   6:  -460.76057011179836   -3.62180e-07   2.70962e-06 DIIS
   @DF-RKS iter   7:  -460.76057012667684   -1.48785e-08   3.20398e-07 DIIS
   @DF-RKS iter   8:  -460.76057012700903   -3.32193e-10   4.95263e-08 DIIS
   @DF-RKS iter   9:  -460.76057012701830   -9.26548e-12   6.53224e-09 DIIS
  Energy and wave function converged.


  ==> Post-Iterations <==

    Orbital Energies [Eh]
    ---------------------

    Doubly Occupied:                                                      

       1A1  -101.556488     2A1    -9.573796     3A1    -7.329847  
       1B1    -7.321026     1B2    -7.321026     4A1    -0.974491  
       5A1    -0.580286     2B1    -0.440650     2B2    -0.440650  

    Virtual:                                                              

       6A1     0.077882     7A1     0.220496     8A1     0.308229  
       3B1     0.320442     3B2     0.320442     4B2     0.367230  
       4B1     0.367230     9A1     0.422424     1A2     0.422424  
      10A1     0.473231    11A1     0.654050     5B2     0.764608  
       5B1     0.764608    12A1     1.010888    13A1     1.147276  
       6B2     1.227278     6B1     1.227278    14A1     1.250421  
       2A2     1.250421     3A2     1.379738    15A1     1.379738  
      16A1     1.419009     7B2     1.426439     7B1     1.426439  
       8B2     1.501685     8B1     1.501685    17A1     1.601509  
       9B2     1.632219     9B1     1.632219    18A1     1.984974  
      19A1     2.214122     4A2     2.214124    10B2     2.321432  
      10B1     2.321432    20A1     2.449653    21A1     2.827328  
      11B2     2.837233    11B1     2.837233     5A2     3.311171  
      22A1     3.311175    23A1     3.344769    12B2     3.396421  
      12B1     3.396421    24A1     3.507947    13B2     3.661975  
      13B1     3.661975    25A1     3.695824     6A2     3.695825  
      26A1     3.822558     7A2     3.822558    14B2     4.015010  
      14B1     4.015010     8A2     4.068969    27A1     4.068970  
      15B1     4.076460    15B2     4.076460    28A1     4.423416  
      29A1     4.646605    16B2     4.667482    16B1     4.667482  
      17B2     5.602897    17B1     5.602897    18B2     5.912904  
      18B1     5.912904    30A1     6.042289    31A1     6.546520  
       9A2     6.546524    32A1     6.865382    19B2     7.098776  
      19B1     7.098776    33A1     7.764445    34A1     7.988915  
      10A2     7.988928    20B1     8.312680    20B2     8.312680  
      21B1     8.562904    21B2     8.562904    35A1     9.083045  
      36A1    10.516660    37A1    10.709885    11A2    10.709902  
      22B2    10.800901    22B1    10.800901    38A1    11.624402  
      39A1    23.748831  

    Final Occupation by Irrep:
             A1    A2    B1    B2 
    DOCC [     5,    0,    2,    2 ]

  @DF-RKS Final Energy:  -460.76057012701830

   => Energetics <=

    Nuclear Repulsion Energy =              7.0376051676981577
    One-Electron Energy =                -649.8624087353642835
    Two-Electron Energy =                 203.5239017881408472
    DFT Exchange-Correlation Energy =     -21.5360800229242599
    Empirical Dispersion Energy =           0.0000000000000000
    VV10 Nonlocal Energy =                  0.0764116754311913
    Total Energy =                       -460.7605701270182976

Computation Completed


Properties will be evaluated at   0.000000,   0.000000,   0.000000 [a0]

Properties computed using the SCF density matrix

  Nuclear Dipole Moment: [e a0]
     X:     0.0000      Y:     0.0000      Z:     1.1976

  Electronic Dipole Moment: [e a0]
     X:     0.0000      Y:     0.0000      Z:    -0.7374

  Dipole Moment: [e a0]
     X:     0.0000      Y:     0.0000      Z:     0.4602     Total:     0.4602

  Dipole Moment: [D]
     X:     0.0000      Y:     0.0000      Z:     1.1697     Total:     1.1697


*** tstop() called on bp1-compute00065.data.bp.acrc.priv at Tue Apr 27 17:01:41 2021
Module time:
	user time   =      56.93 seconds =       0.95 minutes
	system time =       2.31 seconds =       0.04 minutes
	total time  =          3 seconds =       0.05 minutes
Total time:
	user time   =     115.34 seconds =       1.92 minutes
	system time =       4.92 seconds =       0.08 minutes
	total time  =          5 seconds =       0.08 minutes

  //>>>>>>>>>>>>>>>>>>>>>>>>>>>>>>>>>>>//
  //    Loading displacement 3 of 3    //
  //<<<<<<<<<<<<<<<<<<<<<<<<<<<<<<<<<<<//

*** tstart() called on bp1-compute00065.data.bp.acrc.priv
*** at Tue Apr 27 17:01:41 2021

   => Loading Basis Set <=

    Name: CC-PV(Q+D)Z
    Role: ORBITAL
    Keyword: BASIS
    atoms 1 entry CL         line  1066 file /work/zw18965/.conda/envs/p4env/share/psi4/basis/cc-pv_qpd_z.gbs 
    atoms 2 entry H          line    32 file /work/zw18965/.conda/envs/p4env/share/psi4/basis/cc-pv_qpd_z.gbs 


         ---------------------------------------------------------
                                   SCF
               by Justin Turney, Rob Parrish, Andy Simmonett
                          and Daniel G. A. Smith
                              RKS Reference
                       24 Threads, 137329 MiB Core
         ---------------------------------------------------------

  ==> Geometry <==

    Molecular point group: c2v
    Full point group: C_inf_v

    Geometry (in Angstrom), charge = 0, multiplicity = 1:

       Center              X                  Y                   Z               Mass       
    ------------   -----------------  -----------------  -----------------  -----------------
         CL           0.000000000000     0.000000000000    -0.035658980559    34.968852682000
         H            0.000000000000     0.000000000000     1.237271945106     1.007825032230

  Running in c2v symmetry.

  Rotational constants: A = ************  B =     10.62041  C =     10.62041 [cm^-1]
  Rotational constants: A = ************  B = 318391.93255  C = 318391.93255 [MHz]
  Nuclear repulsion =    7.067164761270836

  Charge       = 0
  Multiplicity = 1
  Electrons    = 18
  Nalpha       = 9
  Nbeta        = 9

  ==> Algorithm <==

  SCF Algorithm Type is DF.
  DIIS enabled.
  MOM disabled.
  Fractional occupation disabled.
  Guess Type is SAD.
  Energy threshold   = 1.00e-08
  Density threshold  = 1.00e-08
  Integral threshold = 0.00e+00

  ==> Primary Basis <==

  Basis Set: CC-PV(Q+D)Z
    Blend: CC-PV(Q+D)Z
    Number of shells: 28
    Number of basis function: 94
    Number of Cartesian functions: 115
    Spherical Harmonics?: true
    Max angular momentum: 4

  ==> DFT Potential <==

   => Composite Functional: WB97X-V <= 

    wB97X-V Hyb-GGA Exchange-Correlation Functional

    N. Mardirossian and M. Head-Gordon, Phys. Chem. Chem. Phys. 16, 9904 (2014)

    Deriv               =              1
    GGA                 =           TRUE
    Meta                =          FALSE

    Exchange Hybrid     =           TRUE
    MP2 Hybrid          =          FALSE

   => Exchange-Correlation Functionals <=

    1.0000   wB97X-V range-separated functional

   => Exact (HF) Exchange <=

    0.8330            HF,LR [omega = 0.3000]
    0.1670               HF 

   => VV10 Non-Local Parameters <=

    VV10 B              =     6.0000E+00
    VV10 C              =     1.0000E-02

   => Molecular Quadrature <=

    Radial Scheme          =       TREUTLER
    Pruning Scheme         =           FLAT
    Nuclear Scheme         =       TREUTLER

    BS radius alpha        =              1
    Pruning alpha          =              1
    Radial Points          =             75
    Spherical Points       =            302
    Total Points           =          43996
    Total Blocks           =            398
    Max Points             =            256
    Max Functions          =             94

   => Loading Basis Set <=

    Name: (CC-PV(Q+D)Z AUX)
    Role: JKFIT
    Keyword: DF_BASIS_SCF
    atoms 1 entry CL         line   755 file /work/zw18965/.conda/envs/p4env/share/psi4/basis/cc-pvqz-jkfit.gbs 
    atoms 2 entry H          line    51 file /work/zw18965/.conda/envs/p4env/share/psi4/basis/cc-pvqz-jkfit.gbs 

  ==> Pre-Iterations <==

   -------------------------------------------------------
    Irrep   Nso     Nmo     Nalpha   Nbeta   Ndocc  Nsocc
   -------------------------------------------------------
     A1        39      39       0       0       0       0
     A2        11      11       0       0       0       0
     B1        22      22       0       0       0       0
     B2        22      22       0       0       0       0
   -------------------------------------------------------
    Total      94      94       9       9       9       0
   -------------------------------------------------------

  ==> Integral Setup <==

  ==> DiskDFJK: Density-Fitted J/K Matrices <==

    J tasked:                  Yes
    K tasked:                  Yes
    wK tasked:                 Yes
    Omega:               3.000E-01
    OpenMP threads:             24
    Integrals threads:          24
    Memory [MiB]:           102883
    Algorithm:                Core
    Integral Cache:           NONE
    Schwarz Cutoff:          1E-12
    Fitting Condition:       1E-10

   => Auxiliary Basis Set <=

  Basis Set: (CC-PV(Q+D)Z AUX)
    Blend: CC-PVQZ-JKFIT
    Number of shells: 53
    Number of basis function: 199
    Number of Cartesian functions: 257
    Spherical Harmonics?: true
    Max angular momentum: 5

  Cached 100.0% of DFT collocation blocks in 0.111 [GiB].

  Minimum eigenvalue in the overlap matrix is 4.4233040514E-04.
  Using Symmetric Orthogonalization.

  SCF Guess: Superposition of Atomic Densities via on-the-fly atomic UHF.

  ==> Iterations <==

                           Total Energy        Delta E     RMS |[F,P]|

   @DF-RKS iter SAD:  -460.60097473536314   -4.60601e+02   0.00000e+00 
   @DF-RKS iter   1:  -460.73825447362736   -1.37280e-01   4.47640e-03 DIIS
   @DF-RKS iter   2:  -460.75418700965861   -1.59325e-02   2.71096e-03 DIIS
   @DF-RKS iter   3:  -460.76048739238689   -6.30038e-03   1.73464e-04 DIIS
   @DF-RKS iter   4:  -460.76056017687637   -7.27845e-05   5.81410e-05 DIIS
   @DF-RKS iter   5:  -460.76056861609607   -8.43922e-06   1.40622e-05 DIIS
   @DF-RKS iter   6:  -460.76056897347905   -3.57383e-07   2.67786e-06 DIIS
   @DF-RKS iter   7:  -460.76056898808770   -1.46086e-08   3.19642e-07 DIIS
   @DF-RKS iter   8:  -460.76056898841631   -3.28612e-10   4.90884e-08 DIIS
   @DF-RKS iter   9:  -460.76056898842637   -1.00613e-11   6.46808e-09 DIIS
  Energy and wave function converged.


  ==> Post-Iterations <==

    Orbital Energies [Eh]
    ---------------------

    Doubly Occupied:                                                      

       1A1  -101.556219     2A1    -9.573668     3A1    -7.329692  
       1B1    -7.320895     1B2    -7.320895     4A1    -0.975337  
       5A1    -0.581077     2B2    -0.440796     2B1    -0.440796  

    Virtual:                                                              

       6A1     0.078955     7A1     0.220579     8A1     0.308343  
       3B2     0.320407     3B1     0.320407     4B1     0.367284  
       4B2     0.367284     9A1     0.422326     1A2     0.422326  
      10A1     0.473616    11A1     0.655075     5B1     0.765849  
       5B2     0.765849    12A1     1.012827    13A1     1.145217  
       6B1     1.226871     6B2     1.226871    14A1     1.250332  
       2A2     1.250333     3A2     1.379872    15A1     1.379872  
      16A1     1.420468     7B2     1.426324     7B1     1.426324  
       8B1     1.501515     8B2     1.501515    17A1     1.601756  
       9B1     1.633244     9B2     1.633244    18A1     1.984402  
      19A1     2.216942     4A2     2.216944    10B1     2.322637  
      10B2     2.322637    20A1     2.455614    21A1     2.831390  
      11B1     2.842011    11B2     2.842011     5A2     3.311221  
      22A1     3.311225    23A1     3.340715    12B1     3.396058  
      12B2     3.396058    24A1     3.514101    13B1     3.661538  
      13B2     3.661538    25A1     3.695706     6A2     3.695706  
      26A1     3.825452     7A2     3.825452    14B1     4.014939  
      14B2     4.014939     8A2     4.069601    27A1     4.069602  
      15B1     4.079139    15B2     4.079139    28A1     4.424860  
      29A1     4.650186    16B2     4.674034    16B1     4.674034  
      17B2     5.604620    17B1     5.604620    18B1     5.915001  
      18B2     5.915001    30A1     6.037070    31A1     6.558245  
       9A2     6.558249    32A1     6.881767    19B1     7.101966  
      19B2     7.101966    33A1     7.777321    34A1     7.989623  
      10A2     7.989635    20B2     8.329566    20B1     8.329566  
      21B2     8.567789    21B1     8.567789    35A1     9.090713  
      36A1    10.522573    37A1    10.709865    11A2    10.709881  
      22B1    10.802353    22B2    10.802353    38A1    11.652858  
      39A1    23.793470  

    Final Occupation by Irrep:
             A1    A2    B1    B2 
    DOCC [     5,    0,    2,    2 ]

  @DF-RKS Final Energy:  -460.76056898842637

   => Energetics <=

    Nuclear Repulsion Energy =              7.0671647612708357
    One-Electron Energy =                -649.9183540728262187
    Two-Electron Energy =                 203.5517442974521316
    DFT Exchange-Correlation Energy =     -21.5375374851821775
    Empirical Dispersion Energy =           0.0000000000000000
    VV10 Nonlocal Energy =                  0.0764135108589979
    Total Energy =                       -460.7605689884263711

Computation Completed


Properties will be evaluated at   0.000000,   0.000000,   0.000000 [a0]

Properties computed using the SCF density matrix

  Nuclear Dipole Moment: [e a0]
     X:     0.0000      Y:     0.0000      Z:     1.1925

  Electronic Dipole Moment: [e a0]
     X:     0.0000      Y:     0.0000      Z:    -0.7345

  Dipole Moment: [e a0]
     X:     0.0000      Y:     0.0000      Z:     0.4580     Total:     0.4580

  Dipole Moment: [D]
     X:     0.0000      Y:     0.0000      Z:     1.1642     Total:     1.1642


*** tstop() called on bp1-compute00065.data.bp.acrc.priv at Tue Apr 27 17:01:44 2021
Module time:
	user time   =      56.70 seconds =       0.95 minutes
	system time =       2.01 seconds =       0.03 minutes
	total time  =          3 seconds =       0.05 minutes
Total time:
	user time   =     172.20 seconds =       2.87 minutes
	system time =       6.94 seconds =       0.12 minutes
	total time  =          8 seconds =       0.13 minutes

         ----------------------------------------------------------
                                   FINDIF
                     R. A. King and Jonathon Misiewicz
         ---------------------------------------------------------

  Computing gradient from energies.
    Using 3-point formula.
    Energy without displacement: -460.7605739048
    Check energies below for precision!
    Forces are for mass-weighted, symmetry-adapted cartesians (in au).

     Coord      Energy(-1)        Energy(+1)            Force
        0   -460.7605701270   -460.7605689884      0.0001138592


-------------------------------------------------------------
  ## New Matrix (Symmetry 0) ##
  Irrep: 1 Size: 2 x 3

                 1                   2                   3

    1     0.00000000000000     0.00000000000000     0.00011269141561
    2     0.00000000000000     0.00000000000000    -0.00011269141561




			-----------------------------------------
			 OPTKING 2.0: for geometry optimizations 
			  - R.A. King,  Bethel University        
			-----------------------------------------
	At level 1: Red. Int., RFO, no backsteps, dynamic trust

	Internal coordinates to be generated automatically.
	Detected frag 1 with atoms:  1 2
	---Fragment 1 Bond Connectivity---
	 1 : 2
	 2 : 1

	---Fragment 1 Geometry and Gradient---
	 CL          0.0000000000        0.0000000000       -0.0675272251
	 H           0.0000000000        0.0000000000        2.3430154141
	             0.0000000000        0.0000000000        0.0001126914
	             0.0000000000        0.0000000000       -0.0001126914

	Previous optimization step data not found.  Starting new optimization.

	---Fragment 1 Intrafragment Coordinates---
	 - Coordinate -           - BOHR/RAD -       - ANG/DEG -
	 R(1,2)           =         2.410543	       1.275604

	Current energy   :      -460.7605739048

	Generating empirical Hessian (Schlegel '84) for each fragment.
	Taking RFO optimization step.
	Going to follow RFO solution 1.
	Using RFO vector 1.
	Norm of target step-size    0.00035
	Projected energy change by RFO approximation:         0.0000000215

	Back-transformation to cartesian coordinates...
	Successfully converged to displaced geometry.

	--- Internal Coordinate Step in ANG or DEG, aJ/ANG or AJ/DEG ---
	 ---------------------------------------------------------------------------
	   Coordinate                Previous        Force       Change         New 
	   ----------                --------       ------       ------       ------
	    1 R(1,2)          =      1.275604     0.000928     0.000184     1.275789
	 ---------------------------------------------------------------------------
	Successfully symmetrized geometry.

  ==> Convergence Check <==

  Measures of convergence in internal coordinates in au.
  Criteria marked as inactive (o), active & met (*), and active & unmet ( ).
  --------------------------------------------------------------------------------------------- ~
   Step     Total Energy     Delta E     MAX Force     RMS Force      MAX Disp      RMS Disp    ~
  --------------------------------------------------------------------------------------------- ~
    Convergence Criteria    1.00e-06 *    3.00e-04 *             o    1.20e-03 *             o  ~
  --------------------------------------------------------------------------------------------- ~
      1    -460.76057390   -4.61e+02      1.13e-04 *    1.13e-04 o    3.49e-04 *    3.49e-04 o  ~
  ---------------------------------------------------------------------------------------------


  **** Optimization is complete! (in 1 steps) ****

  ==> Optimization Summary <==

  Measures of convergence in internal coordinates in au.
  --------------------------------------------------------------------------------------------------------------- ~
   Step         Total Energy             Delta E       MAX Force       RMS Force        MAX Disp        RMS Disp  ~
  --------------------------------------------------------------------------------------------------------------- ~
      1    -460.760573904798   -460.760573904798      0.00011269      0.00011269      0.00034863      0.00034863  ~
  --------------------------------------------------------------------------------------------------------------- ~

	Writing optimization data to binary file.
	Final energy is   -460.7605739047982
	Final (previous) structure:
	Cartesian Geometry (in Angstrom)
	   CL     0.0000000000   0.0000000000  -0.0357338685
	    H     0.0000000000   0.0000000000   1.2398703565
	Saving final (previous) structure.
			--------------------------
			 OPTKING Finished Execution 
			--------------------------

    Final optimized geometry and variables:
    Molecular point group: c2v
    Full point group: C_inf_v

    Geometry (in Angstrom), charge = 0, multiplicity = 1:

    CL           0.000000000000     0.000000000000    -0.035733868603
    H            0.000000000000     0.000000000000     1.239870361397

	Removing binary optimization data file.
	Cleaning optimization helper files.
gradient() will perform gradient computation by finite difference of analytic energies.

         ----------------------------------------------------------
                                   FINDIF
                     R. A. King and Jonathon Misiewicz
         ---------------------------------------------------------

  Using finite-differences of energies to determine gradients.
    Generating geometries for use with 3-point formula.
    Displacement size will be 5.00e-03.
    Number of atoms is 2.
    Number of symmetric SALCs is 1.
    Translations projected? 1. Rotations projected? 1.
    Number of geometries (including reference) is 3.

  //>>>>>>>>>>>>>>>>>>>>>>>>>>>>>>>>>>>//
  //    Loading displacement 1 of 3    //
  //<<<<<<<<<<<<<<<<<<<<<<<<<<<<<<<<<<<//

*** tstart() called on bp1-compute00065.data.bp.acrc.priv
*** at Tue Apr 27 17:01:44 2021

   => Loading Basis Set <=

    Name: CC-PV(Q+D)Z
    Role: ORBITAL
    Keyword: BASIS
    atoms 1 entry CL         line  1066 file /work/zw18965/.conda/envs/p4env/share/psi4/basis/cc-pv_qpd_z.gbs 
    atoms 2 entry H          line    32 file /work/zw18965/.conda/envs/p4env/share/psi4/basis/cc-pv_qpd_z.gbs 


         ---------------------------------------------------------
                                   SCF
               by Justin Turney, Rob Parrish, Andy Simmonett
                          and Daniel G. A. Smith
                              RKS Reference
                       24 Threads, 137329 MiB Core
         ---------------------------------------------------------

  ==> Geometry <==

    Molecular point group: c2v
    Full point group: C_inf_v

    Geometry (in Angstrom), charge = 0, multiplicity = 1:

       Center              X                  Y                   Z               Mass       
    ------------   -----------------  -----------------  -----------------  -----------------
         CL           0.000000000000     0.000000000000    -0.035733868603    34.968852682000
         H            0.000000000000     0.000000000000     1.239870361397     1.007825032230

  Running in c2v symmetry.

  Rotational constants: A = ************  B =     10.57594  C =     10.57594 [cm^-1]
  Rotational constants: A = ************  B = 317058.81273  C = 317058.81273 [MHz]
  Nuclear repulsion =    7.052353990226264

  Charge       = 0
  Multiplicity = 1
  Electrons    = 18
  Nalpha       = 9
  Nbeta        = 9

  ==> Algorithm <==

  SCF Algorithm Type is DF.
  DIIS enabled.
  MOM disabled.
  Fractional occupation disabled.
  Guess Type is SAD.
  Energy threshold   = 1.00e-08
  Density threshold  = 1.00e-08
  Integral threshold = 0.00e+00

  ==> Primary Basis <==

  Basis Set: CC-PV(Q+D)Z
    Blend: CC-PV(Q+D)Z
    Number of shells: 28
    Number of basis function: 94
    Number of Cartesian functions: 115
    Spherical Harmonics?: true
    Max angular momentum: 4

  ==> DFT Potential <==

   => Composite Functional: WB97X-V <= 

    wB97X-V Hyb-GGA Exchange-Correlation Functional

    N. Mardirossian and M. Head-Gordon, Phys. Chem. Chem. Phys. 16, 9904 (2014)

    Deriv               =              1
    GGA                 =           TRUE
    Meta                =          FALSE

    Exchange Hybrid     =           TRUE
    MP2 Hybrid          =          FALSE

   => Exchange-Correlation Functionals <=

    1.0000   wB97X-V range-separated functional

   => Exact (HF) Exchange <=

    0.8330            HF,LR [omega = 0.3000]
    0.1670               HF 

   => VV10 Non-Local Parameters <=

    VV10 B              =     6.0000E+00
    VV10 C              =     1.0000E-02

   => Molecular Quadrature <=

    Radial Scheme          =       TREUTLER
    Pruning Scheme         =           FLAT
    Nuclear Scheme         =       TREUTLER

    BS radius alpha        =              1
    Pruning alpha          =              1
    Radial Points          =             75
    Spherical Points       =            302
    Total Points           =          43996
    Total Blocks           =            399
    Max Points             =            255
    Max Functions          =             94

   => Loading Basis Set <=

    Name: (CC-PV(Q+D)Z AUX)
    Role: JKFIT
    Keyword: DF_BASIS_SCF
    atoms 1 entry CL         line   755 file /work/zw18965/.conda/envs/p4env/share/psi4/basis/cc-pvqz-jkfit.gbs 
    atoms 2 entry H          line    51 file /work/zw18965/.conda/envs/p4env/share/psi4/basis/cc-pvqz-jkfit.gbs 

  ==> Pre-Iterations <==

   -------------------------------------------------------
    Irrep   Nso     Nmo     Nalpha   Nbeta   Ndocc  Nsocc
   -------------------------------------------------------
     A1        39      39       0       0       0       0
     A2        11      11       0       0       0       0
     B1        22      22       0       0       0       0
     B2        22      22       0       0       0       0
   -------------------------------------------------------
    Total      94      94       9       9       9       0
   -------------------------------------------------------

  ==> Integral Setup <==

  ==> DiskDFJK: Density-Fitted J/K Matrices <==

    J tasked:                  Yes
    K tasked:                  Yes
    wK tasked:                 Yes
    Omega:               3.000E-01
    OpenMP threads:             24
    Integrals threads:          24
    Memory [MiB]:           102883
    Algorithm:                Core
    Integral Cache:           NONE
    Schwarz Cutoff:          1E-12
    Fitting Condition:       1E-10

   => Auxiliary Basis Set <=

  Basis Set: (CC-PV(Q+D)Z AUX)
    Blend: CC-PVQZ-JKFIT
    Number of shells: 53
    Number of basis function: 199
    Number of Cartesian functions: 257
    Spherical Harmonics?: true
    Max angular momentum: 5

  Cached 100.0% of DFT collocation blocks in 0.111 [GiB].

  Minimum eigenvalue in the overlap matrix is 4.4504089984E-04.
  Using Symmetric Orthogonalization.

  SCF Guess: Superposition of Atomic Densities via on-the-fly atomic UHF.

  ==> Iterations <==

                           Total Energy        Delta E     RMS |[F,P]|

   @DF-RKS iter SAD:  -460.59947515788656   -4.60599e+02   0.00000e+00 
   @DF-RKS iter   1:  -460.73816746607946   -1.38692e-01   4.48024e-03 DIIS
   @DF-RKS iter   2:  -460.75414165065661   -1.59742e-02   2.71863e-03 DIIS
   @DF-RKS iter   3:  -460.76049223274765   -6.35058e-03   1.73593e-04 DIIS
   @DF-RKS iter   4:  -460.76056506465392   -7.28319e-05   5.81290e-05 DIIS
   @DF-RKS iter   5:  -460.76057352993195   -8.46528e-06   1.40925e-05 DIIS
   @DF-RKS iter   6:  -460.76057388971481   -3.59783e-07   2.69371e-06 DIIS
   @DF-RKS iter   7:  -460.76057390445851   -1.47437e-08   3.20017e-07 DIIS
   @DF-RKS iter   8:  -460.76057390478866   -3.30147e-10   4.93066e-08 DIIS
   @DF-RKS iter   9:  -460.76057390479798   -9.32232e-12   6.50009e-09 DIIS
  Energy and wave function converged.


  ==> Post-Iterations <==

    Orbital Energies [Eh]
    ---------------------

    Doubly Occupied:                                                      

       1A1  -101.556354     2A1    -9.573732     3A1    -7.329770  
       1B1    -7.320960     1B2    -7.320960     4A1    -0.974912  
       5A1    -0.580682     2B1    -0.440723     2B2    -0.440723  

    Virtual:                                                              

       6A1     0.078420     7A1     0.220537     8A1     0.308285  
       3B2     0.320425     3B1     0.320425     4B1     0.367257  
       4B2     0.367257     9A1     0.422375     1A2     0.422375  
      10A1     0.473424    11A1     0.654562     5B1     0.765229  
       5B2     0.765229    12A1     1.011854    13A1     1.146245  
       6B2     1.227075     6B1     1.227075    14A1     1.250377  
       2A2     1.250377     3A2     1.379804    15A1     1.379805  
      16A1     1.419735     7B1     1.426382     7B2     1.426382  
       8B1     1.501600     8B2     1.501600    17A1     1.601632  
       9B1     1.632735     9B2     1.632735    18A1     1.984690  
      19A1     2.215530     4A2     2.215532    10B2     2.322035  
      10B1     2.322035    20A1     2.452632    21A1     2.829356  
      11B1     2.839618    11B2     2.839618     5A2     3.311196  
      22A1     3.311200    23A1     3.342757    12B1     3.396243  
      12B2     3.396243    24A1     3.511002    13B1     3.661756  
      13B2     3.661756    25A1     3.695765     6A2     3.695765  
      26A1     3.824002     7A2     3.824003    14B2     4.014975  
      14B1     4.014975     8A2     4.069284    27A1     4.069284  
      15B1     4.077805    15B2     4.077805    28A1     4.424137  
      29A1     4.648382    16B1     4.670759    16B2     4.670759  
      17B2     5.603736    17B1     5.603736    18B1     5.913946  
      18B2     5.913946    30A1     6.039761    31A1     6.552367  
       9A2     6.552371    32A1     6.873476    19B2     7.100393  
      19B1     7.100393    33A1     7.770848    34A1     7.989272  
      10A2     7.989284    20B2     8.321176    20B1     8.321176  
      21B2     8.565279    21B1     8.565279    35A1     9.086848  
      36A1    10.519745    37A1    10.709876    11A2    10.709892  
      22B1    10.801603    22B2    10.801603    38A1    11.638552  
      39A1    23.771019  

    Final Occupation by Irrep:
             A1    A2    B1    B2 
    DOCC [     5,    0,    2,    2 ]

  @DF-RKS Final Energy:  -460.76057390479798

   => Energetics <=

    Nuclear Repulsion Energy =              7.0523539902262637
    One-Electron Energy =                -649.8903286586312333
    Two-Electron Energy =                 203.5377952420470820
    DFT Exchange-Correlation Energy =     -21.5368070688779980
    Empirical Dispersion Energy =           0.0000000000000000
    VV10 Nonlocal Energy =                  0.0764125904379053
    Total Energy =                       -460.7605739047979796

Computation Completed


Properties will be evaluated at   0.000000,   0.000000,   0.000000 [a0]

Properties computed using the SCF density matrix

  Nuclear Dipole Moment: [e a0]
     X:     0.0000      Y:     0.0000      Z:     1.1951

  Electronic Dipole Moment: [e a0]
     X:     0.0000      Y:     0.0000      Z:    -0.7359

  Dipole Moment: [e a0]
     X:     0.0000      Y:     0.0000      Z:     0.4591     Total:     0.4591

  Dipole Moment: [D]
     X:     0.0000      Y:     0.0000      Z:     1.1669     Total:     1.1669


*** tstop() called on bp1-compute00065.data.bp.acrc.priv at Tue Apr 27 17:01:46 2021
Module time:
	user time   =      56.58 seconds =       0.94 minutes
	system time =       2.11 seconds =       0.04 minutes
	total time  =          2 seconds =       0.03 minutes
Total time:
	user time   =     229.18 seconds =       3.82 minutes
	system time =       9.07 seconds =       0.15 minutes
	total time  =         10 seconds =       0.17 minutes

  //>>>>>>>>>>>>>>>>>>>>>>>>>>>>>>>>>>>//
  //    Loading displacement 2 of 3    //
  //<<<<<<<<<<<<<<<<<<<<<<<<<<<<<<<<<<<//

*** tstart() called on bp1-compute00065.data.bp.acrc.priv
*** at Tue Apr 27 17:01:46 2021

   => Loading Basis Set <=

    Name: CC-PV(Q+D)Z
    Role: ORBITAL
    Keyword: BASIS
    atoms 1 entry CL         line  1066 file /work/zw18965/.conda/envs/p4env/share/psi4/basis/cc-pv_qpd_z.gbs 
    atoms 2 entry H          line    32 file /work/zw18965/.conda/envs/p4env/share/psi4/basis/cc-pv_qpd_z.gbs 


         ---------------------------------------------------------
                                   SCF
               by Justin Turney, Rob Parrish, Andy Simmonett
                          and Daniel G. A. Smith
                              RKS Reference
                       24 Threads, 137329 MiB Core
         ---------------------------------------------------------

  ==> Geometry <==

    Molecular point group: c2v
    Full point group: C_inf_v

    Geometry (in Angstrom), charge = 0, multiplicity = 1:

       Center              X                  Y                   Z               Mass       
    ------------   -----------------  -----------------  -----------------  -----------------
         CL           0.000000000000     0.000000000000    -0.035808756647    34.968852682000
         H            0.000000000000     0.000000000000     1.242468777688     1.007825032230

  Running in c2v symmetry.

  Rotational constants: A = ************  B =     10.53175  C =     10.53175 [cm^-1]
  Rotational constants: A = ************  B = 315734.04815  C = 315734.04815 [MHz]
  Nuclear repulsion =    7.037605167698158

  Charge       = 0
  Multiplicity = 1
  Electrons    = 18
  Nalpha       = 9
  Nbeta        = 9

  ==> Algorithm <==

  SCF Algorithm Type is DF.
  DIIS enabled.
  MOM disabled.
  Fractional occupation disabled.
  Guess Type is SAD.
  Energy threshold   = 1.00e-08
  Density threshold  = 1.00e-08
  Integral threshold = 0.00e+00

  ==> Primary Basis <==

  Basis Set: CC-PV(Q+D)Z
    Blend: CC-PV(Q+D)Z
    Number of shells: 28
    Number of basis function: 94
    Number of Cartesian functions: 115
    Spherical Harmonics?: true
    Max angular momentum: 4

  ==> DFT Potential <==

   => Composite Functional: WB97X-V <= 

    wB97X-V Hyb-GGA Exchange-Correlation Functional

    N. Mardirossian and M. Head-Gordon, Phys. Chem. Chem. Phys. 16, 9904 (2014)

    Deriv               =              1
    GGA                 =           TRUE
    Meta                =          FALSE

    Exchange Hybrid     =           TRUE
    MP2 Hybrid          =          FALSE

   => Exchange-Correlation Functionals <=

    1.0000   wB97X-V range-separated functional

   => Exact (HF) Exchange <=

    0.8330            HF,LR [omega = 0.3000]
    0.1670               HF 

   => VV10 Non-Local Parameters <=

    VV10 B              =     6.0000E+00
    VV10 C              =     1.0000E-02

   => Molecular Quadrature <=

    Radial Scheme          =       TREUTLER
    Pruning Scheme         =           FLAT
    Nuclear Scheme         =       TREUTLER

    BS radius alpha        =              1
    Pruning alpha          =              1
    Radial Points          =             75
    Spherical Points       =            302
    Total Points           =          43996
    Total Blocks           =            398
    Max Points             =            255
    Max Functions          =             94

   => Loading Basis Set <=

    Name: (CC-PV(Q+D)Z AUX)
    Role: JKFIT
    Keyword: DF_BASIS_SCF
    atoms 1 entry CL         line   755 file /work/zw18965/.conda/envs/p4env/share/psi4/basis/cc-pvqz-jkfit.gbs 
    atoms 2 entry H          line    51 file /work/zw18965/.conda/envs/p4env/share/psi4/basis/cc-pvqz-jkfit.gbs 

  ==> Pre-Iterations <==

   -------------------------------------------------------
    Irrep   Nso     Nmo     Nalpha   Nbeta   Ndocc  Nsocc
   -------------------------------------------------------
     A1        39      39       0       0       0       0
     A2        11      11       0       0       0       0
     B1        22      22       0       0       0       0
     B2        22      22       0       0       0       0
   -------------------------------------------------------
    Total      94      94       9       9       9       0
   -------------------------------------------------------

  ==> Integral Setup <==

  ==> DiskDFJK: Density-Fitted J/K Matrices <==

    J tasked:                  Yes
    K tasked:                  Yes
    wK tasked:                 Yes
    Omega:               3.000E-01
    OpenMP threads:             24
    Integrals threads:          24
    Memory [MiB]:           102883
    Algorithm:                Core
    Integral Cache:           NONE
    Schwarz Cutoff:          1E-12
    Fitting Condition:       1E-10

   => Auxiliary Basis Set <=

  Basis Set: (CC-PV(Q+D)Z AUX)
    Blend: CC-PVQZ-JKFIT
    Number of shells: 53
    Number of basis function: 199
    Number of Cartesian functions: 257
    Spherical Harmonics?: true
    Max angular momentum: 5

  Cached 100.0% of DFT collocation blocks in 0.111 [GiB].

  Minimum eigenvalue in the overlap matrix is 4.4774125240E-04.
  Using Symmetric Orthogonalization.

  SCF Guess: Superposition of Atomic Densities via on-the-fly atomic UHF.

  ==> Iterations <==

                           Total Energy        Delta E     RMS |[F,P]|

   @DF-RKS iter SAD:  -460.59797855720353   -4.60598e+02   0.00000e+00 
   @DF-RKS iter   1:  -460.73807089969029   -1.40092e-01   4.48414e-03 DIIS
   @DF-RKS iter   2:  -460.75408718529837   -1.60163e-02   2.72634e-03 DIIS
   @DF-RKS iter   3:  -460.76048837337464   -6.40119e-03   1.73727e-04 DIIS
   @DF-RKS iter   4:  -460.76056125835919   -7.28850e-05   5.81180e-05 DIIS
   @DF-RKS iter   5:  -460.76056974961898   -8.49126e-06   1.41227e-05 DIIS
   @DF-RKS iter   6:  -460.76057011179864   -3.62180e-07   2.70962e-06 DIIS
   @DF-RKS iter   7:  -460.76057012667701   -1.48784e-08   3.20398e-07 DIIS
   @DF-RKS iter   8:  -460.76057012700909   -3.32079e-10   4.95263e-08 DIIS
   @DF-RKS iter   9:  -460.76057012701887   -9.77707e-12   6.53224e-09 DIIS
  Energy and wave function converged.


  ==> Post-Iterations <==

    Orbital Energies [Eh]
    ---------------------

    Doubly Occupied:                                                      

       1A1  -101.556488     2A1    -9.573796     3A1    -7.329847  
       1B1    -7.321026     1B2    -7.321026     4A1    -0.974491  
       5A1    -0.580286     2B1    -0.440650     2B2    -0.440650  

    Virtual:                                                              

       6A1     0.077882     7A1     0.220496     8A1     0.308229  
       3B1     0.320442     3B2     0.320442     4B2     0.367230  
       4B1     0.367230     9A1     0.422424     1A2     0.422424  
      10A1     0.473231    11A1     0.654050     5B2     0.764608  
       5B1     0.764608    12A1     1.010888    13A1     1.147276  
       6B2     1.227278     6B1     1.227278    14A1     1.250421  
       2A2     1.250421     3A2     1.379738    15A1     1.379738  
      16A1     1.419009     7B2     1.426439     7B1     1.426439  
       8B2     1.501685     8B1     1.501685    17A1     1.601509  
       9B2     1.632219     9B1     1.632219    18A1     1.984974  
      19A1     2.214122     4A2     2.214124    10B2     2.321432  
      10B1     2.321432    20A1     2.449653    21A1     2.827328  
      11B2     2.837233    11B1     2.837233     5A2     3.311171  
      22A1     3.311175    23A1     3.344769    12B2     3.396421  
      12B1     3.396421    24A1     3.507947    13B2     3.661975  
      13B1     3.661975    25A1     3.695824     6A2     3.695825  
      26A1     3.822558     7A2     3.822558    14B2     4.015010  
      14B1     4.015010     8A2     4.068969    27A1     4.068970  
      15B1     4.076460    15B2     4.076460    28A1     4.423416  
      29A1     4.646605    16B2     4.667482    16B1     4.667482  
      17B2     5.602897    17B1     5.602897    18B2     5.912904  
      18B1     5.912904    30A1     6.042289    31A1     6.546520  
       9A2     6.546524    32A1     6.865382    19B2     7.098776  
      19B1     7.098776    33A1     7.764445    34A1     7.988915  
      10A2     7.988928    20B1     8.312680    20B2     8.312680  
      21B1     8.562904    21B2     8.562904    35A1     9.083045  
      36A1    10.516660    37A1    10.709885    11A2    10.709902  
      22B2    10.800901    22B1    10.800901    38A1    11.624402  
      39A1    23.748831  

    Final Occupation by Irrep:
             A1    A2    B1    B2 
    DOCC [     5,    0,    2,    2 ]

  @DF-RKS Final Energy:  -460.76057012701887

   => Energetics <=

    Nuclear Repulsion Energy =              7.0376051676981577
    One-Electron Energy =                -649.8624087353649657
    Two-Electron Energy =                 203.5239017881409609
    DFT Exchange-Correlation Energy =     -21.5360800229242919
    Empirical Dispersion Energy =           0.0000000000000000
    VV10 Nonlocal Energy =                  0.0764116754311913
    Total Energy =                       -460.7605701270189229

Computation Completed


Properties will be evaluated at   0.000000,   0.000000,   0.000000 [a0]

Properties computed using the SCF density matrix

  Nuclear Dipole Moment: [e a0]
     X:     0.0000      Y:     0.0000      Z:     1.1976

  Electronic Dipole Moment: [e a0]
     X:     0.0000      Y:     0.0000      Z:    -0.7374

  Dipole Moment: [e a0]
     X:     0.0000      Y:     0.0000      Z:     0.4602     Total:     0.4602

  Dipole Moment: [D]
     X:     0.0000      Y:     0.0000      Z:     1.1697     Total:     1.1697


*** tstop() called on bp1-compute00065.data.bp.acrc.priv at Tue Apr 27 17:01:49 2021
Module time:
	user time   =      56.94 seconds =       0.95 minutes
	system time =       2.04 seconds =       0.03 minutes
	total time  =          3 seconds =       0.05 minutes
Total time:
	user time   =     286.26 seconds =       4.77 minutes
	system time =      11.11 seconds =       0.19 minutes
	total time  =         13 seconds =       0.22 minutes

  //>>>>>>>>>>>>>>>>>>>>>>>>>>>>>>>>>>>//
  //    Loading displacement 3 of 3    //
  //<<<<<<<<<<<<<<<<<<<<<<<<<<<<<<<<<<<//

*** tstart() called on bp1-compute00065.data.bp.acrc.priv
*** at Tue Apr 27 17:01:49 2021

   => Loading Basis Set <=

    Name: CC-PV(Q+D)Z
    Role: ORBITAL
    Keyword: BASIS
    atoms 1 entry CL         line  1066 file /work/zw18965/.conda/envs/p4env/share/psi4/basis/cc-pv_qpd_z.gbs 
    atoms 2 entry H          line    32 file /work/zw18965/.conda/envs/p4env/share/psi4/basis/cc-pv_qpd_z.gbs 


         ---------------------------------------------------------
                                   SCF
               by Justin Turney, Rob Parrish, Andy Simmonett
                          and Daniel G. A. Smith
                              RKS Reference
                       24 Threads, 137329 MiB Core
         ---------------------------------------------------------

  ==> Geometry <==

    Molecular point group: c2v
    Full point group: C_inf_v

    Geometry (in Angstrom), charge = 0, multiplicity = 1:

       Center              X                  Y                   Z               Mass       
    ------------   -----------------  -----------------  -----------------  -----------------
         CL           0.000000000000     0.000000000000    -0.035658980559    34.968852682000
         H            0.000000000000     0.000000000000     1.237271945106     1.007825032230

  Running in c2v symmetry.

  Rotational constants: A = ************  B =     10.62041  C =     10.62041 [cm^-1]
  Rotational constants: A = ************  B = 318391.93255  C = 318391.93255 [MHz]
  Nuclear repulsion =    7.067164761270836

  Charge       = 0
  Multiplicity = 1
  Electrons    = 18
  Nalpha       = 9
  Nbeta        = 9

  ==> Algorithm <==

  SCF Algorithm Type is DF.
  DIIS enabled.
  MOM disabled.
  Fractional occupation disabled.
  Guess Type is SAD.
  Energy threshold   = 1.00e-08
  Density threshold  = 1.00e-08
  Integral threshold = 0.00e+00

  ==> Primary Basis <==

  Basis Set: CC-PV(Q+D)Z
    Blend: CC-PV(Q+D)Z
    Number of shells: 28
    Number of basis function: 94
    Number of Cartesian functions: 115
    Spherical Harmonics?: true
    Max angular momentum: 4

  ==> DFT Potential <==

   => Composite Functional: WB97X-V <= 

    wB97X-V Hyb-GGA Exchange-Correlation Functional

    N. Mardirossian and M. Head-Gordon, Phys. Chem. Chem. Phys. 16, 9904 (2014)

    Deriv               =              1
    GGA                 =           TRUE
    Meta                =          FALSE

    Exchange Hybrid     =           TRUE
    MP2 Hybrid          =          FALSE

   => Exchange-Correlation Functionals <=

    1.0000   wB97X-V range-separated functional

   => Exact (HF) Exchange <=

    0.8330            HF,LR [omega = 0.3000]
    0.1670               HF 

   => VV10 Non-Local Parameters <=

    VV10 B              =     6.0000E+00
    VV10 C              =     1.0000E-02

   => Molecular Quadrature <=

    Radial Scheme          =       TREUTLER
    Pruning Scheme         =           FLAT
    Nuclear Scheme         =       TREUTLER

    BS radius alpha        =              1
    Pruning alpha          =              1
    Radial Points          =             75
    Spherical Points       =            302
    Total Points           =          43996
    Total Blocks           =            398
    Max Points             =            256
    Max Functions          =             94

   => Loading Basis Set <=

    Name: (CC-PV(Q+D)Z AUX)
    Role: JKFIT
    Keyword: DF_BASIS_SCF
    atoms 1 entry CL         line   755 file /work/zw18965/.conda/envs/p4env/share/psi4/basis/cc-pvqz-jkfit.gbs 
    atoms 2 entry H          line    51 file /work/zw18965/.conda/envs/p4env/share/psi4/basis/cc-pvqz-jkfit.gbs 

  ==> Pre-Iterations <==

   -------------------------------------------------------
    Irrep   Nso     Nmo     Nalpha   Nbeta   Ndocc  Nsocc
   -------------------------------------------------------
     A1        39      39       0       0       0       0
     A2        11      11       0       0       0       0
     B1        22      22       0       0       0       0
     B2        22      22       0       0       0       0
   -------------------------------------------------------
    Total      94      94       9       9       9       0
   -------------------------------------------------------

  ==> Integral Setup <==

  ==> DiskDFJK: Density-Fitted J/K Matrices <==

    J tasked:                  Yes
    K tasked:                  Yes
    wK tasked:                 Yes
    Omega:               3.000E-01
    OpenMP threads:             24
    Integrals threads:          24
    Memory [MiB]:           102883
    Algorithm:                Core
    Integral Cache:           NONE
    Schwarz Cutoff:          1E-12
    Fitting Condition:       1E-10

   => Auxiliary Basis Set <=

  Basis Set: (CC-PV(Q+D)Z AUX)
    Blend: CC-PVQZ-JKFIT
    Number of shells: 53
    Number of basis function: 199
    Number of Cartesian functions: 257
    Spherical Harmonics?: true
    Max angular momentum: 5

  Cached 100.0% of DFT collocation blocks in 0.111 [GiB].

  Minimum eigenvalue in the overlap matrix is 4.4233040514E-04.
  Using Symmetric Orthogonalization.

  SCF Guess: Superposition of Atomic Densities via on-the-fly atomic UHF.

  ==> Iterations <==

                           Total Energy        Delta E     RMS |[F,P]|

   @DF-RKS iter SAD:  -460.60097473536308   -4.60601e+02   0.00000e+00 
   @DF-RKS iter   1:  -460.73825447362736   -1.37280e-01   4.47640e-03 DIIS
   @DF-RKS iter   2:  -460.75418700965844   -1.59325e-02   2.71096e-03 DIIS
   @DF-RKS iter   3:  -460.76048739238672   -6.30038e-03   1.73464e-04 DIIS
   @DF-RKS iter   4:  -460.76056017687597   -7.27845e-05   5.81410e-05 DIIS
   @DF-RKS iter   5:  -460.76056861609629   -8.43922e-06   1.40622e-05 DIIS
   @DF-RKS iter   6:  -460.76056897347905   -3.57383e-07   2.67786e-06 DIIS
   @DF-RKS iter   7:  -460.76056898808821   -1.46092e-08   3.19642e-07 DIIS
   @DF-RKS iter   8:  -460.76056898841654   -3.28328e-10   4.90884e-08 DIIS
   @DF-RKS iter   9:  -460.76056898842603   -9.49285e-12   6.46808e-09 DIIS
  Energy and wave function converged.


  ==> Post-Iterations <==

    Orbital Energies [Eh]
    ---------------------

    Doubly Occupied:                                                      

       1A1  -101.556219     2A1    -9.573668     3A1    -7.329692  
       1B1    -7.320895     1B2    -7.320895     4A1    -0.975337  
       5A1    -0.581077     2B2    -0.440796     2B1    -0.440796  

    Virtual:                                                              

       6A1     0.078955     7A1     0.220579     8A1     0.308343  
       3B2     0.320407     3B1     0.320407     4B1     0.367284  
       4B2     0.367284     9A1     0.422326     1A2     0.422326  
      10A1     0.473616    11A1     0.655075     5B1     0.765849  
       5B2     0.765849    12A1     1.012827    13A1     1.145217  
       6B1     1.226871     6B2     1.226871    14A1     1.250332  
       2A2     1.250333     3A2     1.379872    15A1     1.379872  
      16A1     1.420468     7B2     1.426324     7B1     1.426324  
       8B1     1.501515     8B2     1.501515    17A1     1.601756  
       9B1     1.633244     9B2     1.633244    18A1     1.984402  
      19A1     2.216942     4A2     2.216944    10B1     2.322637  
      10B2     2.322637    20A1     2.455614    21A1     2.831390  
      11B1     2.842011    11B2     2.842011     5A2     3.311221  
      22A1     3.311225    23A1     3.340715    12B1     3.396058  
      12B2     3.396058    24A1     3.514101    13B1     3.661538  
      13B2     3.661538    25A1     3.695706     6A2     3.695706  
      26A1     3.825452     7A2     3.825452    14B1     4.014939  
      14B2     4.014939     8A2     4.069601    27A1     4.069602  
      15B1     4.079139    15B2     4.079139    28A1     4.424860  
      29A1     4.650186    16B2     4.674034    16B1     4.674034  
      17B2     5.604620    17B1     5.604620    18B1     5.915001  
      18B2     5.915001    30A1     6.037070    31A1     6.558245  
       9A2     6.558249    32A1     6.881767    19B1     7.101966  
      19B2     7.101966    33A1     7.777321    34A1     7.989623  
      10A2     7.989635    20B2     8.329566    20B1     8.329566  
      21B2     8.567789    21B1     8.567789    35A1     9.090713  
      36A1    10.522573    37A1    10.709865    11A2    10.709881  
      22B1    10.802353    22B2    10.802353    38A1    11.652858  
      39A1    23.793470  

    Final Occupation by Irrep:
             A1    A2    B1    B2 
    DOCC [     5,    0,    2,    2 ]

  @DF-RKS Final Energy:  -460.76056898842603

   => Energetics <=

    Nuclear Repulsion Energy =              7.0671647612708357
    One-Electron Energy =                -649.9183540728258777
    Two-Electron Energy =                 203.5517442974522169
    DFT Exchange-Correlation Energy =     -21.5375374851821917
    Empirical Dispersion Energy =           0.0000000000000000
    VV10 Nonlocal Energy =                  0.0764135108589980
    Total Energy =                       -460.7605689884260300

Computation Completed


Properties will be evaluated at   0.000000,   0.000000,   0.000000 [a0]

Properties computed using the SCF density matrix

  Nuclear Dipole Moment: [e a0]
     X:     0.0000      Y:     0.0000      Z:     1.1925

  Electronic Dipole Moment: [e a0]
     X:     0.0000      Y:     0.0000      Z:    -0.7345

  Dipole Moment: [e a0]
     X:     0.0000      Y:     0.0000      Z:     0.4580     Total:     0.4580

  Dipole Moment: [D]
     X:     0.0000      Y:     0.0000      Z:     1.1642     Total:     1.1642


*** tstop() called on bp1-compute00065.data.bp.acrc.priv at Tue Apr 27 17:01:51 2021
Module time:
	user time   =      56.65 seconds =       0.94 minutes
	system time =       1.97 seconds =       0.03 minutes
	total time  =          2 seconds =       0.03 minutes
Total time:
	user time   =     343.05 seconds =       5.72 minutes
	system time =      13.09 seconds =       0.22 minutes
	total time  =         15 seconds =       0.25 minutes

         ----------------------------------------------------------
                                   FINDIF
                     R. A. King and Jonathon Misiewicz
         ---------------------------------------------------------

  Computing gradient from energies.
    Using 3-point formula.
    Energy without displacement: -460.7605739048
    Check energies below for precision!
    Forces are for mass-weighted, symmetry-adapted cartesians (in au).

     Coord      Energy(-1)        Energy(+1)            Force
        0   -460.7605701270   -460.7605689884      0.0001138593


-------------------------------------------------------------
  ## New Matrix (Symmetry 0) ##
  Irrep: 1 Size: 2 x 3

                 1                   2                   3

    1     0.00000000000000     0.00000000000000     0.00011269150562
    2     0.00000000000000     0.00000000000000    -0.00011269150562




  Based on options and gradient (rms=6.51E-05), recommend projecting translations and projecting rotations.
hessian() will perform frequency computation by finite difference of analytic energies.

         ----------------------------------------------------------
                                   FINDIF
                     R. A. King and Jonathon Misiewicz
         ---------------------------------------------------------

  Using finite-differences of gradients to determine vibrational frequencies and 
  normal modes.  Resulting frequencies are only valid at stationary points.
    Generating geometries for use with 3-point formula.
    Displacement size will be 5.00e-03.
    Number of atoms is 2.
    Number of irreps is 4.
    Number of SALCs is 1.
    Translations projected? 1. Rotations projected? 1.
    Index of SALCs per irrep:
     1 :  0 
     2 : 
     3 : 
     4 : 
    Number of SALCs per irrep:
     Irrep 1: 1
     Irrep 2: 0
     Irrep 3: 0
     Irrep 4: 0
    Number of geometries (including reference) is 3.
    Number of displacements per irrep:
      Irrep 1: 2
      Irrep 2: 0
      Irrep 3: 0
      Irrep 4: 0

  //>>>>>>>>>>>>>>>>>>>>>>>>>>>>>>>>>>>//
  //    Loading displacement 1 of 3    //
  //<<<<<<<<<<<<<<<<<<<<<<<<<<<<<<<<<<<//

*** tstart() called on bp1-compute00065.data.bp.acrc.priv
*** at Tue Apr 27 17:01:51 2021

   => Loading Basis Set <=

    Name: CC-PV(Q+D)Z
    Role: ORBITAL
    Keyword: BASIS
    atoms 1 entry CL         line  1066 file /work/zw18965/.conda/envs/p4env/share/psi4/basis/cc-pv_qpd_z.gbs 
    atoms 2 entry H          line    32 file /work/zw18965/.conda/envs/p4env/share/psi4/basis/cc-pv_qpd_z.gbs 


         ---------------------------------------------------------
                                   SCF
               by Justin Turney, Rob Parrish, Andy Simmonett
                          and Daniel G. A. Smith
                              RKS Reference
                       24 Threads, 137329 MiB Core
         ---------------------------------------------------------

  ==> Geometry <==

    Molecular point group: c2v
    Full point group: C_inf_v

    Geometry (in Angstrom), charge = 0, multiplicity = 1:

       Center              X                  Y                   Z               Mass       
    ------------   -----------------  -----------------  -----------------  -----------------
         CL           0.000000000000     0.000000000000    -0.035733868603    34.968852682000
         H            0.000000000000     0.000000000000     1.239870361397     1.007825032230

  Running in c2v symmetry.

  Rotational constants: A = ************  B =     10.57594  C =     10.57594 [cm^-1]
  Rotational constants: A = ************  B = 317058.81273  C = 317058.81273 [MHz]
  Nuclear repulsion =    7.052353990226264

  Charge       = 0
  Multiplicity = 1
  Electrons    = 18
  Nalpha       = 9
  Nbeta        = 9

  ==> Algorithm <==

  SCF Algorithm Type is DF.
  DIIS enabled.
  MOM disabled.
  Fractional occupation disabled.
  Guess Type is SAD.
  Energy threshold   = 1.00e-10
  Density threshold  = 1.00e-10
  Integral threshold = 0.00e+00

  ==> Primary Basis <==

  Basis Set: CC-PV(Q+D)Z
    Blend: CC-PV(Q+D)Z
    Number of shells: 28
    Number of basis function: 94
    Number of Cartesian functions: 115
    Spherical Harmonics?: true
    Max angular momentum: 4

  ==> DFT Potential <==

   => Composite Functional: WB97X-V <= 

    wB97X-V Hyb-GGA Exchange-Correlation Functional

    N. Mardirossian and M. Head-Gordon, Phys. Chem. Chem. Phys. 16, 9904 (2014)

    Deriv               =              1
    GGA                 =           TRUE
    Meta                =          FALSE

    Exchange Hybrid     =           TRUE
    MP2 Hybrid          =          FALSE

   => Exchange-Correlation Functionals <=

    1.0000   wB97X-V range-separated functional

   => Exact (HF) Exchange <=

    0.8330            HF,LR [omega = 0.3000]
    0.1670               HF 

   => VV10 Non-Local Parameters <=

    VV10 B              =     6.0000E+00
    VV10 C              =     1.0000E-02

   => Molecular Quadrature <=

    Radial Scheme          =       TREUTLER
    Pruning Scheme         =           FLAT
    Nuclear Scheme         =       TREUTLER

    BS radius alpha        =              1
    Pruning alpha          =              1
    Radial Points          =             75
    Spherical Points       =            302
    Total Points           =          43996
    Total Blocks           =            399
    Max Points             =            255
    Max Functions          =             94

   => Loading Basis Set <=

    Name: (CC-PV(Q+D)Z AUX)
    Role: JKFIT
    Keyword: DF_BASIS_SCF
    atoms 1 entry CL         line   755 file /work/zw18965/.conda/envs/p4env/share/psi4/basis/cc-pvqz-jkfit.gbs 
    atoms 2 entry H          line    51 file /work/zw18965/.conda/envs/p4env/share/psi4/basis/cc-pvqz-jkfit.gbs 

  ==> Pre-Iterations <==

   -------------------------------------------------------
    Irrep   Nso     Nmo     Nalpha   Nbeta   Ndocc  Nsocc
   -------------------------------------------------------
     A1        39      39       0       0       0       0
     A2        11      11       0       0       0       0
     B1        22      22       0       0       0       0
     B2        22      22       0       0       0       0
   -------------------------------------------------------
    Total      94      94       9       9       9       0
   -------------------------------------------------------

  ==> Integral Setup <==

  ==> DiskDFJK: Density-Fitted J/K Matrices <==

    J tasked:                  Yes
    K tasked:                  Yes
    wK tasked:                 Yes
    Omega:               3.000E-01
    OpenMP threads:             24
    Integrals threads:          24
    Memory [MiB]:           102883
    Algorithm:                Core
    Integral Cache:           NONE
    Schwarz Cutoff:          1E-12
    Fitting Condition:       1E-10

   => Auxiliary Basis Set <=

  Basis Set: (CC-PV(Q+D)Z AUX)
    Blend: CC-PVQZ-JKFIT
    Number of shells: 53
    Number of basis function: 199
    Number of Cartesian functions: 257
    Spherical Harmonics?: true
    Max angular momentum: 5

  Cached 100.0% of DFT collocation blocks in 0.111 [GiB].

  Minimum eigenvalue in the overlap matrix is 4.4504089984E-04.
  Using Symmetric Orthogonalization.

  SCF Guess: Superposition of Atomic Densities via on-the-fly atomic UHF.

  ==> Iterations <==

                           Total Energy        Delta E     RMS |[F,P]|

   @DF-RKS iter SAD:  -460.59947515788645   -4.60599e+02   0.00000e+00 
   @DF-RKS iter   1:  -460.73816746607974   -1.38692e-01   4.48024e-03 DIIS
   @DF-RKS iter   2:  -460.75414165065689   -1.59742e-02   2.71863e-03 DIIS
   @DF-RKS iter   3:  -460.76049223274748   -6.35058e-03   1.73593e-04 DIIS
   @DF-RKS iter   4:  -460.76056506465346   -7.28319e-05   5.81290e-05 DIIS
   @DF-RKS iter   5:  -460.76057352993183   -8.46528e-06   1.40925e-05 DIIS
   @DF-RKS iter   6:  -460.76057388971492   -3.59783e-07   2.69371e-06 DIIS
   @DF-RKS iter   7:  -460.76057390445817   -1.47433e-08   3.20017e-07 DIIS
   @DF-RKS iter   8:  -460.76057390478888   -3.30715e-10   4.93066e-08 DIIS
   @DF-RKS iter   9:  -460.76057390479826   -9.37916e-12   6.50009e-09 DIIS
   @DF-RKS iter  10:  -460.76057390479849   -2.27374e-13   6.68359e-10 DIIS
   @DF-RKS iter  11:  -460.76057390479798    5.11591e-13   5.32903e-11 DIIS
  Energy and wave function converged.


  ==> Post-Iterations <==

    Orbital Energies [Eh]
    ---------------------

    Doubly Occupied:                                                      

       1A1  -101.556354     2A1    -9.573732     3A1    -7.329770  
       1B1    -7.320960     1B2    -7.320960     4A1    -0.974912  
       5A1    -0.580682     2B1    -0.440723     2B2    -0.440723  

    Virtual:                                                              

       6A1     0.078420     7A1     0.220537     8A1     0.308285  
       3B1     0.320425     3B2     0.320425     4B2     0.367257  
       4B1     0.367257     9A1     0.422375     1A2     0.422375  
      10A1     0.473424    11A1     0.654562     5B1     0.765229  
       5B2     0.765229    12A1     1.011854    13A1     1.146245  
       6B2     1.227075     6B1     1.227075    14A1     1.250377  
       2A2     1.250377     3A2     1.379804    15A1     1.379805  
      16A1     1.419735     7B1     1.426382     7B2     1.426382  
       8B1     1.501600     8B2     1.501600    17A1     1.601632  
       9B1     1.632735     9B2     1.632735    18A1     1.984690  
      19A1     2.215530     4A2     2.215532    10B2     2.322035  
      10B1     2.322035    20A1     2.452632    21A1     2.829356  
      11B1     2.839618    11B2     2.839618     5A2     3.311196  
      22A1     3.311200    23A1     3.342757    12B1     3.396243  
      12B2     3.396243    24A1     3.511002    13B1     3.661756  
      13B2     3.661756    25A1     3.695765     6A2     3.695765  
      26A1     3.824002     7A2     3.824003    14B2     4.014975  
      14B1     4.014975     8A2     4.069284    27A1     4.069284  
      15B2     4.077805    15B1     4.077805    28A1     4.424137  
      29A1     4.648382    16B1     4.670759    16B2     4.670759  
      17B2     5.603736    17B1     5.603736    18B1     5.913946  
      18B2     5.913946    30A1     6.039761    31A1     6.552367  
       9A2     6.552371    32A1     6.873476    19B2     7.100393  
      19B1     7.100393    33A1     7.770848    34A1     7.989272  
      10A2     7.989284    20B2     8.321176    20B1     8.321176  
      21B2     8.565279    21B1     8.565279    35A1     9.086848  
      36A1    10.519745    37A1    10.709876    11A2    10.709892  
      22B2    10.801603    22B1    10.801603    38A1    11.638552  
      39A1    23.771019  

[...]
      12B1     3.396421    24A1     3.507947    13B2     3.661975  
      13B1     3.661975    25A1     3.695824     6A2     3.695825  
      26A1     3.822558     7A2     3.822558    14B2     4.015010  
      14B1     4.015010     8A2     4.068969    27A1     4.068970  
      15B1     4.076460    15B2     4.076460    28A1     4.423416  
      29A1     4.646605    16B2     4.667482    16B1     4.667482  
      17B2     5.602897    17B1     5.602897    18B2     5.912904  
      18B1     5.912904    30A1     6.042289    31A1     6.546520  
       9A2     6.546524    32A1     6.865382    19B2     7.098776  
      19B1     7.098776    33A1     7.764445    34A1     7.988915  
      10A2     7.988928    20B1     8.312680    20B2     8.312680  
      21B1     8.562904    21B2     8.562904    35A1     9.083045  
      36A1    10.516660    37A1    10.709885    11A2    10.709902  
      22B2    10.800901    22B1    10.800901    38A1    11.624402  
      39A1    23.748831  

    Final Occupation by Irrep:
             A1    A2    B1    B2 
    DOCC [     5,    0,    2,    2 ]

  @DF-RKS Final Energy:  -460.76057012701892

   => Energetics <=

    Nuclear Repulsion Energy =              7.0376051676981577
    One-Electron Energy =                -649.8624070021955959
    Two-Electron Energy =                 203.5238999598764735
    DFT Exchange-Correlation Energy =     -21.5360799278025503
    Empirical Dispersion Energy =           0.0000000000000000
    VV10 Nonlocal Energy =                  0.0764116754045405
    Total Energy =                       -460.7605701270189797

Computation Completed


Properties will be evaluated at   0.000000,   0.000000,   0.000000 [a0]

Properties computed using the SCF density matrix

  Nuclear Dipole Moment: [e a0]
     X:     0.0000      Y:     0.0000      Z:     1.1976

  Electronic Dipole Moment: [e a0]
     X:     0.0000      Y:     0.0000      Z:    -0.7374

  Dipole Moment: [e a0]
     X:     0.0000      Y:     0.0000      Z:     0.4602     Total:     0.4602

  Dipole Moment: [D]
     X:     0.0000      Y:     0.0000      Z:     1.1697     Total:     1.1697


*** tstop() called on bp1-compute00065.data.bp.acrc.priv at Tue Apr 27 17:01:57 2021
Module time:
	user time   =      60.18 seconds =       1.00 minutes
	system time =       2.17 seconds =       0.04 minutes
	total time  =          3 seconds =       0.05 minutes
Total time:
	user time   =     463.94 seconds =       7.73 minutes
	system time =      17.71 seconds =       0.30 minutes
	total time  =         21 seconds =       0.35 minutes

  //>>>>>>>>>>>>>>>>>>>>>>>>>>>>>>>>>>>//
  //    Loading displacement 3 of 3    //
  //<<<<<<<<<<<<<<<<<<<<<<<<<<<<<<<<<<<//

*** tstart() called on bp1-compute00065.data.bp.acrc.priv
*** at Tue Apr 27 17:01:57 2021

   => Loading Basis Set <=

    Name: CC-PV(Q+D)Z
    Role: ORBITAL
    Keyword: BASIS
    atoms 1 entry CL         line  1066 file /work/zw18965/.conda/envs/p4env/share/psi4/basis/cc-pv_qpd_z.gbs 
    atoms 2 entry H          line    32 file /work/zw18965/.conda/envs/p4env/share/psi4/basis/cc-pv_qpd_z.gbs 


         ---------------------------------------------------------
                                   SCF
               by Justin Turney, Rob Parrish, Andy Simmonett
                          and Daniel G. A. Smith
                              RKS Reference
                       24 Threads, 137329 MiB Core
         ---------------------------------------------------------

  ==> Geometry <==

    Molecular point group: c2v
    Full point group: C_inf_v

    Geometry (in Angstrom), charge = 0, multiplicity = 1:

       Center              X                  Y                   Z               Mass       
    ------------   -----------------  -----------------  -----------------  -----------------
         CL           0.000000000000     0.000000000000    -0.035658980559    34.968852682000
         H            0.000000000000     0.000000000000     1.237271945106     1.007825032230

  Running in c2v symmetry.

  Rotational constants: A = ************  B =     10.62041  C =     10.62041 [cm^-1]
  Rotational constants: A = ************  B = 318391.93255  C = 318391.93255 [MHz]
  Nuclear repulsion =    7.067164761270836

  Charge       = 0
  Multiplicity = 1
  Electrons    = 18
  Nalpha       = 9
  Nbeta        = 9

  ==> Algorithm <==

  SCF Algorithm Type is DF.
  DIIS enabled.
  MOM disabled.
  Fractional occupation disabled.
  Guess Type is SAD.
  Energy threshold   = 1.00e-10
  Density threshold  = 1.00e-10
  Integral threshold = 0.00e+00

  ==> Primary Basis <==

  Basis Set: CC-PV(Q+D)Z
    Blend: CC-PV(Q+D)Z
    Number of shells: 28
    Number of basis function: 94
    Number of Cartesian functions: 115
    Spherical Harmonics?: true
    Max angular momentum: 4

  ==> DFT Potential <==

   => Composite Functional: WB97X-V <= 

    wB97X-V Hyb-GGA Exchange-Correlation Functional

    N. Mardirossian and M. Head-Gordon, Phys. Chem. Chem. Phys. 16, 9904 (2014)

    Deriv               =              1
    GGA                 =           TRUE
    Meta                =          FALSE

    Exchange Hybrid     =           TRUE
    MP2 Hybrid          =          FALSE

   => Exchange-Correlation Functionals <=

    1.0000   wB97X-V range-separated functional

   => Exact (HF) Exchange <=

    0.8330            HF,LR [omega = 0.3000]
    0.1670               HF 

   => VV10 Non-Local Parameters <=

    VV10 B              =     6.0000E+00
    VV10 C              =     1.0000E-02

   => Molecular Quadrature <=

    Radial Scheme          =       TREUTLER
    Pruning Scheme         =           FLAT
    Nuclear Scheme         =       TREUTLER

    BS radius alpha        =              1
    Pruning alpha          =              1
    Radial Points          =             75
    Spherical Points       =            302
    Total Points           =          43996
    Total Blocks           =            398
    Max Points             =            256
    Max Functions          =             94

   => Loading Basis Set <=

    Name: (CC-PV(Q+D)Z AUX)
    Role: JKFIT
    Keyword: DF_BASIS_SCF
    atoms 1 entry CL         line   755 file /work/zw18965/.conda/envs/p4env/share/psi4/basis/cc-pvqz-jkfit.gbs 
    atoms 2 entry H          line    51 file /work/zw18965/.conda/envs/p4env/share/psi4/basis/cc-pvqz-jkfit.gbs 

  ==> Pre-Iterations <==

   -------------------------------------------------------
    Irrep   Nso     Nmo     Nalpha   Nbeta   Ndocc  Nsocc
   -------------------------------------------------------
     A1        39      39       0       0       0       0
     A2        11      11       0       0       0       0
     B1        22      22       0       0       0       0
     B2        22      22       0       0       0       0
   -------------------------------------------------------
    Total      94      94       9       9       9       0
   -------------------------------------------------------

  ==> Integral Setup <==

  ==> DiskDFJK: Density-Fitted J/K Matrices <==

    J tasked:                  Yes
    K tasked:                  Yes
    wK tasked:                 Yes
    Omega:               3.000E-01
    OpenMP threads:             24
    Integrals threads:          24
    Memory [MiB]:           102883
    Algorithm:                Core
    Integral Cache:           NONE
    Schwarz Cutoff:          1E-12
    Fitting Condition:       1E-10

   => Auxiliary Basis Set <=

  Basis Set: (CC-PV(Q+D)Z AUX)
    Blend: CC-PVQZ-JKFIT
    Number of shells: 53
    Number of basis function: 199
    Number of Cartesian functions: 257
    Spherical Harmonics?: true
    Max angular momentum: 5

  Cached 100.0% of DFT collocation blocks in 0.111 [GiB].

  Minimum eigenvalue in the overlap matrix is 4.4233040514E-04.
  Using Symmetric Orthogonalization.

  SCF Guess: Superposition of Atomic Densities via on-the-fly atomic UHF.

  ==> Iterations <==

                           Total Energy        Delta E     RMS |[F,P]|

   @DF-RKS iter SAD:  -460.60097473536320   -4.60601e+02   0.00000e+00 
   @DF-RKS iter   1:  -460.73825447362765   -1.37280e-01   4.47640e-03 DIIS
   @DF-RKS iter   2:  -460.75418700965844   -1.59325e-02   2.71096e-03 DIIS
   @DF-RKS iter   3:  -460.76048739238723   -6.30038e-03   1.73464e-04 DIIS
   @DF-RKS iter   4:  -460.76056017687642   -7.27845e-05   5.81410e-05 DIIS
   @DF-RKS iter   5:  -460.76056861609618   -8.43922e-06   1.40622e-05 DIIS
   @DF-RKS iter   6:  -460.76056897347928   -3.57383e-07   2.67786e-06 DIIS
   @DF-RKS iter   7:  -460.76056898808798   -1.46087e-08   3.19642e-07 DIIS
   @DF-RKS iter   8:  -460.76056898841631   -3.28328e-10   4.90884e-08 DIIS
   @DF-RKS iter   9:  -460.76056898842648   -1.01750e-11   6.46807e-09 DIIS
   @DF-RKS iter  10:  -460.76056898842620    2.84217e-13   6.65376e-10 DIIS
   @DF-RKS iter  11:  -460.76056898842648   -2.84217e-13   5.31522e-11 DIIS
  Energy and wave function converged.


  ==> Post-Iterations <==

    Orbital Energies [Eh]
    ---------------------

    Doubly Occupied:                                                      

       1A1  -101.556219     2A1    -9.573668     3A1    -7.329692  
       1B1    -7.320895     1B2    -7.320895     4A1    -0.975337  
       5A1    -0.581077     2B2    -0.440796     2B1    -0.440796  

    Virtual:                                                              

       6A1     0.078955     7A1     0.220579     8A1     0.308343  
       3B2     0.320407     3B1     0.320407     4B1     0.367284  
       4B2     0.367284     9A1     0.422326     1A2     0.422326  
      10A1     0.473616    11A1     0.655075     5B1     0.765849  
       5B2     0.765849    12A1     1.012827    13A1     1.145217  
       6B1     1.226871     6B2     1.226871    14A1     1.250332  
       2A2     1.250333     3A2     1.379872    15A1     1.379872  
      16A1     1.420468     7B2     1.426324     7B1     1.426324  
       8B1     1.501515     8B2     1.501515    17A1     1.601756  
       9B1     1.633244     9B2     1.633244    18A1     1.984402  
      19A1     2.216942     4A2     2.216944    10B1     2.322637  
      10B2     2.322637    20A1     2.455614    21A1     2.831390  
      11B1     2.842011    11B2     2.842011     5A2     3.311221  
      22A1     3.311225    23A1     3.340715    12B1     3.396058  
      12B2     3.396058    24A1     3.514101    13B1     3.661538  
      13B2     3.661538    25A1     3.695706     6A2     3.695706  
      26A1     3.825451     7A2     3.825452    14B1     4.014939  
      14B2     4.014939     8A2     4.069601    27A1     4.069602  
      15B1     4.079139    15B2     4.079139    28A1     4.424860  
      29A1     4.650186    16B2     4.674034    16B1     4.674034  
      17B2     5.604620    17B1     5.604620    18B1     5.915001  
      18B2     5.915001    30A1     6.037070    31A1     6.558245  
       9A2     6.558249    32A1     6.881767    19B1     7.101966  
      19B2     7.101966    33A1     7.777321    34A1     7.989623  
      10A2     7.989635    20B2     8.329566    20B1     8.329566  
      21B2     8.567789    21B1     8.567789    35A1     9.090713  
      36A1    10.522573    37A1    10.709865    11A2    10.709881  
      22B1    10.802353    22B2    10.802353    38A1    11.652858  
      39A1    23.793470  

    Final Occupation by Irrep:
             A1    A2    B1    B2 
    DOCC [     5,    0,    2,    2 ]

  @DF-RKS Final Energy:  -460.76056898842648

   => Energetics <=

    Nuclear Repulsion Energy =              7.0671647612708357
    One-Electron Energy =                -649.9183523572764898
    Two-Electron Energy =                 203.5517424876444466
    DFT Exchange-Correlation Energy =     -21.5375373908970857
    Empirical Dispersion Energy =           0.0000000000000000
    VV10 Nonlocal Energy =                  0.0764135108317449
    Total Energy =                       -460.7605689884265416

Computation Completed


Properties will be evaluated at   0.000000,   0.000000,   0.000000 [a0]

Properties computed using the SCF density matrix

  Nuclear Dipole Moment: [e a0]
     X:     0.0000      Y:     0.0000      Z:     1.1925

  Electronic Dipole Moment: [e a0]
     X:     0.0000      Y:     0.0000      Z:    -0.7345

  Dipole Moment: [e a0]
     X:     0.0000      Y:     0.0000      Z:     0.4580     Total:     0.4580

  Dipole Moment: [D]
     X:     0.0000      Y:     0.0000      Z:     1.1642     Total:     1.1642


*** tstop() called on bp1-compute00065.data.bp.acrc.priv at Tue Apr 27 17:01:59 2021
Module time:
	user time   =      59.84 seconds =       1.00 minutes
	system time =       2.34 seconds =       0.04 minutes
	total time  =          2 seconds =       0.03 minutes
Total time:
	user time   =     523.92 seconds =       8.73 minutes
	system time =      20.06 seconds =       0.33 minutes
	total time  =         23 seconds =       0.38 minutes

         ----------------------------------------------------------
                                   FINDIF
                     R. A. King and Jonathon Misiewicz
         ---------------------------------------------------------

  Computing second-derivative from energies using projected, 
  symmetry-adapted, cartesian coordinates.

  3 energies passed in, including the reference geometry.
    Using 3-point formula.
    Energy without displacement: -460.7605739048
    Check energies below for precision!
    0: -1 :      -460.7605701270
    0: 1  :      -460.7605689884

-------------------------------------------------------------


  ==> Harmonic Vibrational Analysis <==

  non-mass-weighted Hessian:       Symmetric? True   Hermitian? True   Lin Dep Dim?  5 (0)
  projection of translations (True) and rotations (True) removed 5 degrees of freedom (5)
  total projector:                 Symmetric? True   Hermitian? True   Lin Dep Dim?  5 (5)
  mass-weighted Hessian:           Symmetric? True   Hermitian? True   Lin Dep Dim?  5 (0)
  pre-proj  low-frequency mode:    0.0000  [cm^-1]
  pre-proj  low-frequency mode:    0.0000  [cm^-1]
  pre-proj  low-frequency mode:    0.0000  [cm^-1]
  pre-proj  low-frequency mode:    0.0000  [cm^-1]
  pre-proj  low-frequency mode:    0.0000  [cm^-1]
  pre-proj  all modes:['0.0000' '0.0000' '0.0000' '0.0000' '0.0000' '3031.4321']
  projected mass-weighted Hessian: Symmetric? True   Hermitian? True   Lin Dep Dim?  5 (5)
  post-proj low-frequency mode:    0.0000  [cm^-1] (TR)
  post-proj low-frequency mode:    0.0000  [cm^-1] (TR)
  post-proj low-frequency mode:    0.0000  [cm^-1] (TR)
  post-proj low-frequency mode:    0.0000  [cm^-1] (TR)
  post-proj low-frequency mode:    0.0000  [cm^-1] (TR)
  post-proj  all modes:['0.0000' '0.0000' '0.0000' '0.0000' '0.0000' '3031.4321']

  Vibration                       6           
  Freq [cm^-1]                3031.4321       
  Irrep                           A1          
  Reduced mass [u]              1.0360        
  Force const [mDyne/A]         5.6093        
  Turning point v=0 [a0]        0.1958        
  RMS dev v=0 [a0 u^1/2]        0.1409        
  Char temp [K]               4361.5559       
  ----------------------------------------------------------------------------------
      1   CL               0.00  0.00 -0.03   
      2   H                0.00  0.00  1.00   

  ==> Thermochemistry Components <==

  Entropy, S
    Electronic S            0.000 [cal/(mol K)]        0.000 [J/(mol K)]       0.00000000 [mEh/K] (multiplicity = 1)
    Translational S        36.671 [cal/(mol K)]      153.430 [J/(mol K)]       0.05843851 [mEh/K] (mol. weight = 35.9767 [u], P = 101325.00 [Pa])
    Rotational S            7.900 [cal/(mol K)]       33.052 [J/(mol K)]       0.01258877 [mEh/K] (symmetry no. = 1)
    Vibrational S           0.000 [cal/(mol K)]        0.000 [J/(mol K)]       0.00000002 [mEh/K]
  Total S                  44.570 [cal/(mol K)]      186.482 [J/(mol K)]       0.07102730 [mEh/K]
  Correction S              0.000 [cal/(mol K)]        0.000 [J/(mol K)]       0.00000000 [mEh/K]

  Constant volume heat capacity, Cv
    Electronic Cv           0.000 [cal/(mol K)]        0.000 [J/(mol K)]       0.00000000 [mEh/K]
    Translational Cv        2.981 [cal/(mol K)]       12.472 [J/(mol K)]       0.00475022 [mEh/K]
    Rotational Cv           1.987 [cal/(mol K)]        8.314 [J/(mol K)]       0.00316681 [mEh/K]
    Vibrational Cv          0.000 [cal/(mol K)]        0.001 [J/(mol K)]       0.00000030 [mEh/K]
  Total Cv                  4.968 [cal/(mol K)]       20.787 [J/(mol K)]       0.00791733 [mEh/K]
  Correction Cv             0.000 [cal/(mol K)]        0.000 [J/(mol K)]       0.00000000 [mEh/K]

  Constant pressure heat capacity, Cp
    Electronic Cp           0.000 [cal/(mol K)]        0.000 [J/(mol K)]       0.00000000 [mEh/K]
    Translational Cp        4.968 [cal/(mol K)]       20.786 [J/(mol K)]       0.00791703 [mEh/K]
    Rotational Cp           1.987 [cal/(mol K)]        8.314 [J/(mol K)]       0.00316681 [mEh/K]
    Vibrational Cp          0.000 [cal/(mol K)]        0.001 [J/(mol K)]       0.00000030 [mEh/K]
  Total Cp                  6.955 [cal/(mol K)]       29.101 [J/(mol K)]       0.01108414 [mEh/K]
  Correction Cp             0.000 [cal/(mol K)]        0.000 [J/(mol K)]       0.00000000 [mEh/K]

  ==> Thermochemistry Energy Analysis <==

  Raw electronic energy, E0
  Total E0, Electronic energy at well bottom at 0 [K]                 -460.76057390 [Eh]

  Zero-point energy, ZPE_vib = Sum_i nu_i / 2
    Electronic ZPE          0.000 [kcal/mol]        0.000 [kJ/mol]       0.00000000 [Eh]
    Translational ZPE       0.000 [kcal/mol]        0.000 [kJ/mol]       0.00000000 [Eh]
    Rotational ZPE          0.000 [kcal/mol]        0.000 [kJ/mol]       0.00000000 [Eh]
    Vibrational ZPE         4.334 [kcal/mol]       18.132 [kJ/mol]       0.00690611 [Eh]        1515.716 [cm^-1]
  Correction ZPE            4.334 [kcal/mol]       18.132 [kJ/mol]       0.00690611 [Eh]        1515.716 [cm^-1]
  Total ZPE, Electronic energy at 0 [K]                               -460.75366779 [Eh]

  Thermal Energy, E (includes ZPE)
    Electronic E            0.000 [kcal/mol]        0.000 [kJ/mol]       0.00000000 [Eh]
    Translational E         0.889 [kcal/mol]        3.718 [kJ/mol]       0.00141628 [Eh]
    Rotational E            0.592 [kcal/mol]        2.479 [kJ/mol]       0.00094418 [Eh]
    Vibrational E           4.334 [kcal/mol]       18.132 [kJ/mol]       0.00690612 [Eh]
  Correction E              5.815 [kcal/mol]       24.329 [kJ/mol]       0.00926658 [Eh]
  Total E, Electronic energy at  298.15 [K]                           -460.75130733 [Eh]

  Enthalpy, H_trans = E_trans + k_B * T
    Electronic H            0.000 [kcal/mol]        0.000 [kJ/mol]       0.00000000 [Eh]
    Translational H         1.481 [kcal/mol]        6.197 [kJ/mol]       0.00236046 [Eh]
    Rotational H            0.592 [kcal/mol]        2.479 [kJ/mol]       0.00094418 [Eh]
    Vibrational H           4.334 [kcal/mol]       18.132 [kJ/mol]       0.00690612 [Eh]
  Correction H              6.407 [kcal/mol]       26.808 [kJ/mol]       0.01021076 [Eh]
  Total H, Enthalpy at  298.15 [K]                                    -460.75036314 [Eh]

  Gibbs free energy, G = H - T * S
    Electronic G            0.000 [kcal/mol]        0.000 [kJ/mol]       0.00000000 [Eh]
    Translational G        -9.452 [kcal/mol]      -39.548 [kJ/mol]      -0.01506298 [Eh]
    Rotational G           -1.763 [kcal/mol]       -7.375 [kJ/mol]      -0.00280916 [Eh]
    Vibrational G           4.334 [kcal/mol]       18.132 [kJ/mol]       0.00690611 [Eh]
  Correction G             -6.881 [kcal/mol]      -28.791 [kJ/mol]      -0.01096603 [Eh]
  Total G, Free enthalpy at  298.15 [K]                               -460.77153993 [Eh]

    Psi4 stopped on: Tuesday, 27 April 2021 05:01PM
    Psi4 wall time for execution: 0:00:24.19

*** Psi4 exiting successfully. Buy a developer a beer!
