
    -----------------------------------------------------------------------
          Psi4: An Open-Source Ab Initio Electronic Structure Package
                               Psi4 1.3.2 release

                         Git: Rev {HEAD} ecbda83 


    R. M. Parrish, L. A. Burns, D. G. A. Smith, A. C. Simmonett,
    A. E. DePrince III, E. G. Hohenstein, U. Bozkaya, A. Yu. Sokolov,
    R. Di Remigio, R. M. Richard, J. F. Gonthier, A. M. James,
    H. R. McAlexander, A. Kumar, M. Saitow, X. Wang, B. P. Pritchard,
    P. Verma, H. F. Schaefer III, K. Patkowski, R. A. King, E. F. Valeev,
    F. A. Evangelista, J. M. Turney, T. D. Crawford, and C. D. Sherrill,
    J. Chem. Theory Comput. 13(7) pp 3185--3197 (2017).
    (doi: 10.1021/acs.jctc.7b00174)


                         Additional Contributions by
    P. Kraus, H. Kruse, M. H. Lechner, M. C. Schieber, R. A. Shaw,
    A. Alenaizan, R. Galvelis, Z. L. Glick, S. Lehtola, and J. P. Misiewicz

    -----------------------------------------------------------------------


    Psi4 started on: Tuesday, 27 April 2021 05:02PM

    Process ID: 129239
    Host:       bp1-compute00067.data.bp.acrc.priv
    PSIDATADIR: /work/zw18965/.conda/envs/p4env/share/psi4
    Memory:     500.0 MiB
    Threads:    24
    
  ==> Input File <==

--------------------------------------------------------------------------
memory 144 GB

molecule {
0 1
O 0.0000000000 0.0000000000 0.0000000000
H 0.0000000000 0.0000000000 0.9638997500
Cl 1.6530447720 0.0000000000 -0.3711121967
}

set dynamic_level 1
set basis cc-pV(Q+d)Z
 
optimize("wB97X-V")
frequencies("wB97X-V")
--------------------------------------------------------------------------

  Memory set to 134.110 GiB by Python driver.
gradient() will perform gradient computation by finite difference of analytic energies.

         ----------------------------------------------------------
                                   FINDIF
                     R. A. King and Jonathon Misiewicz
         ---------------------------------------------------------

  Using finite-differences of energies to determine gradients.
    Generating geometries for use with 3-point formula.
    Displacement size will be 5.00e-03.
    Number of atoms is 3.
    Number of symmetric SALCs is 3.
    Translations projected? 1. Rotations projected? 1.
    Number of geometries (including reference) is 7.

  //>>>>>>>>>>>>>>>>>>>>>>>>>>>>>>>>>>>//
  //    Loading displacement 1 of 7    //
  //<<<<<<<<<<<<<<<<<<<<<<<<<<<<<<<<<<<//

*** tstart() called on bp1-compute00067.data.bp.acrc.priv
*** at Tue Apr 27 17:02:52 2021

   => Loading Basis Set <=

    Name: CC-PV(Q+D)Z
    Role: ORBITAL
    Keyword: BASIS
    atoms 1 entry O          line   349 file /work/zw18965/.conda/envs/p4env/share/psi4/basis/cc-pv_qpd_z.gbs 
    atoms 2 entry H          line    32 file /work/zw18965/.conda/envs/p4env/share/psi4/basis/cc-pv_qpd_z.gbs 
    atoms 3 entry CL         line  1066 file /work/zw18965/.conda/envs/p4env/share/psi4/basis/cc-pv_qpd_z.gbs 


         ---------------------------------------------------------
                                   SCF
               by Justin Turney, Rob Parrish, Andy Simmonett
                          and Daniel G. A. Smith
                              RKS Reference
                       24 Threads, 137329 MiB Core
         ---------------------------------------------------------

  ==> Geometry <==

    Molecular point group: cs
    Full point group: Cs

    Geometry (in Angstrom), charge = 0, multiplicity = 1:

       Center              X                  Y                   Z               Mass       
    ------------   -----------------  -----------------  -----------------  -----------------
         O            1.112243756888     0.231009382225     0.000000000000    15.994914619570
         H            1.112243756888     1.194909132225     0.000000000000     1.007825032230
         CL          -0.540801015112    -0.140102814475     0.000000000000    34.968852682000

  Running in cs symmetry.

  Rotational constants: A =     20.45666  B =      0.50448  C =      0.49234 [cm^-1]
  Rotational constants: A = 613275.14863  B =  15123.89441  C =  14759.90248 [MHz]
  Nuclear repulsion =   51.105111811406950

  Charge       = 0
  Multiplicity = 1
  Electrons    = 26
  Nalpha       = 13
  Nbeta        = 13

  ==> Algorithm <==

  SCF Algorithm Type is DF.
  DIIS enabled.
  MOM disabled.
  Fractional occupation disabled.
  Guess Type is SAD.
  Energy threshold   = 1.00e-08
  Density threshold  = 1.00e-08
  Integral threshold = 0.00e+00

  ==> Primary Basis <==

  Basis Set: CC-PV(Q+D)Z
    Blend: CC-PV(Q+D)Z
    Number of shells: 43
    Number of basis function: 149
    Number of Cartesian functions: 185
    Spherical Harmonics?: true
    Max angular momentum: 4

  ==> DFT Potential <==

   => Composite Functional: WB97X-V <= 

    wB97X-V Hyb-GGA Exchange-Correlation Functional

    N. Mardirossian and M. Head-Gordon, Phys. Chem. Chem. Phys. 16, 9904 (2014)

    Deriv               =              1
    GGA                 =           TRUE
    Meta                =          FALSE

    Exchange Hybrid     =           TRUE
    MP2 Hybrid          =          FALSE

   => Exchange-Correlation Functionals <=

    1.0000   wB97X-V range-separated functional

   => Exact (HF) Exchange <=

    0.8330            HF,LR [omega = 0.3000]
    0.1670               HF 

   => VV10 Non-Local Parameters <=

    VV10 B              =     6.0000E+00
    VV10 C              =     1.0000E-02

   => Molecular Quadrature <=

    Radial Scheme          =       TREUTLER
    Pruning Scheme         =           FLAT
    Nuclear Scheme         =       TREUTLER

    BS radius alpha        =              1
    Pruning alpha          =              1
    Radial Points          =             75
    Spherical Points       =            302
    Total Points           =          66207
    Total Blocks           =            556
    Max Points             =            255
    Max Functions          =            149

   => Loading Basis Set <=

    Name: (CC-PV(Q+D)Z AUX)
    Role: JKFIT
    Keyword: DF_BASIS_SCF
    atoms 1 entry O          line   253 file /work/zw18965/.conda/envs/p4env/share/psi4/basis/cc-pvqz-jkfit.gbs 
    atoms 2 entry H          line    51 file /work/zw18965/.conda/envs/p4env/share/psi4/basis/cc-pvqz-jkfit.gbs 
    atoms 3 entry CL         line   755 file /work/zw18965/.conda/envs/p4env/share/psi4/basis/cc-pvqz-jkfit.gbs 

  ==> Pre-Iterations <==

   -------------------------------------------------------
    Irrep   Nso     Nmo     Nalpha   Nbeta   Ndocc  Nsocc
   -------------------------------------------------------
     A'        96      96       0       0       0       0
     A"        53      53       0       0       0       0
   -------------------------------------------------------
    Total     149     149      13      13      13       0
   -------------------------------------------------------

  ==> Integral Setup <==

  ==> DiskDFJK: Density-Fitted J/K Matrices <==

    J tasked:                  Yes
    K tasked:                  Yes
    wK tasked:                 Yes
    Omega:               3.000E-01
    OpenMP threads:             24
    Integrals threads:          24
    Memory [MiB]:           102749
    Algorithm:                Core
    Integral Cache:           NONE
    Schwarz Cutoff:          1E-12
    Fitting Condition:       1E-10

   => Auxiliary Basis Set <=

  Basis Set: (CC-PV(Q+D)Z AUX)
    Blend: CC-PVQZ-JKFIT
    Number of shells: 81
    Number of basis function: 305
    Number of Cartesian functions: 399
    Spherical Harmonics?: true
    Max angular momentum: 5

  Cached 100.0% of DFT collocation blocks in 0.241 [GiB].

  Minimum eigenvalue in the overlap matrix is 5.2444762240E-04.
  Using Symmetric Orthogonalization.

  SCF Guess: Superposition of Atomic Densities via on-the-fly atomic UHF.

  ==> Iterations <==

                           Total Energy        Delta E     RMS |[F,P]|

   @DF-RKS iter SAD:  -535.55457782236749   -5.35555e+02   0.00000e+00 
   @DF-RKS iter   1:  -535.85900341975844   -3.04426e-01   3.97260e-03 DIIS
   @DF-RKS iter   2:  -535.86140081177416   -2.39739e-03   4.02487e-03 DIIS
   @DF-RKS iter   3:  -535.92314850179241   -6.17477e-02   6.13113e-04 DIIS
   @DF-RKS iter   4:  -535.92461884196166   -1.47034e-03   8.58860e-05 DIIS
   @DF-RKS iter   5:  -535.92467860552642   -5.97636e-05   2.07869e-05 DIIS
   @DF-RKS iter   6:  -535.92468249526144   -3.88974e-06   5.31789e-06 DIIS
   @DF-RKS iter   7:  -535.92468304024385   -5.44982e-07   2.09166e-06 DIIS
   @DF-RKS iter   8:  -535.92468316026168   -1.20018e-07   8.42675e-07 DIIS
   @DF-RKS iter   9:  -535.92468318448175   -2.42201e-08   2.74063e-07 DIIS
   @DF-RKS iter  10:  -535.92468318625617   -1.77442e-09   5.79022e-08 DIIS
   @DF-RKS iter  11:  -535.92468318630256   -4.63842e-11   1.62249e-08 DIIS
   @DF-RKS iter  12:  -535.92468318630654   -3.97904e-12   3.55958e-09 DIIS
  Energy and wave function converged.


  ==> Post-Iterations <==

    Orbital Energies [Eh]
    ---------------------

    Doubly Occupied:                                                      

       1Ap  -101.595187     2Ap   -19.285043     3Ap    -9.607167  
       4Ap    -7.367949     5Ap    -7.352637     1App   -7.352286  
       6Ap    -1.205117     7Ap    -0.927581     8Ap    -0.646940  
       9Ap    -0.555676     2App   -0.529463    10Ap    -0.427056  
       3App   -0.393106  

    Virtual:                                                              

      11Ap     0.017604    12Ap     0.109740    13Ap     0.301043  
      14Ap     0.313953     4App    0.317694    15Ap     0.356934  
      16Ap     0.379195     5App    0.398352    17Ap     0.411234  
      18Ap     0.423946     6App    0.445699    19Ap     0.496759  
       7App    0.559410    20Ap     0.578448     8App    0.645436  
      21Ap     0.696366    22Ap     0.798607    23Ap     0.885933  
      24Ap     1.031530    25Ap     1.187518     9App    1.222881  
      26Ap     1.238178    10App    1.242488    11App    1.260309  
      27Ap     1.262177    12App    1.294013    28Ap     1.341081  
      29Ap     1.384917    30Ap     1.402631    13App    1.415017  
      31Ap     1.453110    14App    1.502623    32Ap     1.511392  
      33Ap     1.528647    15App    1.540134    34Ap     1.658939  
      35Ap     1.763476    36Ap     1.863570    16App    1.873779  
      37Ap     1.981550    17App    2.141111    38Ap     2.253466  
      39Ap     2.287913    18App    2.291938    19App    2.469886  
      40Ap     2.501309    41Ap     2.650867    20App    2.747433  
      42Ap     2.773119    43Ap     2.941536    21App    3.070027  
      44Ap     3.125770    45Ap     3.144927    22App    3.251078  
      46Ap     3.265275    47Ap     3.300503    48Ap     3.357743  
      23App    3.390032    24App    3.446890    49Ap     3.447518  
      50Ap     3.495948    51Ap     3.668950    25App    3.672565  
      26App    3.688086    52Ap     3.689194    53Ap     3.696832  
      54Ap     3.788912    27App    3.856994    28App    3.962357  
      55Ap     4.000863    29App    4.014883    56Ap     4.048206  
      30App    4.087724    57Ap     4.099314    58Ap     4.172093  
      31App    4.188574    59Ap     4.225845    32App    4.228861  
      60Ap     4.433114    61Ap     4.500985    33App    4.548793  
      62Ap     4.654094    34App    4.888294    63Ap     4.892540  
      64Ap     5.133115    65Ap     5.596763    35App    5.626041  
      66Ap     5.686833    67Ap     5.893864    36App    5.946290  
      68Ap     6.375957    37App    6.624714    69Ap     6.732884  
      38App    7.098053    70Ap     7.196424    71Ap     7.245941  
      39App    7.779060    72Ap     7.860365    40App    7.897450  
      73Ap     7.940212    74Ap     8.226668    41App    8.512414  
      75Ap     8.590875    76Ap     8.654516    42App    9.063689  
      77Ap     9.080567    43App    9.198546    78Ap     9.228219  
      79Ap     9.498646    44App   10.000757    45App   10.201338  
      80Ap    10.236912    81Ap    10.599824    46App   10.687735  
      82Ap    10.690871    47App   10.745603    83Ap    10.785057  
      48App   10.848710    84Ap    10.870724    85Ap    10.964310  
      86Ap    11.185582    87Ap    11.222355    49App   11.241138  
      50App   11.522789    88Ap    11.528473    51App   11.805829  
      89Ap    11.839446    90Ap    12.138745    52App   12.261242  
      91Ap    12.452535    92Ap    13.706935    53App   13.899361  
      93Ap    13.943558    94Ap    16.035107    95Ap    22.650333  
      96Ap    41.821968  

    Final Occupation by Irrep:
             Ap   App 
    DOCC [    10,    3 ]

  @DF-RKS Final Energy:  -535.92468318630654

   => Energetics <=

    Nuclear Repulsion Energy =             51.1051118114069496
    One-Electron Energy =                -840.7795929183527051
    Two-Electron Energy =                 281.3135835722143270
    DFT Exchange-Correlation Energy =     -27.6725156258159082
    Empirical Dispersion Energy =           0.0000000000000000
    VV10 Nonlocal Energy =                  0.1087299742408441
    Total Energy =                       -535.9246831863065381

Computation Completed


Properties will be evaluated at   0.000000,   0.000000,   0.000000 [a0]

Properties computed using the SCF density matrix

  Nuclear Dipole Moment: [e a0]
     X:     1.5431      Y:     1.2496      Z:     0.0000

  Electronic Dipole Moment: [e a0]
     X:    -1.5572      Y:    -0.6369      Z:     0.0000

  Dipole Moment: [e a0]
     X:    -0.0141      Y:     0.6126      Z:     0.0000     Total:     0.6128

  Dipole Moment: [D]
     X:    -0.0359      Y:     1.5571      Z:     0.0000     Total:     1.5575


*** tstop() called on bp1-compute00067.data.bp.acrc.priv at Tue Apr 27 17:02:56 2021
Module time:
	user time   =      95.95 seconds =       1.60 minutes
	system time =       5.12 seconds =       0.09 minutes
	total time  =          4 seconds =       0.07 minutes
Total time:
	user time   =      95.95 seconds =       1.60 minutes
	system time =       5.12 seconds =       0.09 minutes
	total time  =          4 seconds =       0.07 minutes

  //>>>>>>>>>>>>>>>>>>>>>>>>>>>>>>>>>>>//
  //    Loading displacement 2 of 7    //
  //<<<<<<<<<<<<<<<<<<<<<<<<<<<<<<<<<<<//

*** tstart() called on bp1-compute00067.data.bp.acrc.priv
*** at Tue Apr 27 17:02:56 2021

   => Loading Basis Set <=

    Name: CC-PV(Q+D)Z
    Role: ORBITAL
    Keyword: BASIS
    atoms 1 entry O          line   349 file /work/zw18965/.conda/envs/p4env/share/psi4/basis/cc-pv_qpd_z.gbs 
    atoms 2 entry H          line    32 file /work/zw18965/.conda/envs/p4env/share/psi4/basis/cc-pv_qpd_z.gbs 
    atoms 3 entry CL         line  1066 file /work/zw18965/.conda/envs/p4env/share/psi4/basis/cc-pv_qpd_z.gbs 


         ---------------------------------------------------------
                                   SCF
               by Justin Turney, Rob Parrish, Andy Simmonett
                          and Daniel G. A. Smith
                              RKS Reference
                       24 Threads, 137329 MiB Core
         ---------------------------------------------------------

  ==> Geometry <==

    Molecular point group: cs
    Full point group: Cs

    Geometry (in Angstrom), charge = 0, multiplicity = 1:

       Center              X                  Y                   Z               Mass       
    ------------   -----------------  -----------------  -----------------  -----------------
         O            1.111703321963     0.230912175849     0.000000000000    15.994914619570
         H            1.112597436607     1.194811925849     0.000000000000     1.007825032230
         CL          -0.540564010961    -0.140055550279     0.000000000000    34.968852682000

  Running in cs symmetry.

  Rotational constants: A =     20.46704  B =      0.50491  C =      0.49275 [cm^-1]
  Rotational constants: A = 613586.42524  B =  15136.75480  C =  14772.33155 [MHz]
  Nuclear repulsion =   51.124932358011193

  Charge       = 0
  Multiplicity = 1
  Electrons    = 26
  Nalpha       = 13
  Nbeta        = 13

  ==> Algorithm <==

  SCF Algorithm Type is DF.
  DIIS enabled.
  MOM disabled.
  Fractional occupation disabled.
  Guess Type is SAD.
  Energy threshold   = 1.00e-08
  Density threshold  = 1.00e-08
  Integral threshold = 0.00e+00

  ==> Primary Basis <==

  Basis Set: CC-PV(Q+D)Z
    Blend: CC-PV(Q+D)Z
    Number of shells: 43
    Number of basis function: 149
    Number of Cartesian functions: 185
    Spherical Harmonics?: true
    Max angular momentum: 4

  ==> DFT Potential <==

   => Composite Functional: WB97X-V <= 

    wB97X-V Hyb-GGA Exchange-Correlation Functional

    N. Mardirossian and M. Head-Gordon, Phys. Chem. Chem. Phys. 16, 9904 (2014)

    Deriv               =              1
    GGA                 =           TRUE
    Meta                =          FALSE

    Exchange Hybrid     =           TRUE
    MP2 Hybrid          =          FALSE

   => Exchange-Correlation Functionals <=

    1.0000   wB97X-V range-separated functional

   => Exact (HF) Exchange <=

    0.8330            HF,LR [omega = 0.3000]
    0.1670               HF 

   => VV10 Non-Local Parameters <=

    VV10 B              =     6.0000E+00
    VV10 C              =     1.0000E-02

   => Molecular Quadrature <=

    Radial Scheme          =       TREUTLER
    Pruning Scheme         =           FLAT
    Nuclear Scheme         =       TREUTLER

    BS radius alpha        =              1
    Pruning alpha          =              1
    Radial Points          =             75
    Spherical Points       =            302
    Total Points           =          66207
    Total Blocks           =            556
    Max Points             =            255
    Max Functions          =            149

   => Loading Basis Set <=

    Name: (CC-PV(Q+D)Z AUX)
    Role: JKFIT
    Keyword: DF_BASIS_SCF
    atoms 1 entry O          line   253 file /work/zw18965/.conda/envs/p4env/share/psi4/basis/cc-pvqz-jkfit.gbs 
    atoms 2 entry H          line    51 file /work/zw18965/.conda/envs/p4env/share/psi4/basis/cc-pvqz-jkfit.gbs 
    atoms 3 entry CL         line   755 file /work/zw18965/.conda/envs/p4env/share/psi4/basis/cc-pvqz-jkfit.gbs 

  ==> Pre-Iterations <==

   -------------------------------------------------------
    Irrep   Nso     Nmo     Nalpha   Nbeta   Ndocc  Nsocc
   -------------------------------------------------------
     A'        96      96       0       0       0       0
     A"        53      53       0       0       0       0
   -------------------------------------------------------
    Total     149     149      13      13      13       0
   -------------------------------------------------------

  ==> Integral Setup <==

  ==> DiskDFJK: Density-Fitted J/K Matrices <==

    J tasked:                  Yes
    K tasked:                  Yes
    wK tasked:                 Yes
    Omega:               3.000E-01
    OpenMP threads:             24
    Integrals threads:          24
    Memory [MiB]:           102749
    Algorithm:                Core
    Integral Cache:           NONE
    Schwarz Cutoff:          1E-12
    Fitting Condition:       1E-10

   => Auxiliary Basis Set <=

  Basis Set: (CC-PV(Q+D)Z AUX)
    Blend: CC-PVQZ-JKFIT
    Number of shells: 81
    Number of basis function: 305
    Number of Cartesian functions: 399
    Spherical Harmonics?: true
    Max angular momentum: 5

  Cached 100.0% of DFT collocation blocks in 0.241 [GiB].

  Minimum eigenvalue in the overlap matrix is 5.2416985177E-04.
  Using Symmetric Orthogonalization.

  SCF Guess: Superposition of Atomic Densities via on-the-fly atomic UHF.

  ==> Iterations <==

                           Total Energy        Delta E     RMS |[F,P]|

   @DF-RKS iter SAD:  -535.55562813930555   -5.35556e+02   0.00000e+00 
   @DF-RKS iter   1:  -535.85901672622890   -3.03389e-01   3.97287e-03 DIIS
   @DF-RKS iter   2:  -535.86151103423981   -2.49431e-03   4.02252e-03 DIIS
   @DF-RKS iter   3:  -535.92316413245067   -6.16531e-02   6.13043e-04 DIIS
   @DF-RKS iter   4:  -535.92463380361244   -1.46967e-03   8.58785e-05 DIIS
   @DF-RKS iter   5:  -535.92469361741075   -5.98138e-05   2.07876e-05 DIIS
   @DF-RKS iter   6:  -535.92469751173167   -3.89432e-06   5.32089e-06 DIIS
   @DF-RKS iter   7:  -535.92469805721271   -5.45481e-07   2.09139e-06 DIIS
   @DF-RKS iter   8:  -535.92469817717949   -1.19967e-07   8.42134e-07 DIIS
   @DF-RKS iter   9:  -535.92469820133181   -2.41523e-08   2.73853e-07 DIIS
   @DF-RKS iter  10:  -535.92469820310112   -1.76931e-09   5.78855e-08 DIIS
   @DF-RKS iter  11:  -535.92469820314773   -4.66116e-11   1.62089e-08 DIIS
   @DF-RKS iter  12:  -535.92469820315250   -4.77485e-12   3.55374e-09 DIIS
  Energy and wave function converged.


  ==> Post-Iterations <==

    Orbital Energies [Eh]
    ---------------------

    Doubly Occupied:                                                      

       1Ap  -101.595150     2Ap   -19.284983     3Ap    -9.607136  
       4Ap    -7.367918     5Ap    -7.352606     1App   -7.352254  
       6Ap    -1.205301     7Ap    -0.927538     8Ap    -0.647072  
       9Ap    -0.555731     2App   -0.529578    10Ap    -0.426970  
       3App   -0.393004  

    Virtual:                                                              

      11Ap     0.017851    12Ap     0.109777    13Ap     0.301113  
      14Ap     0.313932     4App    0.317682    15Ap     0.356930  
      16Ap     0.379158     5App    0.398357    17Ap     0.411314  
      18Ap     0.423927     6App    0.445833    19Ap     0.496851  
       7App    0.559345    20Ap     0.578459     8App    0.645506  
      21Ap     0.696606    22Ap     0.798597    23Ap     0.885970  
      24Ap     1.031505    25Ap     1.187488     9App    1.222958  
      26Ap     1.238175    10App    1.242470    11App    1.260292  
      27Ap     1.262225    12App    1.294208    28Ap     1.341201  
      29Ap     1.384959    30Ap     1.402806    13App    1.415043  
      31Ap     1.453225    14App    1.502634    32Ap     1.511405  
      33Ap     1.528797    15App    1.540432    34Ap     1.658875  
      35Ap     1.763387    36Ap     1.863965    16App    1.873913  
      37Ap     1.982085    17App    2.141087    38Ap     2.253248  
      39Ap     2.288210    18App    2.292128    19App    2.470106  
      40Ap     2.501356    41Ap     2.650959    20App    2.747516  
      42Ap     2.773238    43Ap     2.941479    21App    3.070244  
      44Ap     3.126294    45Ap     3.145062    22App    3.250947  
      46Ap     3.265718    47Ap     3.300518    48Ap     3.357903  
      23App    3.390014    24App    3.446894    49Ap     3.447090  
      50Ap     3.496075    51Ap     3.669176    25App    3.672493  
      26App    3.688085    52Ap     3.689400    53Ap     3.697085  
      54Ap     3.789284    27App    3.857282    28App    3.962672  
      55Ap     4.000903    29App    4.014924    56Ap     4.048134  
      30App    4.088203    57Ap     4.099977    58Ap     4.172409  
      31App    4.189203    59Ap     4.226072    32App    4.229445  
      60Ap     4.433072    61Ap     4.501503    33App    4.548894  
      62Ap     4.653961    34App    4.889271    63Ap     4.893739  
      64Ap     5.133712    65Ap     5.597237    35App    5.625993  
      66Ap     5.686847    67Ap     5.894051    36App    5.946460  
      68Ap     6.378149    37App    6.624989    69Ap     6.733244  
      38App    7.098096    70Ap     7.196606    71Ap     7.246137  
      39App    7.779138    72Ap     7.860545    40App    7.897358  
      73Ap     7.940498    74Ap     8.226182    41App    8.512427  
      75Ap     8.590933    76Ap     8.654664    42App    9.063790  
      77Ap     9.080653    43App    9.199375    78Ap     9.228941  
      79Ap     9.498917    44App   10.001077    45App   10.201377  
      80Ap    10.237056    81Ap    10.600357    46App   10.687763  
      82Ap    10.690946    47App   10.745840    83Ap    10.785603  
      48App   10.848756    84Ap    10.871059    85Ap    10.964521  
      86Ap    11.185848    87Ap    11.222394    49App   11.241347  
      50App   11.523932    88Ap    11.528205    51App   11.805908  
      89Ap    11.840957    90Ap    12.139457    52App   12.261347  
      91Ap    12.453218    92Ap    13.707494    53App   13.899359  
      93Ap    13.943712    94Ap    16.035105    95Ap    22.651959  
      96Ap    41.824689  

    Final Occupation by Irrep:
             Ap   App 
    DOCC [    10,    3 ]

  @DF-RKS Final Energy:  -535.92469820315250

   => Energetics <=

    Nuclear Repulsion Energy =             51.1249323580111934
    One-Electron Energy =                -840.8190345513642114
    Two-Electron Energy =                 281.3334540148135261
    DFT Exchange-Correlation Energy =     -27.6727788647547648
    Empirical Dispersion Energy =           0.0000000000000000
    VV10 Nonlocal Energy =                  0.1087288401417340
    Total Energy =                       -535.9246982031526159

Computation Completed


Properties will be evaluated at   0.000000,   0.000000,   0.000000 [a0]

Properties computed using the SCF density matrix

  Nuclear Dipole Moment: [e a0]
     X:     1.5432      Y:     1.2494      Z:     0.0000

  Electronic Dipole Moment: [e a0]
     X:    -1.5567      Y:    -0.6366      Z:     0.0000

  Dipole Moment: [e a0]
     X:    -0.0135      Y:     0.6128      Z:     0.0000     Total:     0.6129

  Dipole Moment: [D]
     X:    -0.0342      Y:     1.5575      Z:     0.0000     Total:     1.5579


*** tstop() called on bp1-compute00067.data.bp.acrc.priv at Tue Apr 27 17:03:01 2021
Module time:
	user time   =      94.92 seconds =       1.58 minutes
	system time =       2.84 seconds =       0.05 minutes
	total time  =          5 seconds =       0.08 minutes
Total time:
	user time   =     191.04 seconds =       3.18 minutes
	system time =       7.98 seconds =       0.13 minutes
	total time  =          9 seconds =       0.15 minutes

  //>>>>>>>>>>>>>>>>>>>>>>>>>>>>>>>>>>>//
  //    Loading displacement 3 of 7    //
  //<<<<<<<<<<<<<<<<<<<<<<<<<<<<<<<<<<<//

*** tstart() called on bp1-compute00067.data.bp.acrc.priv
*** at Tue Apr 27 17:03:01 2021

   => Loading Basis Set <=

    Name: CC-PV(Q+D)Z
    Role: ORBITAL
    Keyword: BASIS
    atoms 1 entry O          line   349 file /work/zw18965/.conda/envs/p4env/share/psi4/basis/cc-pv_qpd_z.gbs 
    atoms 2 entry H          line    32 file /work/zw18965/.conda/envs/p4env/share/psi4/basis/cc-pv_qpd_z.gbs 
    atoms 3 entry CL         line  1066 file /work/zw18965/.conda/envs/p4env/share/psi4/basis/cc-pv_qpd_z.gbs 


         ---------------------------------------------------------
                                   SCF
               by Justin Turney, Rob Parrish, Andy Simmonett
                          and Daniel G. A. Smith
                              RKS Reference
                       24 Threads, 137329 MiB Core
         ---------------------------------------------------------

  ==> Geometry <==

    Molecular point group: cs
    Full point group: Cs

    Geometry (in Angstrom), charge = 0, multiplicity = 1:

       Center              X                  Y                   Z               Mass       
    ------------   -----------------  -----------------  -----------------  -----------------
         O            1.112784191814     0.231106588601     0.000000000000    15.994914619570
         H            1.111890077169     1.195006338601     0.000000000000     1.007825032230
         CL          -0.541038019262    -0.140150078671     0.000000000000    34.968852682000

  Running in cs symmetry.

  Rotational constants: A =     20.44629  B =      0.50405  C =      0.49192 [cm^-1]
  Rotational constants: A = 612964.21034  B =  15111.04952  C =  14747.48828 [MHz]
  Nuclear repulsion =   51.085305923245024

  Charge       = 0
  Multiplicity = 1
  Electrons    = 26
  Nalpha       = 13
  Nbeta        = 13

  ==> Algorithm <==

  SCF Algorithm Type is DF.
  DIIS enabled.
  MOM disabled.
  Fractional occupation disabled.
  Guess Type is SAD.
  Energy threshold   = 1.00e-08
  Density threshold  = 1.00e-08
  Integral threshold = 0.00e+00

  ==> Primary Basis <==

  Basis Set: CC-PV(Q+D)Z
    Blend: CC-PV(Q+D)Z
    Number of shells: 43
    Number of basis function: 149
    Number of Cartesian functions: 185
    Spherical Harmonics?: true
    Max angular momentum: 4

  ==> DFT Potential <==

   => Composite Functional: WB97X-V <= 

    wB97X-V Hyb-GGA Exchange-Correlation Functional

    N. Mardirossian and M. Head-Gordon, Phys. Chem. Chem. Phys. 16, 9904 (2014)

    Deriv               =              1
    GGA                 =           TRUE
    Meta                =          FALSE

    Exchange Hybrid     =           TRUE
    MP2 Hybrid          =          FALSE

   => Exchange-Correlation Functionals <=

    1.0000   wB97X-V range-separated functional

   => Exact (HF) Exchange <=

    0.8330            HF,LR [omega = 0.3000]
    0.1670               HF 

   => VV10 Non-Local Parameters <=

    VV10 B              =     6.0000E+00
    VV10 C              =     1.0000E-02

   => Molecular Quadrature <=

    Radial Scheme          =       TREUTLER
    Pruning Scheme         =           FLAT
    Nuclear Scheme         =       TREUTLER

    BS radius alpha        =              1
    Pruning alpha          =              1
    Radial Points          =             75
    Spherical Points       =            302
    Total Points           =          66207
    Total Blocks           =            554
    Max Points             =            256
    Max Functions          =            149

   => Loading Basis Set <=

    Name: (CC-PV(Q+D)Z AUX)
    Role: JKFIT
    Keyword: DF_BASIS_SCF
    atoms 1 entry O          line   253 file /work/zw18965/.conda/envs/p4env/share/psi4/basis/cc-pvqz-jkfit.gbs 
    atoms 2 entry H          line    51 file /work/zw18965/.conda/envs/p4env/share/psi4/basis/cc-pvqz-jkfit.gbs 
    atoms 3 entry CL         line   755 file /work/zw18965/.conda/envs/p4env/share/psi4/basis/cc-pvqz-jkfit.gbs 

  ==> Pre-Iterations <==

   -------------------------------------------------------
    Irrep   Nso     Nmo     Nalpha   Nbeta   Ndocc  Nsocc
   -------------------------------------------------------
     A'        96      96       0       0       0       0
     A"        53      53       0       0       0       0
   -------------------------------------------------------
    Total     149     149      13      13      13       0
   -------------------------------------------------------

  ==> Integral Setup <==

  ==> DiskDFJK: Density-Fitted J/K Matrices <==

    J tasked:                  Yes
    K tasked:                  Yes
    wK tasked:                 Yes
    Omega:               3.000E-01
    OpenMP threads:             24
    Integrals threads:          24
    Memory [MiB]:           102749
    Algorithm:                Core
    Integral Cache:           NONE
    Schwarz Cutoff:          1E-12
    Fitting Condition:       1E-10

   => Auxiliary Basis Set <=

  Basis Set: (CC-PV(Q+D)Z AUX)
    Blend: CC-PVQZ-JKFIT
    Number of shells: 81
    Number of basis function: 305
    Number of Cartesian functions: 399
    Spherical Harmonics?: true
    Max angular momentum: 5

  Cached 100.0% of DFT collocation blocks in 0.241 [GiB].

  Minimum eigenvalue in the overlap matrix is 5.2472652748E-04.
  Using Symmetric Orthogonalization.

  SCF Guess: Superposition of Atomic Densities via on-the-fly atomic UHF.

  ==> Iterations <==

                           Total Energy        Delta E     RMS |[F,P]|

   @DF-RKS iter SAD:  -535.55353644733168   -5.35554e+02   0.00000e+00 
   @DF-RKS iter   1:  -535.85898967119647   -3.05453e-01   3.97231e-03 DIIS
   @DF-RKS iter   2:  -535.86129034447106   -2.30067e-03   4.02720e-03 DIIS
   @DF-RKS iter   3:  -535.92313227270586   -6.18419e-02   6.13181e-04 DIIS
   @DF-RKS iter   4:  -535.92460328083428   -1.47101e-03   8.58949e-05 DIIS
   @DF-RKS iter   5:  -535.92466299655962   -5.97157e-05   2.07862e-05 DIIS
   @DF-RKS iter   6:  -535.92466688190484   -3.88535e-06   5.31511e-06 DIIS
   @DF-RKS iter   7:  -535.92466742646957   -5.44565e-07   2.09206e-06 DIIS
   @DF-RKS iter   8:  -535.92466754656311   -1.20094e-07   8.43278e-07 DIIS
   @DF-RKS iter   9:  -535.92466757085469   -2.42916e-08   2.74275e-07 DIIS
   @DF-RKS iter  10:  -535.92466757263435   -1.77965e-09   5.79189e-08 DIIS
   @DF-RKS iter  11:  -535.92466757268062   -4.62705e-11   1.62404e-08 DIIS
   @DF-RKS iter  12:  -535.92466757268517   -4.54747e-12   3.56533e-09 DIIS
  Energy and wave function converged.


  ==> Post-Iterations <==

    Orbital Energies [Eh]
    ---------------------

    Doubly Occupied:                                                      

       1Ap  -101.595225     2Ap   -19.285102     3Ap    -9.607197  
       4Ap    -7.367980     5Ap    -7.352668     1App   -7.352317  
       6Ap    -1.204934     7Ap    -0.927624     8Ap    -0.646808  
       9Ap    -0.555622     2App   -0.529349    10Ap    -0.427142  
       3App   -0.393207  

    Virtual:                                                              

      11Ap     0.017356    12Ap     0.109703    13Ap     0.300973  
      14Ap     0.313974     4App    0.317706    15Ap     0.356938  
      16Ap     0.379232     5App    0.398347    17Ap     0.411154  
      18Ap     0.423965     6App    0.445566    19Ap     0.496666  
       7App    0.559475    20Ap     0.578438     8App    0.645366  
      21Ap     0.696125    22Ap     0.798617    23Ap     0.885896  
      24Ap     1.031555    25Ap     1.187548     9App    1.222802  
      26Ap     1.238181    10App    1.242505    11App    1.260325  
      27Ap     1.262129    12App    1.293821    28Ap     1.340961  
      29Ap     1.384869    30Ap     1.402460    13App    1.414990  
      31Ap     1.452997    14App    1.502611    32Ap     1.511378  
      33Ap     1.528497    15App    1.539837    34Ap     1.659001  
      35Ap     1.763566    36Ap     1.863174    16App    1.873644  
      37Ap     1.981014    17App    2.141135    38Ap     2.253683  
      39Ap     2.287618    18App    2.291749    19App    2.469667  
      40Ap     2.501262    41Ap     2.650773    20App    2.747351  
      42Ap     2.773000    43Ap     2.941594    21App    3.069811  
      44Ap     3.125242    45Ap     3.144792    22App    3.251209  
      46Ap     3.264832    47Ap     3.300488    48Ap     3.357584  
      23App    3.390051    24App    3.446886    49Ap     3.447944  
      50Ap     3.495823    51Ap     3.668720    25App    3.672637  
      26App    3.688087    52Ap     3.688988    53Ap     3.696584  
      54Ap     3.788545    27App    3.856705    28App    3.962042  
      55Ap     4.000823    29App    4.014842    56Ap     4.048278  
      30App    4.087244    57Ap     4.098644    58Ap     4.171776  
      31App    4.187945    59Ap     4.225625    32App    4.228277  
      60Ap     4.433149    61Ap     4.500476    33App    4.548692  
      62Ap     4.654227    34App    4.887318    63Ap     4.891343  
      64Ap     5.132519    65Ap     5.596275    35App    5.626089  
      66Ap     5.686817    67Ap     5.893680    36App    5.946121  
      68Ap     6.373780    37App    6.624438    69Ap     6.732522  
      38App    7.098011    70Ap     7.196242    71Ap     7.245745  
      39App    7.778983    72Ap     7.860183    40App    7.897542  
      73Ap     7.939926    74Ap     8.227155    41App    8.512399  
      75Ap     8.590815    76Ap     8.654366    42App    9.063588  
      77Ap     9.080479    43App    9.197719    78Ap     9.227498  
      79Ap     9.498380    44App   10.000437    45App   10.201295  
      80Ap    10.236766    81Ap    10.599287    46App   10.687708  
      82Ap    10.690795    47App   10.745365    83Ap    10.784512  
      48App   10.848664    84Ap    10.870391    85Ap    10.964101  
      86Ap    11.185305    87Ap    11.222314    49App   11.240928  
      50App   11.521646    88Ap    11.528740    51App   11.805747  
      89Ap    11.837936    90Ap    12.138032    52App   12.261135  
      91Ap    12.451854    92Ap    13.706371    53App   13.899357  
      93Ap    13.943399    94Ap    16.035103    95Ap    22.648710  
      96Ap    41.819246  

    Final Occupation by Irrep:
             Ap   App 
    DOCC [    10,    3 ]

  @DF-RKS Final Energy:  -535.92466757268517

   => Energetics <=

    Nuclear Repulsion Energy =             51.0853059232450235
    One-Electron Energy =                -840.7401795284974924
    Two-Electron Energy =                 281.2937274458935804
    DFT Exchange-Correlation Energy =     -27.6722525210038626
    Empirical Dispersion Energy =           0.0000000000000000
    VV10 Nonlocal Energy =                  0.1087311076775912
    Total Energy =                       -535.9246675726850526

Computation Completed


Properties will be evaluated at   0.000000,   0.000000,   0.000000 [a0]

Properties computed using the SCF density matrix

  Nuclear Dipole Moment: [e a0]
     X:     1.5430      Y:     1.2497      Z:     0.0000

  Electronic Dipole Moment: [e a0]
     X:    -1.5578      Y:    -0.6372      Z:     0.0000

  Dipole Moment: [e a0]
     X:    -0.0148      Y:     0.6124      Z:     0.0000     Total:     0.6126

  Dipole Moment: [D]
     X:    -0.0376      Y:     1.5567      Z:     0.0000     Total:     1.5571


*** tstop() called on bp1-compute00067.data.bp.acrc.priv at Tue Apr 27 17:03:05 2021
Module time:
	user time   =      94.81 seconds =       1.58 minutes
	system time =       2.62 seconds =       0.04 minutes
	total time  =          4 seconds =       0.07 minutes
Total time:
	user time   =     285.99 seconds =       4.77 minutes
	system time =      10.61 seconds =       0.18 minutes
	total time  =         13 seconds =       0.22 minutes

  //>>>>>>>>>>>>>>>>>>>>>>>>>>>>>>>>>>>//
  //    Loading displacement 4 of 7    //
  //<<<<<<<<<<<<<<<<<<<<<<<<<<<<<<<<<<<//

*** tstart() called on bp1-compute00067.data.bp.acrc.priv
*** at Tue Apr 27 17:03:05 2021

   => Loading Basis Set <=

    Name: CC-PV(Q+D)Z
    Role: ORBITAL
    Keyword: BASIS
    atoms 1 entry O          line   349 file /work/zw18965/.conda/envs/p4env/share/psi4/basis/cc-pv_qpd_z.gbs 
    atoms 2 entry H          line    32 file /work/zw18965/.conda/envs/p4env/share/psi4/basis/cc-pv_qpd_z.gbs 
    atoms 3 entry CL         line  1066 file /work/zw18965/.conda/envs/p4env/share/psi4/basis/cc-pv_qpd_z.gbs 


         ---------------------------------------------------------
                                   SCF
               by Justin Turney, Rob Parrish, Andy Simmonett
                          and Daniel G. A. Smith
                              RKS Reference
                       24 Threads, 137329 MiB Core
         ---------------------------------------------------------

  ==> Geometry <==

    Molecular point group: cs
    Full point group: Cs

    Geometry (in Angstrom), charge = 0, multiplicity = 1:

       Center              X                  Y                   Z               Mass       
    ------------   -----------------  -----------------  -----------------  -----------------
         O            1.112243756888     0.230807894878     0.000000000000    15.994914619570
         H            1.110724487436     1.196879908696     0.000000000000     1.007825032230
         CL          -0.540757228780    -0.140067452289     0.000000000000    34.968852682000

  Running in cs symmetry.

  Rotational constants: A =     20.34748  B =      0.50458  C =      0.49237 [cm^-1]
  Rotational constants: A = 610002.12483  B =  15126.86654  C =  14760.82674 [MHz]
  Nuclear repulsion =   51.097599763107823

  Charge       = 0
  Multiplicity = 1
  Electrons    = 26
  Nalpha       = 13
  Nbeta        = 13

  ==> Algorithm <==

  SCF Algorithm Type is DF.
  DIIS enabled.
  MOM disabled.
  Fractional occupation disabled.
  Guess Type is SAD.
  Energy threshold   = 1.00e-08
  Density threshold  = 1.00e-08
  Integral threshold = 0.00e+00

  ==> Primary Basis <==

  Basis Set: CC-PV(Q+D)Z
    Blend: CC-PV(Q+D)Z
    Number of shells: 43
    Number of basis function: 149
    Number of Cartesian functions: 185
    Spherical Harmonics?: true
    Max angular momentum: 4

  ==> DFT Potential <==

   => Composite Functional: WB97X-V <= 

    wB97X-V Hyb-GGA Exchange-Correlation Functional

    N. Mardirossian and M. Head-Gordon, Phys. Chem. Chem. Phys. 16, 9904 (2014)

    Deriv               =              1
    GGA                 =           TRUE
    Meta                =          FALSE

    Exchange Hybrid     =           TRUE
    MP2 Hybrid          =          FALSE

   => Exchange-Correlation Functionals <=

    1.0000   wB97X-V range-separated functional

   => Exact (HF) Exchange <=

    0.8330            HF,LR [omega = 0.3000]
    0.1670               HF 

   => VV10 Non-Local Parameters <=

    VV10 B              =     6.0000E+00
    VV10 C              =     1.0000E-02

   => Molecular Quadrature <=

    Radial Scheme          =       TREUTLER
    Pruning Scheme         =           FLAT
    Nuclear Scheme         =       TREUTLER

    BS radius alpha        =              1
    Pruning alpha          =              1
    Radial Points          =             75
    Spherical Points       =            302
    Total Points           =          66207
    Total Blocks           =            554
    Max Points             =            256
    Max Functions          =            149

   => Loading Basis Set <=

    Name: (CC-PV(Q+D)Z AUX)
    Role: JKFIT
    Keyword: DF_BASIS_SCF
    atoms 1 entry O          line   253 file /work/zw18965/.conda/envs/p4env/share/psi4/basis/cc-pvqz-jkfit.gbs 
    atoms 2 entry H          line    51 file /work/zw18965/.conda/envs/p4env/share/psi4/basis/cc-pvqz-jkfit.gbs 
    atoms 3 entry CL         line   755 file /work/zw18965/.conda/envs/p4env/share/psi4/basis/cc-pvqz-jkfit.gbs 

  ==> Pre-Iterations <==

   -------------------------------------------------------
    Irrep   Nso     Nmo     Nalpha   Nbeta   Ndocc  Nsocc
   -------------------------------------------------------
     A'        96      96       0       0       0       0
     A"        53      53       0       0       0       0
   -------------------------------------------------------
    Total     149     149      13      13      13       0
   -------------------------------------------------------

  ==> Integral Setup <==

  ==> DiskDFJK: Density-Fitted J/K Matrices <==

    J tasked:                  Yes
    K tasked:                  Yes
    wK tasked:                 Yes
    Omega:               3.000E-01
    OpenMP threads:             24
    Integrals threads:          24
    Memory [MiB]:           102749
    Algorithm:                Core
    Integral Cache:           NONE
    Schwarz Cutoff:          1E-12
    Fitting Condition:       1E-10

   => Auxiliary Basis Set <=

  Basis Set: (CC-PV(Q+D)Z AUX)
    Blend: CC-PVQZ-JKFIT
    Number of shells: 81
    Number of basis function: 305
    Number of Cartesian functions: 399
    Spherical Harmonics?: true
    Max angular momentum: 5

  Cached 100.0% of DFT collocation blocks in 0.241 [GiB].

  Minimum eigenvalue in the overlap matrix is 5.2847950090E-04.
  Using Symmetric Orthogonalization.

  SCF Guess: Superposition of Atomic Densities via on-the-fly atomic UHF.

  ==> Iterations <==

                           Total Energy        Delta E     RMS |[F,P]|

   @DF-RKS iter SAD:  -535.55390566350320   -5.35554e+02   0.00000e+00 
   @DF-RKS iter   1:  -535.85907069859729   -3.05165e-01   3.96842e-03 DIIS
   @DF-RKS iter   2:  -535.86146883044819   -2.39813e-03   4.02212e-03 DIIS
   @DF-RKS iter   3:  -535.92314091525441   -6.16721e-02   6.13769e-04 DIIS
   @DF-RKS iter   4:  -535.92461437715428   -1.47346e-03   8.59377e-05 DIIS
   @DF-RKS iter   5:  -535.92467423215351   -5.98550e-05   2.07942e-05 DIIS
   @DF-RKS iter   6:  -535.92467812064422   -3.88849e-06   5.30569e-06 DIIS
   @DF-RKS iter   7:  -535.92467866215395   -5.41510e-07   2.08202e-06 DIIS
   @DF-RKS iter   8:  -535.92467878096068   -1.18807e-07   8.40491e-07 DIIS
   @DF-RKS iter   9:  -535.92467880501374   -2.40531e-08   2.74126e-07 DIIS
   @DF-RKS iter  10:  -535.92467880679237   -1.77863e-09   5.80129e-08 DIIS
   @DF-RKS iter  11:  -535.92467880683853   -4.61569e-11   1.63016e-08 DIIS
   @DF-RKS iter  12:  -535.92467880684342   -4.88853e-12   3.57736e-09 DIIS
  Energy and wave function converged.


  ==> Post-Iterations <==

    Orbital Energies [Eh]
    ---------------------

    Doubly Occupied:                                                      

       1Ap  -101.595111     2Ap   -19.285240     3Ap    -9.607098  
       4Ap    -7.367877     5Ap    -7.352570     1App   -7.352219  
       6Ap    -1.204797     7Ap    -0.927306     8Ap    -0.646598  
       9Ap    -0.555704     2App   -0.529431    10Ap    -0.426988  
       3App   -0.393036  

    Virtual:                                                              

      11Ap     0.017651    12Ap     0.109451    13Ap     0.300982  
      14Ap     0.313955     4App    0.317698    15Ap     0.356771  
      16Ap     0.378911     5App    0.398312    17Ap     0.411261  
      18Ap     0.423657     6App    0.445749    19Ap     0.496356  
       7App    0.559314    20Ap     0.578446     8App    0.645234  
      21Ap     0.696402    22Ap     0.798675    23Ap     0.885984  
      24Ap     1.030414    25Ap     1.187788     9App    1.222942  
      26Ap     1.238193    10App    1.242518    11App    1.260525  
      27Ap     1.262170    12App    1.293772    28Ap     1.340787  
      29Ap     1.384902    30Ap     1.402467    13App    1.415000  
      31Ap     1.453196    14App    1.502653    32Ap     1.511495  
      33Ap     1.528642    15App    1.539963    34Ap     1.658756  
      35Ap     1.763487    36Ap     1.863489    16App    1.873935  
      37Ap     1.981376    17App    2.140474    38Ap     2.253383  
      39Ap     2.287791    18App    2.291411    19App    2.469213  
      40Ap     2.500200    41Ap     2.649447    20App    2.747066  
      42Ap     2.773149    43Ap     2.942307    21App    3.070013  
      44Ap     3.123171    45Ap     3.145039    22App    3.250770  
      46Ap     3.265691    47Ap     3.300014    48Ap     3.357179  
      23App    3.389505    24App    3.446957    49Ap     3.447920  
      50Ap     3.495915    51Ap     3.669021    25App    3.672795  
      26App    3.688214    52Ap     3.689207    53Ap     3.696761  
      54Ap     3.789394    27App    3.857270    28App    3.962269  
      55Ap     4.000918    29App    4.015027    56Ap     4.048238  
      30App    4.088086    57Ap     4.099217    58Ap     4.171725  
      31App    4.188581    59Ap     4.224900    32App    4.228865  
      60Ap     4.433387    61Ap     4.498364    33App    4.543226  
      62Ap     4.654610    34App    4.888756    63Ap     4.889982  
      64Ap     5.130194    65Ap     5.596590    35App    5.626038  
      66Ap     5.687094    67Ap     5.894391    36App    5.945375  
      68Ap     6.375066    37App    6.618660    69Ap     6.727474  
      38App    7.096846    70Ap     7.191755    71Ap     7.242070  
      39App    7.782045    72Ap     7.856830    40App    7.899105  
      73Ap     7.936770    74Ap     8.229466    41App    8.505674  
      75Ap     8.586623    76Ap     8.646398    42App    9.063317  
      77Ap     9.080491    43App    9.196600    78Ap     9.226747  
      79Ap     9.509367    44App    9.998224    45App   10.191375  
      80Ap    10.227243    81Ap    10.600130    46App   10.687798  
      82Ap    10.690907    47App   10.745542    83Ap    10.784640  
      48App   10.848774    84Ap    10.868309    85Ap    10.963683  
      86Ap    11.184819    87Ap    11.213278    49App   11.241555  
      50App   11.522053    88Ap    11.526323    51App   11.798263  
      89Ap    11.833794    90Ap    12.136415    52App   12.260093  
      91Ap    12.451684    92Ap    13.690301    53App   13.882820  
      93Ap    13.926839    94Ap    16.021597    95Ap    22.650283  
      96Ap    41.807960  

    Final Occupation by Irrep:
             Ap   App 
    DOCC [    10,    3 ]

  @DF-RKS Final Energy:  -535.92467880684342

   => Energetics <=

    Nuclear Repulsion Energy =             51.0975997631078229
    One-Electron Energy =                -840.7675017580093026
    Two-Electron Energy =                 281.3082858731150964
    DFT Exchange-Correlation Energy =     -27.6717904330278976
    Empirical Dispersion Energy =           0.0000000000000000
    VV10 Nonlocal Energy =                  0.1087277479708438
    Total Energy =                       -535.9246788068434171

Computation Completed


Properties will be evaluated at   0.000000,   0.000000,   0.000000 [a0]

Properties computed using the SCF density matrix

  Nuclear Dipole Moment: [e a0]
     X:     1.5416      Y:     1.2514      Z:     0.0000

  Electronic Dipole Moment: [e a0]
     X:    -1.5558      Y:    -0.6378      Z:     0.0000

  Dipole Moment: [e a0]
     X:    -0.0142      Y:     0.6136      Z:     0.0000     Total:     0.6138

  Dipole Moment: [D]
     X:    -0.0361      Y:     1.5596      Z:     0.0000     Total:     1.5600


*** tstop() called on bp1-compute00067.data.bp.acrc.priv at Tue Apr 27 17:03:09 2021
Module time:
	user time   =      93.46 seconds =       1.56 minutes
	system time =       2.78 seconds =       0.05 minutes
	total time  =          4 seconds =       0.07 minutes
Total time:
	user time   =     379.58 seconds =       6.33 minutes
	system time =      13.40 seconds =       0.22 minutes
	total time  =         17 seconds =       0.28 minutes

  //>>>>>>>>>>>>>>>>>>>>>>>>>>>>>>>>>>>//
  //    Loading displacement 5 of 7    //
  //<<<<<<<<<<<<<<<<<<<<<<<<<<<<<<<<<<<//

*** tstart() called on bp1-compute00067.data.bp.acrc.priv
*** at Tue Apr 27 17:03:09 2021

   => Loading Basis Set <=

    Name: CC-PV(Q+D)Z
    Role: ORBITAL
    Keyword: BASIS
    atoms 1 entry O          line   349 file /work/zw18965/.conda/envs/p4env/share/psi4/basis/cc-pv_qpd_z.gbs 
    atoms 2 entry H          line    32 file /work/zw18965/.conda/envs/p4env/share/psi4/basis/cc-pv_qpd_z.gbs 
    atoms 3 entry CL         line  1066 file /work/zw18965/.conda/envs/p4env/share/psi4/basis/cc-pv_qpd_z.gbs 


         ---------------------------------------------------------
                                   SCF
               by Justin Turney, Rob Parrish, Andy Simmonett
                          and Daniel G. A. Smith
                              RKS Reference
                       24 Threads, 137329 MiB Core
         ---------------------------------------------------------

  ==> Geometry <==

    Molecular point group: cs
    Full point group: Cs

    Geometry (in Angstrom), charge = 0, multiplicity = 1:

       Center              X                  Y                   Z               Mass       
    ------------   -----------------  -----------------  -----------------  -----------------
         O            1.112243756888     0.231210869573     0.000000000000    15.994914619570
         H            1.113763026341     1.192938355754     0.000000000000     1.007825032230
         CL          -0.540844801443    -0.140138176660     0.000000000000    34.968852682000

  Running in cs symmetry.

  Rotational constants: A =     20.56672  B =      0.50438  C =      0.49231 [cm^-1]
  Rotational constants: A = 616574.67125  B =  15120.92241  C =  14758.97230 [MHz]
  Nuclear repulsion =   51.112651295524337

  Charge       = 0
  Multiplicity = 1
  Electrons    = 26
  Nalpha       = 13
  Nbeta        = 13

  ==> Algorithm <==

  SCF Algorithm Type is DF.
  DIIS enabled.
  MOM disabled.
  Fractional occupation disabled.
  Guess Type is SAD.
  Energy threshold   = 1.00e-08
  Density threshold  = 1.00e-08
  Integral threshold = 0.00e+00

  ==> Primary Basis <==

  Basis Set: CC-PV(Q+D)Z
    Blend: CC-PV(Q+D)Z
    Number of shells: 43
    Number of basis function: 149
    Number of Cartesian functions: 185
    Spherical Harmonics?: true
    Max angular momentum: 4

  ==> DFT Potential <==

   => Composite Functional: WB97X-V <= 

    wB97X-V Hyb-GGA Exchange-Correlation Functional

    N. Mardirossian and M. Head-Gordon, Phys. Chem. Chem. Phys. 16, 9904 (2014)

    Deriv               =              1
    GGA                 =           TRUE
    Meta                =          FALSE

    Exchange Hybrid     =           TRUE
    MP2 Hybrid          =          FALSE

   => Exchange-Correlation Functionals <=

    1.0000   wB97X-V range-separated functional

   => Exact (HF) Exchange <=

    0.8330            HF,LR [omega = 0.3000]
    0.1670               HF 

   => VV10 Non-Local Parameters <=

    VV10 B              =     6.0000E+00
    VV10 C              =     1.0000E-02

   => Molecular Quadrature <=

    Radial Scheme          =       TREUTLER
    Pruning Scheme         =           FLAT
    Nuclear Scheme         =       TREUTLER

    BS radius alpha        =              1
    Pruning alpha          =              1
    Radial Points          =             75
    Spherical Points       =            302
    Total Points           =          66207
    Total Blocks           =            554
    Max Points             =            256
    Max Functions          =            149

   => Loading Basis Set <=

    Name: (CC-PV(Q+D)Z AUX)
    Role: JKFIT
    Keyword: DF_BASIS_SCF
    atoms 1 entry O          line   253 file /work/zw18965/.conda/envs/p4env/share/psi4/basis/cc-pvqz-jkfit.gbs 
    atoms 2 entry H          line    51 file /work/zw18965/.conda/envs/p4env/share/psi4/basis/cc-pvqz-jkfit.gbs 
    atoms 3 entry CL         line   755 file /work/zw18965/.conda/envs/p4env/share/psi4/basis/cc-pvqz-jkfit.gbs 

  ==> Pre-Iterations <==

   -------------------------------------------------------
    Irrep   Nso     Nmo     Nalpha   Nbeta   Ndocc  Nsocc
   -------------------------------------------------------
     A'        96      96       0       0       0       0
     A"        53      53       0       0       0       0
   -------------------------------------------------------
    Total     149     149      13      13      13       0
   -------------------------------------------------------

  ==> Integral Setup <==

  ==> DiskDFJK: Density-Fitted J/K Matrices <==

    J tasked:                  Yes
    K tasked:                  Yes
    wK tasked:                 Yes
    Omega:               3.000E-01
    OpenMP threads:             24
    Integrals threads:          24
    Memory [MiB]:           102749
    Algorithm:                Core
    Integral Cache:           NONE
    Schwarz Cutoff:          1E-12
    Fitting Condition:       1E-10

   => Auxiliary Basis Set <=

  Basis Set: (CC-PV(Q+D)Z AUX)
    Blend: CC-PVQZ-JKFIT
    Number of shells: 81
    Number of basis function: 305
    Number of Cartesian functions: 399
    Spherical Harmonics?: true
    Max angular momentum: 5

  Cached 100.0% of DFT collocation blocks in 0.241 [GiB].

  Minimum eigenvalue in the overlap matrix is 5.2039093247E-04.
  Using Symmetric Orthogonalization.

  SCF Guess: Superposition of Atomic Densities via on-the-fly atomic UHF.

  ==> Iterations <==

                           Total Energy        Delta E     RMS |[F,P]|

   @DF-RKS iter SAD:  -535.55525169098837   -5.35555e+02   0.00000e+00 
   @DF-RKS iter   1:  -535.85892425876625   -3.03673e-01   3.97683e-03 DIIS
   @DF-RKS iter   2:  -535.86132027398151   -2.39602e-03   4.02771e-03 DIIS
   @DF-RKS iter   3:  -535.92314660483055   -6.18263e-02   6.12460e-04 DIIS
   @DF-RKS iter   4:  -535.92461385722902   -1.46725e-03   8.58383e-05 DIIS
   @DF-RKS iter   5:  -535.92467353709287   -5.96799e-05   2.07807e-05 DIIS
   @DF-RKS iter   6:  -535.92467742907252   -3.89198e-06   5.33088e-06 DIIS
   @DF-RKS iter   7:  -535.92467797778500   -5.48712e-07   2.10163e-06 DIIS
   @DF-RKS iter   8:  -535.92467809907396   -1.21289e-07   8.44945e-07 DIIS
   @DF-RKS iter   9:  -535.92467812346479   -2.43908e-08   2.74004e-07 DIIS
   @DF-RKS iter  10:  -535.92467812523478   -1.76999e-09   5.77986e-08 DIIS
   @DF-RKS iter  11:  -535.92467812528014   -4.53610e-11   1.61526e-08 DIIS
   @DF-RKS iter  12:  -535.92467812528480   -4.66116e-12   3.54220e-09 DIIS
  Energy and wave function converged.


  ==> Post-Iterations <==

    Orbital Energies [Eh]
    ---------------------

    Doubly Occupied:                                                      

       1Ap  -101.595264     2Ap   -19.284843     3Ap    -9.607236  
       4Ap    -7.368022     5Ap    -7.352705     1App   -7.352354  
       6Ap    -1.205439     7Ap    -0.927858     8Ap    -0.647282  
       9Ap    -0.555649     2App   -0.529495    10Ap    -0.427123  
       3App   -0.393176  

    Virtual:                                                              

      11Ap     0.017557    12Ap     0.110026    13Ap     0.301102  
      14Ap     0.313951     4App    0.317690    15Ap     0.357088  
      16Ap     0.379482     5App    0.398391    17Ap     0.411208  
      18Ap     0.424241     6App    0.445649    19Ap     0.497168  
       7App    0.559505    20Ap     0.578451     8App    0.645639  
      21Ap     0.696329    22Ap     0.798534    23Ap     0.885883  
      24Ap     1.032648    25Ap     1.187247     9App    1.222819  
      26Ap     1.238164    10App    1.242457    11App    1.260091  
      27Ap     1.262183    12App    1.294253    28Ap     1.341379  
      29Ap     1.384924    30Ap     1.402798    13App    1.415033  
      31Ap     1.453026    14App    1.502593    32Ap     1.511288  
      33Ap     1.528653    15App    1.540304    34Ap     1.659121  
      35Ap     1.763465    36Ap     1.863650    16App    1.873622  
      37Ap     1.981726    17App    2.141749    38Ap     2.253548  
      39Ap     2.288037    18App    2.292463    19App    2.470566  
      40Ap     2.502417    41Ap     2.652260    20App    2.747796  
      42Ap     2.773107    43Ap     2.940744    21App    3.070042  
      44Ap     3.128305    45Ap     3.144859    22App    3.251381  
      46Ap     3.264861    47Ap     3.300983    48Ap     3.358326  
      23App    3.390557    24App    3.446822    49Ap     3.447111  
      50Ap     3.495990    51Ap     3.668875    25App    3.672330  
      26App    3.687958    52Ap     3.689173    53Ap     3.696920  
      54Ap     3.788428    27App    3.856714    28App    3.962446  
      55Ap     4.000808    29App    4.014740    56Ap     4.048170  
      30App    4.087360    57Ap     4.099398    58Ap     4.172485  
      31App    4.188567    59Ap     4.226762    32App    4.228858  
      60Ap     4.432842    61Ap     4.503622    33App    4.554388  
      62Ap     4.653580    34App    4.887829    63Ap     4.895154  
      64Ap     5.136076    65Ap     5.596941    35App    5.626045  
      66Ap     5.686572    67Ap     5.893341    36App    5.947219  
      68Ap     6.376828    37App    6.630796    69Ap     6.738331  
      38App    7.099227    70Ap     7.200800    71Ap     7.249996  
      39App    7.776070    72Ap     7.863592    40App    7.895783  
      73Ap     7.943919    74Ap     8.223914    41App    8.519149  
      75Ap     8.595134    76Ap     8.662670    42App    9.064051  
      77Ap     9.080640    43App    9.200527    78Ap     9.229664  
      79Ap     9.487950    44App   10.003355    45App   10.211317  
      80Ap    10.246589    81Ap    10.599545    46App   10.687671  
      82Ap    10.690833    47App   10.745665    83Ap    10.785450  
      48App   10.848570    84Ap    10.873113    85Ap    10.964886  
      86Ap    11.186131    87Ap    11.231602    49App   11.240718  
      50App   11.523501    88Ap    11.530801    51App   11.813524  
      89Ap    11.845112    90Ap    12.141167    52App   12.262409  
      91Ap    12.453402    92Ap    13.723628    53App   13.915926  
      93Ap    13.960317    94Ap    16.048416    95Ap    22.650395  
      96Ap    41.836132  

    Final Occupation by Irrep:
             Ap   App 
    DOCC [    10,    3 ]

  @DF-RKS Final Energy:  -535.92467812528480

   => Energetics <=

    Nuclear Repulsion Energy =             51.1126512955243371
    One-Electron Energy =                -840.7917130959395990
    Two-Electron Energy =                 281.3188949856757972
    DFT Exchange-Correlation Energy =     -27.6732435164263251
    Empirical Dispersion Energy =           0.0000000000000000
    VV10 Nonlocal Energy =                  0.1087322058810692
    Total Energy =                       -535.9246781252846858

Computation Completed


Properties will be evaluated at   0.000000,   0.000000,   0.000000 [a0]

Properties computed using the SCF density matrix

  Nuclear Dipole Moment: [e a0]
     X:     1.5446      Y:     1.2477      Z:     0.0000

  Electronic Dipole Moment: [e a0]
     X:    -1.5586      Y:    -0.6361      Z:     0.0000

  Dipole Moment: [e a0]
     X:    -0.0141      Y:     0.6116      Z:     0.0000     Total:     0.6118

  Dipole Moment: [D]
     X:    -0.0357      Y:     1.5546      Z:     0.0000     Total:     1.5550


*** tstop() called on bp1-compute00067.data.bp.acrc.priv at Tue Apr 27 17:03:13 2021
Module time:
	user time   =      95.14 seconds =       1.59 minutes
	system time =       3.53 seconds =       0.06 minutes
	total time  =          4 seconds =       0.07 minutes
Total time:
	user time   =     474.86 seconds =       7.91 minutes
	system time =      16.94 seconds =       0.28 minutes
	total time  =         21 seconds =       0.35 minutes

  //>>>>>>>>>>>>>>>>>>>>>>>>>>>>>>>>>>>//
  //    Loading displacement 6 of 7    //
  //<<<<<<<<<<<<<<<<<<<<<<<<<<<<<<<<<<<//

*** tstart() called on bp1-compute00067.data.bp.acrc.priv
*** at Tue Apr 27 17:03:13 2021

   => Loading Basis Set <=

    Name: CC-PV(Q+D)Z
    Role: ORBITAL
    Keyword: BASIS
    atoms 1 entry O          line   349 file /work/zw18965/.conda/envs/p4env/share/psi4/basis/cc-pv_qpd_z.gbs 
    atoms 2 entry H          line    32 file /work/zw18965/.conda/envs/p4env/share/psi4/basis/cc-pv_qpd_z.gbs 
    atoms 3 entry CL         line  1066 file /work/zw18965/.conda/envs/p4env/share/psi4/basis/cc-pv_qpd_z.gbs 


         ---------------------------------------------------------
                                   SCF
               by Justin Turney, Rob Parrish, Andy Simmonett
                          and Daniel G. A. Smith
                              RKS Reference
                       24 Threads, 137329 MiB Core
         ---------------------------------------------------------

  ==> Geometry <==

    Molecular point group: cs
    Full point group: Cs

    Geometry (in Angstrom), charge = 0, multiplicity = 1:

       Center              X                  Y                   Z               Mass       
    ------------   -----------------  -----------------  -----------------  -----------------
         O            1.112243756888     0.231009382225     0.000000000000    15.994914619570
         H            1.110222258407     1.193276554168     0.000000000000     1.007825032230
         CL          -0.540742754213    -0.140055762516     0.000000000000    34.968852682000

  Running in cs symmetry.

  Rotational constants: A =     20.50253  B =      0.50462  C =      0.49250 [cm^-1]
  Rotational constants: A = 614650.53533  B =  15128.09462  C =  14764.69828 [MHz]
  Nuclear repulsion =   51.119570726180498

  Charge       = 0
  Multiplicity = 1
  Electrons    = 26
  Nalpha       = 13
  Nbeta        = 13

  ==> Algorithm <==

  SCF Algorithm Type is DF.
  DIIS enabled.
  MOM disabled.
  Fractional occupation disabled.
  Guess Type is SAD.
  Energy threshold   = 1.00e-08
  Density threshold  = 1.00e-08
  Integral threshold = 0.00e+00

  ==> Primary Basis <==

  Basis Set: CC-PV(Q+D)Z
    Blend: CC-PV(Q+D)Z
    Number of shells: 43
    Number of basis function: 149
    Number of Cartesian functions: 185
    Spherical Harmonics?: true
    Max angular momentum: 4

  ==> DFT Potential <==

   => Composite Functional: WB97X-V <= 

    wB97X-V Hyb-GGA Exchange-Correlation Functional

    N. Mardirossian and M. Head-Gordon, Phys. Chem. Chem. Phys. 16, 9904 (2014)

    Deriv               =              1
    GGA                 =           TRUE
    Meta                =          FALSE

    Exchange Hybrid     =           TRUE
    MP2 Hybrid          =          FALSE

   => Exchange-Correlation Functionals <=

    1.0000   wB97X-V range-separated functional

   => Exact (HF) Exchange <=

    0.8330            HF,LR [omega = 0.3000]
    0.1670               HF 

   => VV10 Non-Local Parameters <=

    VV10 B              =     6.0000E+00
    VV10 C              =     1.0000E-02

   => Molecular Quadrature <=

    Radial Scheme          =       TREUTLER
    Pruning Scheme         =           FLAT
    Nuclear Scheme         =       TREUTLER

    BS radius alpha        =              1
    Pruning alpha          =              1
    Radial Points          =             75
    Spherical Points       =            302
    Total Points           =          66207
    Total Blocks           =            555
    Max Points             =            255
    Max Functions          =            149

   => Loading Basis Set <=

    Name: (CC-PV(Q+D)Z AUX)
    Role: JKFIT
    Keyword: DF_BASIS_SCF
    atoms 1 entry O          line   253 file /work/zw18965/.conda/envs/p4env/share/psi4/basis/cc-pvqz-jkfit.gbs 
    atoms 2 entry H          line    51 file /work/zw18965/.conda/envs/p4env/share/psi4/basis/cc-pvqz-jkfit.gbs 
    atoms 3 entry CL         line   755 file /work/zw18965/.conda/envs/p4env/share/psi4/basis/cc-pvqz-jkfit.gbs 

  ==> Pre-Iterations <==

   -------------------------------------------------------
    Irrep   Nso     Nmo     Nalpha   Nbeta   Ndocc  Nsocc
   -------------------------------------------------------
     A'        96      96       0       0       0       0
     A"        53      53       0       0       0       0
   -------------------------------------------------------
    Total     149     149      13      13      13       0
   -------------------------------------------------------

  ==> Integral Setup <==

  ==> DiskDFJK: Density-Fitted J/K Matrices <==

    J tasked:                  Yes
    K tasked:                  Yes
    wK tasked:                 Yes
    Omega:               3.000E-01
    OpenMP threads:             24
    Integrals threads:          24
    Memory [MiB]:           102749
    Algorithm:                Core
    Integral Cache:           NONE
    Schwarz Cutoff:          1E-12
    Fitting Condition:       1E-10

   => Auxiliary Basis Set <=

  Basis Set: (CC-PV(Q+D)Z AUX)
    Blend: CC-PVQZ-JKFIT
    Number of shells: 81
    Number of basis function: 305
    Number of Cartesian functions: 399
    Spherical Harmonics?: true
    Max angular momentum: 5

  Cached 100.0% of DFT collocation blocks in 0.241 [GiB].

  Minimum eigenvalue in the overlap matrix is 5.2159824126E-04.
  Using Symmetric Orthogonalization.

  SCF Guess: Superposition of Atomic Densities via on-the-fly atomic UHF.

  ==> Iterations <==

                           Total Energy        Delta E     RMS |[F,P]|

   @DF-RKS iter SAD:  -535.55569966281837   -5.35556e+02   0.00000e+00 
   @DF-RKS iter   1:  -535.85893461941566   -3.03235e-01   3.97568e-03 DIIS
   @DF-RKS iter   2:  -535.86130798292140   -2.37336e-03   4.02773e-03 DIIS
   @DF-RKS iter   3:  -535.92314395602648   -6.18360e-02   6.12594e-04 DIIS
   @DF-RKS iter   4:  -535.92461139493241   -1.46744e-03   8.58048e-05 DIIS
   @DF-RKS iter   5:  -535.92467098504767   -5.95901e-05   2.07665e-05 DIIS
   @DF-RKS iter   6:  -535.92467485239490   -3.86735e-06   5.30861e-06 DIIS
   @DF-RKS iter   7:  -535.92467539338759   -5.40993e-07   2.08852e-06 DIIS
   @DF-RKS iter   8:  -535.92467551263803   -1.19250e-07   8.40016e-07 DIIS
   @DF-RKS iter   9:  -535.92467553674828   -2.41102e-08   2.73376e-07 DIIS
   @DF-RKS iter  10:  -535.92467553851554   -1.76726e-09   5.77341e-08 DIIS
   @DF-RKS iter  11:  -535.92467553856136   -4.58158e-11   1.61600e-08 DIIS
   @DF-RKS iter  12:  -535.92467553856545   -4.09273e-12   3.55752e-09 DIIS
  Energy and wave function converged.


  ==> Post-Iterations <==

    Orbital Energies [Eh]
    ---------------------

    Doubly Occupied:                                                      

       1Ap  -101.595216     2Ap   -19.284973     3Ap    -9.607201  
       4Ap    -7.367982     5Ap    -7.352671     1App   -7.352320  
       6Ap    -1.205548     7Ap    -0.927705     8Ap    -0.647158  
       9Ap    -0.555853     2App   -0.529566    10Ap    -0.427144  
       3App   -0.393163  

    Virtual:                                                              

      11Ap     0.017640    12Ap     0.109928    13Ap     0.301020  
      14Ap     0.313924     4App    0.317667    15Ap     0.356952  
      16Ap     0.379564     5App    0.398273    17Ap     0.411226  
      18Ap     0.424246     6App    0.445654    19Ap     0.496814  
       7App    0.559612    20Ap     0.578428     8App    0.645408  
      21Ap     0.696411    22Ap     0.799061    23Ap     0.885881  
      24Ap     1.032329    25Ap     1.187454     9App    1.222837  
      26Ap     1.238139    10App    1.242422    11App    1.260779  
      27Ap     1.262110    12App    1.293912    28Ap     1.341372  
      29Ap     1.384795    30Ap     1.402347    13App    1.414992  
      31Ap     1.453542    14App    1.502591    32Ap     1.511365  
      33Ap     1.528498    15App    1.539815    34Ap     1.659066  
      35Ap     1.764017    36Ap     1.863495    16App    1.873907  
      37Ap     1.981544    17App    2.141779    38Ap     2.253516  
      39Ap     2.288642    18App    2.292360    19App    2.470388  
      40Ap     2.502150    41Ap     2.651991    20App    2.747579  
      42Ap     2.773217    43Ap     2.941835    21App    3.069818  
      44Ap     3.127036    45Ap     3.145068    22App    3.251356  
      46Ap     3.266314    47Ap     3.300900    48Ap     3.358285  
      23App    3.390474    24App    3.446844    49Ap     3.447431  
      50Ap     3.495518    51Ap     3.668747    25App    3.672569  
      26App    3.688190    52Ap     3.689272    53Ap     3.696689  
      54Ap     3.789096    27App    3.856394    28App    3.962756  
      55Ap     4.000795    29App    4.015095    56Ap     4.048212  
      30App    4.087763    57Ap     4.098748    58Ap     4.172761  
      31App    4.188295    59Ap     4.227220    32App    4.229040  
      60Ap     4.433889    61Ap     4.502527    33App    4.552696  
      62Ap     4.655984    34App    4.888572    63Ap     4.892154  
      64Ap     5.135315    65Ap     5.596760    35App    5.625892  
      66Ap     5.687817    67Ap     5.895309    36App    5.947246  
      68Ap     6.375895    37App    6.628853    69Ap     6.736918  
      38App    7.098797    70Ap     7.199782    71Ap     7.249015  
      39App    7.776633    72Ap     7.862481    40App    7.897020  
      73Ap     7.942251    74Ap     8.228468    41App    8.517440  
      75Ap     8.594006    76Ap     8.660493    42App    9.064901  
      77Ap     9.081563    43App    9.199133    78Ap     9.228584  
      79Ap     9.491027    44App   10.002685    45App   10.208783  
      80Ap    10.244080    81Ap    10.600696    46App   10.687727  
      82Ap    10.690818    47App   10.745694    83Ap    10.785519  
      48App   10.848479    84Ap    10.872466    85Ap    10.965239  
      86Ap    11.185867    87Ap    11.229245    49App   11.241289  
      50App   11.522942    88Ap    11.532502    51App   11.811617  
      89Ap    11.840449    90Ap    12.140836    52App   12.262055  
      91Ap    12.453655    92Ap    13.719734    53App   13.911752  
      93Ap    13.955858    94Ap    16.045335    95Ap    22.651109  
      96Ap    41.832357  

    Final Occupation by Irrep:
             Ap   App 
    DOCC [    10,    3 ]

  @DF-RKS Final Energy:  -535.92467553856545

   => Energetics <=

    Nuclear Repulsion Energy =             51.1195707261804984
    One-Electron Energy =                -840.8054806402313943
    Two-Electron Energy =                 281.3256797101261100
    DFT Exchange-Correlation Energy =     -27.6731760985747606
    Empirical Dispersion Energy =           0.0000000000000000
    VV10 Nonlocal Energy =                  0.1087307639340405
    Total Energy =                       -535.9246755385654524

Computation Completed


Properties will be evaluated at   0.000000,   0.000000,   0.000000 [a0]

Properties computed using the SCF density matrix

  Nuclear Dipole Moment: [e a0]
     X:     1.5412      Y:     1.2480      Z:     0.0000

  Electronic Dipole Moment: [e a0]
     X:    -1.5564      Y:    -0.6363      Z:     0.0000

  Dipole Moment: [e a0]
     X:    -0.0153      Y:     0.6117      Z:     0.0000     Total:     0.6119

  Dipole Moment: [D]
     X:    -0.0388      Y:     1.5548      Z:     0.0000     Total:     1.5553


*** tstop() called on bp1-compute00067.data.bp.acrc.priv at Tue Apr 27 17:03:18 2021
Module time:
	user time   =      93.45 seconds =       1.56 minutes
	system time =       2.65 seconds =       0.04 minutes
	total time  =          5 seconds =       0.08 minutes
Total time:
	user time   =     568.46 seconds =       9.47 minutes
	system time =      19.60 seconds =       0.33 minutes
	total time  =         26 seconds =       0.43 minutes

  //>>>>>>>>>>>>>>>>>>>>>>>>>>>>>>>>>>>//
  //    Loading displacement 7 of 7    //
  //<<<<<<<<<<<<<<<<<<<<<<<<<<<<<<<<<<<//

*** tstart() called on bp1-compute00067.data.bp.acrc.priv
*** at Tue Apr 27 17:03:18 2021

   => Loading Basis Set <=

    Name: CC-PV(Q+D)Z
    Role: ORBITAL
    Keyword: BASIS
    atoms 1 entry O          line   349 file /work/zw18965/.conda/envs/p4env/share/psi4/basis/cc-pv_qpd_z.gbs 
    atoms 2 entry H          line    32 file /work/zw18965/.conda/envs/p4env/share/psi4/basis/cc-pv_qpd_z.gbs 
    atoms 3 entry CL         line  1066 file /work/zw18965/.conda/envs/p4env/share/psi4/basis/cc-pv_qpd_z.gbs 


         ---------------------------------------------------------
                                   SCF
               by Justin Turney, Rob Parrish, Andy Simmonett
                          and Daniel G. A. Smith
                              RKS Reference
                       24 Threads, 137329 MiB Core
         ---------------------------------------------------------

  ==> Geometry <==

    Molecular point group: cs
    Full point group: Cs

    Geometry (in Angstrom), charge = 0, multiplicity = 1:

       Center              X                  Y                   Z               Mass       
    ------------   -----------------  -----------------  -----------------  -----------------
         O            1.112243756888     0.231009382225     0.000000000000    15.994914619570
         H            1.114265255369     1.196541710282     0.000000000000     1.007825032230
         CL          -0.540859276010    -0.140149866434     0.000000000000    34.968852682000

  Running in cs symmetry.

  Rotational constants: A =     20.41095  B =      0.50434  C =      0.49218 [cm^-1]
  Rotational constants: A = 611904.96268  B =  15119.69078  C =  14755.10376 [MHz]
  Nuclear repulsion =   51.090672298447394

  Charge       = 0
  Multiplicity = 1
  Electrons    = 26
  Nalpha       = 13
  Nbeta        = 13

  ==> Algorithm <==

  SCF Algorithm Type is DF.
  DIIS enabled.
  MOM disabled.
  Fractional occupation disabled.
  Guess Type is SAD.
  Energy threshold   = 1.00e-08
  Density threshold  = 1.00e-08
  Integral threshold = 0.00e+00

  ==> Primary Basis <==

  Basis Set: CC-PV(Q+D)Z
    Blend: CC-PV(Q+D)Z
    Number of shells: 43
    Number of basis function: 149
    Number of Cartesian functions: 185
    Spherical Harmonics?: true
    Max angular momentum: 4

  ==> DFT Potential <==

   => Composite Functional: WB97X-V <= 

    wB97X-V Hyb-GGA Exchange-Correlation Functional

    N. Mardirossian and M. Head-Gordon, Phys. Chem. Chem. Phys. 16, 9904 (2014)

    Deriv               =              1
    GGA                 =           TRUE
    Meta                =          FALSE

    Exchange Hybrid     =           TRUE
    MP2 Hybrid          =          FALSE

   => Exchange-Correlation Functionals <=

    1.0000   wB97X-V range-separated functional

   => Exact (HF) Exchange <=

    0.8330            HF,LR [omega = 0.3000]
    0.1670               HF 

   => VV10 Non-Local Parameters <=

    VV10 B              =     6.0000E+00
    VV10 C              =     1.0000E-02

   => Molecular Quadrature <=

    Radial Scheme          =       TREUTLER
    Pruning Scheme         =           FLAT
    Nuclear Scheme         =       TREUTLER

    BS radius alpha        =              1
    Pruning alpha          =              1
    Radial Points          =             75
    Spherical Points       =            302
    Total Points           =          66207
    Total Blocks           =            554
    Max Points             =            256
    Max Functions          =            149

   => Loading Basis Set <=

    Name: (CC-PV(Q+D)Z AUX)
    Role: JKFIT
    Keyword: DF_BASIS_SCF
    atoms 1 entry O          line   253 file /work/zw18965/.conda/envs/p4env/share/psi4/basis/cc-pvqz-jkfit.gbs 
    atoms 2 entry H          line    51 file /work/zw18965/.conda/envs/p4env/share/psi4/basis/cc-pvqz-jkfit.gbs 
    atoms 3 entry CL         line   755 file /work/zw18965/.conda/envs/p4env/share/psi4/basis/cc-pvqz-jkfit.gbs 

  ==> Pre-Iterations <==

   -------------------------------------------------------
    Irrep   Nso     Nmo     Nalpha   Nbeta   Ndocc  Nsocc
   -------------------------------------------------------
     A'        96      96       0       0       0       0
     A"        53      53       0       0       0       0
   -------------------------------------------------------
    Total     149     149      13      13      13       0
   -------------------------------------------------------

  ==> Integral Setup <==

  ==> DiskDFJK: Density-Fitted J/K Matrices <==

    J tasked:                  Yes
    K tasked:                  Yes
    wK tasked:                 Yes
    Omega:               3.000E-01
    OpenMP threads:             24
    Integrals threads:          24
    Memory [MiB]:           102750
    Algorithm:                Core
    Integral Cache:           NONE
    Schwarz Cutoff:          1E-12
    Fitting Condition:       1E-10

   => Auxiliary Basis Set <=

  Basis Set: (CC-PV(Q+D)Z AUX)
    Blend: CC-PVQZ-JKFIT
    Number of shells: 81
    Number of basis function: 305
    Number of Cartesian functions: 399
    Spherical Harmonics?: true
    Max angular momentum: 5

  Cached 100.0% of DFT collocation blocks in 0.241 [GiB].

  Minimum eigenvalue in the overlap matrix is 5.2728971325E-04.
  Using Symmetric Orthogonalization.

  SCF Guess: Superposition of Atomic Densities via on-the-fly atomic UHF.

  ==> Iterations <==

                           Total Energy        Delta E     RMS |[F,P]|

   @DF-RKS iter SAD:  -535.55345754137170   -5.35553e+02   0.00000e+00 
   @DF-RKS iter   1:  -535.85906502364605   -3.05607e-01   3.96954e-03 DIIS
   @DF-RKS iter   2:  -535.86148583606052   -2.42081e-03   4.02205e-03 DIIS
   @DF-RKS iter   3:  -535.92314703534544   -6.16612e-02   6.13631e-04 DIIS
   @DF-RKS iter   4:  -535.92462028625107   -1.47325e-03   8.59692e-05 DIIS
   @DF-RKS iter   5:  -535.92468022616561   -5.99399e-05   2.08074e-05 DIIS
   @DF-RKS iter   6:  -535.92468413862105   -3.91246e-06   5.32739e-06 DIIS
   @DF-RKS iter   7:  -535.92468468768266   -5.49062e-07   2.09485e-06 DIIS
   @DF-RKS iter   8:  -535.92468480848834   -1.20806e-07   8.45376e-07 DIIS
   @DF-RKS iter   9:  -535.92468483282016   -2.43318e-08   2.74751e-07 DIIS
   @DF-RKS iter  10:  -535.92468483460107   -1.78090e-09   5.80713e-08 DIIS
   @DF-RKS iter  11:  -535.92468483464779   -4.67253e-11   1.62903e-08 DIIS
[...]
*** at Tue Apr 27 17:05:26 2021

   => Loading Basis Set <=

    Name: CC-PV(Q+D)Z
    Role: ORBITAL
    Keyword: BASIS
    atoms 1 entry O          line   349 file /work/zw18965/.conda/envs/p4env/share/psi4/basis/cc-pv_qpd_z.gbs 
    atoms 2 entry H          line    32 file /work/zw18965/.conda/envs/p4env/share/psi4/basis/cc-pv_qpd_z.gbs 
    atoms 3 entry CL         line  1066 file /work/zw18965/.conda/envs/p4env/share/psi4/basis/cc-pv_qpd_z.gbs 


         ---------------------------------------------------------
                                   SCF
               by Justin Turney, Rob Parrish, Andy Simmonett
                          and Daniel G. A. Smith
                              RKS Reference
                       24 Threads, 137329 MiB Core
         ---------------------------------------------------------

  ==> Geometry <==

    Molecular point group: cs
    Full point group: Cs

    Geometry (in Angstrom), charge = 0, multiplicity = 1:

       Center              X                  Y                   Z               Mass       
    ------------   -----------------  -----------------  -----------------  -----------------
         O            1.097895131284     0.231969076555     0.000000000000    15.994914619570
         H            1.112290457349     1.196429310319     0.000000000000     1.007825032230
         CL          -0.534239233470    -0.140585595610     0.000000000000    34.968852682000

  Running in cs symmetry.

  Rotational constants: A =     20.64176  B =      0.51576  C =      0.50319 [cm^-1]
  Rotational constants: A = 618824.33472  B =  15462.09893  C =  15085.17694 [MHz]
  Nuclear repulsion =   51.619070955098181

  Charge       = 0
  Multiplicity = 1
  Electrons    = 26
  Nalpha       = 13
  Nbeta        = 13

  ==> Algorithm <==

  SCF Algorithm Type is DF.
  DIIS enabled.
  MOM disabled.
  Fractional occupation disabled.
  Guess Type is SAD.
  Energy threshold   = 1.00e-10
  Density threshold  = 1.00e-10
  Integral threshold = 0.00e+00

  ==> Primary Basis <==

  Basis Set: CC-PV(Q+D)Z
    Blend: CC-PV(Q+D)Z
    Number of shells: 43
    Number of basis function: 149
    Number of Cartesian functions: 185
    Spherical Harmonics?: true
    Max angular momentum: 4

  ==> DFT Potential <==

   => Composite Functional: WB97X-V <= 

    wB97X-V Hyb-GGA Exchange-Correlation Functional

    N. Mardirossian and M. Head-Gordon, Phys. Chem. Chem. Phys. 16, 9904 (2014)

    Deriv               =              1
    GGA                 =           TRUE
    Meta                =          FALSE

    Exchange Hybrid     =           TRUE
    MP2 Hybrid          =          FALSE

   => Exchange-Correlation Functionals <=

    1.0000   wB97X-V range-separated functional

   => Exact (HF) Exchange <=

    0.8330            HF,LR [omega = 0.3000]
    0.1670               HF 

   => VV10 Non-Local Parameters <=

    VV10 B              =     6.0000E+00
    VV10 C              =     1.0000E-02

   => Molecular Quadrature <=

    Radial Scheme          =       TREUTLER
    Pruning Scheme         =           FLAT
    Nuclear Scheme         =       TREUTLER

    BS radius alpha        =              1
    Pruning alpha          =              1
    Radial Points          =             75
    Spherical Points       =            302
    Total Points           =          66203
    Total Blocks           =            555
    Max Points             =            256
    Max Functions          =            149

   => Loading Basis Set <=

    Name: (CC-PV(Q+D)Z AUX)
    Role: JKFIT
    Keyword: DF_BASIS_SCF
    atoms 1 entry O          line   253 file /work/zw18965/.conda/envs/p4env/share/psi4/basis/cc-pvqz-jkfit.gbs 
    atoms 2 entry H          line    51 file /work/zw18965/.conda/envs/p4env/share/psi4/basis/cc-pvqz-jkfit.gbs 
    atoms 3 entry CL         line   755 file /work/zw18965/.conda/envs/p4env/share/psi4/basis/cc-pvqz-jkfit.gbs 

  ==> Pre-Iterations <==

   -------------------------------------------------------
    Irrep   Nso     Nmo     Nalpha   Nbeta   Ndocc  Nsocc
   -------------------------------------------------------
     A'        96      96       0       0       0       0
     A"        53      53       0       0       0       0
   -------------------------------------------------------
    Total     149     149      13      13      13       0
   -------------------------------------------------------

  ==> Integral Setup <==

  ==> DiskDFJK: Density-Fitted J/K Matrices <==

    J tasked:                  Yes
    K tasked:                  Yes
    wK tasked:                 Yes
    Omega:               3.000E-01
    OpenMP threads:             24
    Integrals threads:          24
    Memory [MiB]:           102749
    Algorithm:                Core
    Integral Cache:           NONE
    Schwarz Cutoff:          1E-12
    Fitting Condition:       1E-10

   => Auxiliary Basis Set <=

  Basis Set: (CC-PV(Q+D)Z AUX)
    Blend: CC-PVQZ-JKFIT
    Number of shells: 81
    Number of basis function: 305
    Number of Cartesian functions: 399
    Spherical Harmonics?: true
    Max angular momentum: 5

  Cached 100.0% of DFT collocation blocks in 0.241 [GiB].

  Minimum eigenvalue in the overlap matrix is 5.1879748460E-04.
  Using Symmetric Orthogonalization.

  SCF Guess: Superposition of Atomic Densities via on-the-fly atomic UHF.

  ==> Iterations <==

                           Total Energy        Delta E     RMS |[F,P]|

   @DF-RKS iter SAD:  -535.58223784594793   -5.35582e+02   0.00000e+00 
   @DF-RKS iter   1:  -535.85913596238061   -2.76898e-01   3.97875e-03 DIIS
   @DF-RKS iter   2:  -535.86387418431366   -4.73822e-03   3.96807e-03 DIIS
   @DF-RKS iter   3:  -535.92335445575600   -5.94803e-02   6.11383e-04 DIIS
   @DF-RKS iter   4:  -535.92480765862592   -1.45320e-03   8.56955e-05 DIIS
   @DF-RKS iter   5:  -535.92486857266715   -6.09140e-05   2.07652e-05 DIIS
   @DF-RKS iter   6:  -535.92487253183663   -3.95917e-06   5.35350e-06 DIIS
   @DF-RKS iter   7:  -535.92487307560066   -5.43764e-07   2.06017e-06 DIIS
   @DF-RKS iter   8:  -535.92487319073177   -1.15131e-07   8.20494e-07 DIIS
   @DF-RKS iter   9:  -535.92487321285125   -2.21195e-08   2.67525e-07 DIIS
   @DF-RKS iter  10:  -535.92487321449698   -1.64573e-09   5.73394e-08 DIIS
   @DF-RKS iter  11:  -535.92487321454144   -4.44516e-11   1.58434e-08 DIIS
   @DF-RKS iter  12:  -535.92487321454610   -4.66116e-12   3.16848e-09 DIIS
   @DF-RKS iter  13:  -535.92487321454621   -1.13687e-13   5.25038e-10 DIIS
   @DF-RKS iter  14:  -535.92487321454610    1.13687e-13   1.12177e-10 DIIS
   @DF-RKS iter  15:  -535.92487321454655   -4.54747e-13   2.15815e-11 DIIS
  Energy and wave function converged.


  ==> Post-Iterations <==

    Orbital Energies [Eh]
    ---------------------

    Doubly Occupied:                                                      

       1Ap  -101.594155     2Ap   -19.283729     3Ap    -9.606335  
       4Ap    -7.367096     5Ap    -7.351793     1App   -7.351431  
       6Ap    -1.210062     7Ap    -0.926286     8Ap    -0.650146  
       9Ap    -0.557372     2App   -0.532529    10Ap    -0.424861  
       3App   -0.390512  

    Virtual:                                                              

      11Ap     0.023861    12Ap     0.110638    13Ap     0.302754  
      14Ap     0.313368     4App    0.317352    15Ap     0.356691  
      16Ap     0.378352     5App    0.398314    17Ap     0.413261  
      18Ap     0.423580     6App    0.449118    19Ap     0.498579  
       7App    0.557882    20Ap     0.578769     8App    0.646905  
      21Ap     0.702589    22Ap     0.799138    23Ap     0.886871  
      24Ap     1.030497    25Ap     1.187079     9App    1.224556  
      26Ap     1.238041    10App    1.241847    11App    1.260600  
      27Ap     1.263318    12App    1.299234    28Ap     1.344126  
      29Ap     1.385021    30Ap     1.406809    13App    1.415647  
      31Ap     1.457145    14App    1.502897    32Ap     1.511880  
      33Ap     1.532371    15App    1.547005    34Ap     1.656855  
      35Ap     1.762326    36Ap     1.873420    16App    1.877244  
      37Ap     1.994376    17App    2.140556    38Ap     2.247777  
      18App    2.296665    39Ap     2.296716    19App    2.475390  
      40Ap     2.502155    41Ap     2.652588    20App    2.749352  
      42Ap     2.776394    43Ap     2.941802    21App    3.075447  
      44Ap     3.136020    45Ap     3.149081    22App    3.248003  
      46Ap     3.278617    47Ap     3.301110    48Ap     3.362226  
      23App    3.389650    49Ap     3.436934    24App    3.446841  
      50Ap     3.499107    25App    3.670920    51Ap     3.673380  
      26App    3.688382    52Ap     3.694317    53Ap     3.704164  
      54Ap     3.800218    27App    3.863502    28App    3.970783  
      55Ap     4.001835    29App    4.016336    56Ap     4.046260  
      30App    4.100039    57Ap     4.113253    58Ap     4.180456  
      31App    4.204233    59Ap     4.233859    32App    4.243767  
      60Ap     4.432100    61Ap     4.514676    33App    4.549579  
      62Ap     4.654177    34App    4.914243    63Ap     4.919110  
      64Ap     5.147581    65Ap     5.604665    35App    5.624666  
      66Ap     5.688564    67Ap     5.901607    36App    5.950851  
      68Ap     6.434126    37App    6.629519    69Ap     6.740310  
      38App    7.098636    70Ap     7.199981    71Ap     7.249960  
      39App    7.781753    72Ap     7.863180    40App    7.896824  
      73Ap     7.945589    74Ap     8.220830    41App    8.510632  
      75Ap     8.590914    76Ap     8.655955    42App    9.067137  
      77Ap     9.083664    43App    9.218522    78Ap     9.245020  
      79Ap     9.509558    44App   10.008209    45App   10.199246  
      80Ap    10.237895    81Ap    10.613917    46App   10.688549  
      82Ap    10.692761    47App   10.751633    83Ap    10.798847  
      48App   10.849842    84Ap    10.879355    85Ap    10.970489  
      86Ap    11.188994    87Ap    11.220920    49App   11.247011  
      88Ap    11.524257    50App   11.550910    51App   11.805704  
      89Ap    11.871741    90Ap    12.156775    52App   12.263318  
      91Ap    12.470885    92Ap    13.716853    53App   13.894234  
      93Ap    13.942140    94Ap    16.031274    95Ap    22.692842  
      96Ap    41.886867  

    Final Occupation by Irrep:
             Ap   App 
    DOCC [    10,    3 ]

  @DF-RKS Final Energy:  -535.92487321454655

   => Energetics <=

    Nuclear Repulsion Energy =             51.6190709550981808
    One-Electron Energy =                -841.8015559178013518
    Two-Electron Energy =                 281.8281198860568679
    DFT Exchange-Correlation Energy =     -27.6792077552792151
    Empirical Dispersion Energy =           0.0000000000000000
    VV10 Nonlocal Energy =                  0.1086996173789427
    Total Energy =                       -535.9248732145465510

Computation Completed


Properties will be evaluated at   0.000000,   0.000000,   0.000000 [a0]

Properties computed using the SCF density matrix

  Nuclear Dipole Moment: [e a0]
     X:     1.5371      Y:     1.2514      Z:     0.0000

  Electronic Dipole Moment: [e a0]
     X:    -1.5380      Y:    -0.6344      Z:     0.0000

  Dipole Moment: [e a0]
     X:    -0.0010      Y:     0.6171      Z:     0.0000     Total:     0.6171

  Dipole Moment: [D]
     X:    -0.0025      Y:     1.5684      Z:     0.0000     Total:     1.5684


*** tstop() called on bp1-compute00067.data.bp.acrc.priv at Tue Apr 27 17:05:31 2021
Module time:
	user time   =     104.68 seconds =       1.74 minutes
	system time =       4.11 seconds =       0.07 minutes
	total time  =          5 seconds =       0.08 minutes
Total time:
	user time   =    3562.89 seconds =      59.38 minutes
	system time =     109.17 seconds =       1.82 minutes
	total time  =        159 seconds =       2.65 minutes

         ----------------------------------------------------------
                                   FINDIF
                     R. A. King and Jonathon Misiewicz
         ---------------------------------------------------------

  Computing second-derivative from energies using projected, 
  symmetry-adapted, cartesian coordinates.

  13 energies passed in, including the reference geometry.
    Using 3-point formula.
    Energy without displacement: -535.9248744506
    Check energies below for precision!
    0: -1        :      -535.9248738577
    0: 1         :      -535.9248743907
    1: -1        :      -535.9248699310
    1: 1         :      -535.9248697575
    2: -1        :      -535.9248717678
    2: 1         :      -535.9248709329
    0: 1, 1: 1   :      -535.9248696749
    0: -1, 1: -1 :      -535.9248693226
    0: 1, 2: 1   :      -535.9248711225
    0: -1, 2: -1 :      -535.9248714172
    1: 1, 2: 1   :      -535.9248722407
    1: -1, 2: -1 :      -535.9248732145

-------------------------------------------------------------


  ==> Harmonic Vibrational Analysis <==

  non-mass-weighted Hessian:       Symmetric? True   Hermitian? True   Lin Dep Dim?  6 (0)
  projection of translations (True) and rotations (True) removed 6 degrees of freedom (6)
  total projector:                 Symmetric? True   Hermitian? True   Lin Dep Dim?  6 (6)
  mass-weighted Hessian:           Symmetric? True   Hermitian? True   Lin Dep Dim?  6 (0)
  pre-proj  low-frequency mode:    0.0000i [cm^-1]
  pre-proj  low-frequency mode:    0.0000i [cm^-1]
  pre-proj  low-frequency mode:    0.0000i [cm^-1]
  pre-proj  low-frequency mode:    0.0000  [cm^-1]
  pre-proj  low-frequency mode:    0.0000  [cm^-1]
  pre-proj  low-frequency mode:    0.0000  [cm^-1]
  pre-proj  all modes:['0.0000i' '0.0000i' '0.0000i' '0.0000' '0.0000' '0.0000' '806.0795'
 '1289.1700' '3830.1186']
  projected mass-weighted Hessian: Symmetric? True   Hermitian? True   Lin Dep Dim?  6 (6)
  post-proj low-frequency mode:    0.0001i [cm^-1] (TR)
  post-proj low-frequency mode:    0.0000i [cm^-1] (TR)
  post-proj low-frequency mode:    0.0000i [cm^-1] (TR)
  post-proj low-frequency mode:    0.0000  [cm^-1] (TR)
  post-proj low-frequency mode:    0.0000  [cm^-1] (TR)
  post-proj low-frequency mode:    0.0000  [cm^-1] (TR)
  post-proj  all modes:['0.0001i' '0.0000i' '0.0000i' '0.0000' '0.0000' '0.0000' '806.0795'
 '1289.1700' '3830.1186']

  Vibration                       7                   8                   9           
  Freq [cm^-1]                 806.0795           1289.1700           3830.1186       
  Irrep                           Ap                  Ap                  Ap          
  Reduced mass [u]             17.5061              1.0740              1.0678        
  Force const [mDyne/A]         6.7019              1.0516              9.2294        
  Turning point v=0 [a0]        0.0924              0.2949              0.1716        
  RMS dev v=0 [a0 u^1/2]        0.2733              0.2161              0.1254        
  Char temp [K]               1159.7690           1854.8286           5510.6879       
  ----------------------------------------------------------------------------------
      1   O                0.84  0.19  0.00   -0.04  0.04 -0.00   -0.00 -0.06  0.00   
      2   H                0.22  0.23 -0.00    1.00  0.02  0.00    0.02  1.00  0.00   
      3   CL              -0.39 -0.09 -0.00   -0.01 -0.02  0.00    0.00  0.00  0.00   

  ==> Thermochemistry Components <==

  Entropy, S
    Electronic S            0.000 [cal/(mol K)]        0.000 [J/(mol K)]       0.00000000 [mEh/K] (multiplicity = 1)
    Translational S        37.767 [cal/(mol K)]      158.018 [J/(mol K)]       0.06018576 [mEh/K] (mol. weight = 51.9716 [u], P = 101325.00 [Pa])
    Rotational S           18.347 [cal/(mol K)]       76.765 [J/(mol K)]       0.02923829 [mEh/K] (symmetry no. = 1)
    Vibrational S           0.231 [cal/(mol K)]        0.966 [J/(mol K)]       0.00036809 [mEh/K]
  Total S                  56.345 [cal/(mol K)]      235.749 [J/(mol K)]       0.08979214 [mEh/K]
  Correction S              0.000 [cal/(mol K)]        0.000 [J/(mol K)]       0.00000000 [mEh/K]

  Constant volume heat capacity, Cv
    Electronic Cv           0.000 [cal/(mol K)]        0.000 [J/(mol K)]       0.00000000 [mEh/K]
    Translational Cv        2.981 [cal/(mol K)]       12.472 [J/(mol K)]       0.00475022 [mEh/K]
    Rotational Cv           2.981 [cal/(mol K)]       12.472 [J/(mol K)]       0.00475022 [mEh/K]
    Vibrational Cv          0.794 [cal/(mol K)]        3.323 [J/(mol K)]       0.00126565 [mEh/K]
  Total Cv                  6.756 [cal/(mol K)]       28.266 [J/(mol K)]       0.01076609 [mEh/K]
  Correction Cv             0.000 [cal/(mol K)]        0.000 [J/(mol K)]       0.00000000 [mEh/K]

  Constant pressure heat capacity, Cp
    Electronic Cp           0.000 [cal/(mol K)]        0.000 [J/(mol K)]       0.00000000 [mEh/K]
    Translational Cp        4.968 [cal/(mol K)]       20.786 [J/(mol K)]       0.00791703 [mEh/K]
    Rotational Cp           2.981 [cal/(mol K)]       12.472 [J/(mol K)]       0.00475022 [mEh/K]
    Vibrational Cp          0.794 [cal/(mol K)]        3.323 [J/(mol K)]       0.00126565 [mEh/K]
  Total Cp                  8.743 [cal/(mol K)]       36.581 [J/(mol K)]       0.01393290 [mEh/K]
  Correction Cp             0.000 [cal/(mol K)]        0.000 [J/(mol K)]       0.00000000 [mEh/K]

  ==> Thermochemistry Energy Analysis <==

  Raw electronic energy, E0
  Total E0, Electronic energy at well bottom at 0 [K]                 -535.92487445 [Eh]

  Zero-point energy, ZPE_vib = Sum_i nu_i / 2
    Electronic ZPE          0.000 [kcal/mol]        0.000 [kJ/mol]       0.00000000 [Eh]
    Translational ZPE       0.000 [kcal/mol]        0.000 [kJ/mol]       0.00000000 [Eh]
    Rotational ZPE          0.000 [kcal/mol]        0.000 [kJ/mol]       0.00000000 [Eh]
    Vibrational ZPE         8.471 [kcal/mol]       35.442 [kJ/mol]       0.01349898 [Eh]        2962.684 [cm^-1]
  Correction ZPE            8.471 [kcal/mol]       35.442 [kJ/mol]       0.01349898 [Eh]        2962.684 [cm^-1]
  Total ZPE, Electronic energy at 0 [K]                               -535.91137547 [Eh]

  Thermal Energy, E (includes ZPE)
    Electronic E            0.000 [kcal/mol]        0.000 [kJ/mol]       0.00000000 [Eh]
    Translational E         0.889 [kcal/mol]        3.718 [kJ/mol]       0.00141628 [Eh]
    Rotational E            0.889 [kcal/mol]        3.718 [kJ/mol]       0.00141628 [Eh]
    Vibrational E           8.526 [kcal/mol]       35.674 [kJ/mol]       0.01358734 [Eh]
  Correction E             10.304 [kcal/mol]       43.110 [kJ/mol]       0.01641990 [Eh]
  Total E, Electronic energy at  298.15 [K]                           -535.90845455 [Eh]

  Enthalpy, H_trans = E_trans + k_B * T
    Electronic H            0.000 [kcal/mol]        0.000 [kJ/mol]       0.00000000 [Eh]
    Translational H         1.481 [kcal/mol]        6.197 [kJ/mol]       0.00236046 [Eh]
    Rotational H            0.889 [kcal/mol]        3.718 [kJ/mol]       0.00141628 [Eh]
    Vibrational H           8.526 [kcal/mol]       35.674 [kJ/mol]       0.01358734 [Eh]
  Correction H             10.896 [kcal/mol]       45.589 [kJ/mol]       0.01736408 [Eh]
  Total H, Enthalpy at  298.15 [K]                                    -535.90751037 [Eh]

  Gibbs free energy, G = H - T * S
    Electronic G            0.000 [kcal/mol]        0.000 [kJ/mol]       0.00000000 [Eh]
    Translational G        -9.779 [kcal/mol]      -40.916 [kJ/mol]      -0.01558392 [Eh]
    Rotational G           -4.582 [kcal/mol]      -19.169 [kJ/mol]      -0.00730112 [Eh]
    Vibrational G           8.457 [kcal/mol]       35.385 [kJ/mol]       0.01347760 [Eh]
  Correction G             -5.903 [kcal/mol]      -24.699 [kJ/mol]      -0.00940745 [Eh]
  Total G, Free enthalpy at  298.15 [K]                               -535.93428190 [Eh]

    Psi4 stopped on: Tuesday, 27 April 2021 05:05PM
    Psi4 wall time for execution: 0:02:39.60

*** Psi4 exiting successfully. Buy a developer a beer!
