
    -----------------------------------------------------------------------
          Psi4: An Open-Source Ab Initio Electronic Structure Package
                               Psi4 1.3.2 release

                         Git: Rev {HEAD} ecbda83 


    R. M. Parrish, L. A. Burns, D. G. A. Smith, A. C. Simmonett,
    A. E. DePrince III, E. G. Hohenstein, U. Bozkaya, A. Yu. Sokolov,
    R. Di Remigio, R. M. Richard, J. F. Gonthier, A. M. James,
    H. R. McAlexander, A. Kumar, M. Saitow, X. Wang, B. P. Pritchard,
    P. Verma, H. F. Schaefer III, K. Patkowski, R. A. King, E. F. Valeev,
    F. A. Evangelista, J. M. Turney, T. D. Crawford, and C. D. Sherrill,
    J. Chem. Theory Comput. 13(7) pp 3185--3197 (2017).
    (doi: 10.1021/acs.jctc.7b00174)


                         Additional Contributions by
    P. Kraus, H. Kruse, M. H. Lechner, M. C. Schieber, R. A. Shaw,
    A. Alenaizan, R. Galvelis, Z. L. Glick, S. Lehtola, and J. P. Misiewicz

    -----------------------------------------------------------------------


    Psi4 started on: Tuesday, 27 April 2021 05:05PM

    Process ID: 65831
    Host:       bp1-compute00065.data.bp.acrc.priv
    PSIDATADIR: /work/zw18965/.conda/envs/p4env/share/psi4
    Memory:     500.0 MiB
    Threads:    24
    
  ==> Input File <==

--------------------------------------------------------------------------
memory 144 GB

molecule {
0 1
O 0.0000000000 0.0000000000 0.0000000000
C 0.0000000000 0.0000000000 1.1584320400
S 0.0000000000 0.0000000000 2.7252829900
}

set dynamic_level 1
set basis cc-pV(Q+d)Z
 
optimize("wB97X-V")
frequencies("wB97X-V")
--------------------------------------------------------------------------

  Memory set to 134.110 GiB by Python driver.
gradient() will perform gradient computation by finite difference of analytic energies.

         ----------------------------------------------------------
                                   FINDIF
                     R. A. King and Jonathon Misiewicz
         ---------------------------------------------------------

  Using finite-differences of energies to determine gradients.
    Generating geometries for use with 3-point formula.
    Displacement size will be 5.00e-03.
    Number of atoms is 3.
    Number of symmetric SALCs is 2.
    Translations projected? 1. Rotations projected? 1.
    Number of geometries (including reference) is 5.

  //>>>>>>>>>>>>>>>>>>>>>>>>>>>>>>>>>>>//
  //    Loading displacement 1 of 5    //
  //<<<<<<<<<<<<<<<<<<<<<<<<<<<<<<<<<<<//

*** tstart() called on bp1-compute00065.data.bp.acrc.priv
*** at Tue Apr 27 17:05:19 2021

   => Loading Basis Set <=

    Name: CC-PV(Q+D)Z
    Role: ORBITAL
    Keyword: BASIS
    atoms 1 entry O          line   349 file /work/zw18965/.conda/envs/p4env/share/psi4/basis/cc-pv_qpd_z.gbs 
    atoms 2 entry C          line   249 file /work/zw18965/.conda/envs/p4env/share/psi4/basis/cc-pv_qpd_z.gbs 
    atoms 3 entry S          line   978 file /work/zw18965/.conda/envs/p4env/share/psi4/basis/cc-pv_qpd_z.gbs 


         ---------------------------------------------------------
                                   SCF
               by Justin Turney, Rob Parrish, Andy Simmonett
                          and Daniel G. A. Smith
                              RKS Reference
                       24 Threads, 137329 MiB Core
         ---------------------------------------------------------

  ==> Geometry <==

    Molecular point group: c2v
    Full point group: C_inf_v

    Geometry (in Angstrom), charge = 0, multiplicity = 1:

       Center              X                  Y                   Z               Mass       
    ------------   -----------------  -----------------  -----------------  -----------------
         O            0.000000000000     0.000000000000    -1.684829158394    15.994914619570
         C            0.000000000000     0.000000000000    -0.526397118394    12.000000000000
         S            0.000000000000     0.000000000000     1.040453831606    31.972071174400

  Running in c2v symmetry.

  Rotational constants: A = ************  B =      0.20227  C =      0.20227 [cm^-1]
  Rotational constants: A = ************  B =   6064.04409  C =   6064.04409 [MHz]
  Nuclear repulsion =   79.203173565559240

  Charge       = 0
  Multiplicity = 1
  Electrons    = 30
  Nalpha       = 15
  Nbeta        = 15

  ==> Algorithm <==

  SCF Algorithm Type is DF.
  DIIS enabled.
  MOM disabled.
  Fractional occupation disabled.
  Guess Type is SAD.
  Energy threshold   = 1.00e-08
  Density threshold  = 1.00e-08
  Integral threshold = 0.00e+00

  ==> Primary Basis <==

  Basis Set: CC-PV(Q+D)Z
    Blend: CC-PV(Q+D)Z
    Number of shells: 48
    Number of basis function: 174
    Number of Cartesian functions: 220
    Spherical Harmonics?: true
    Max angular momentum: 4

  ==> DFT Potential <==

   => Composite Functional: WB97X-V <= 

    wB97X-V Hyb-GGA Exchange-Correlation Functional

    N. Mardirossian and M. Head-Gordon, Phys. Chem. Chem. Phys. 16, 9904 (2014)

    Deriv               =              1
    GGA                 =           TRUE
    Meta                =          FALSE

    Exchange Hybrid     =           TRUE
    MP2 Hybrid          =          FALSE

   => Exchange-Correlation Functionals <=

    1.0000   wB97X-V range-separated functional

   => Exact (HF) Exchange <=

    0.8330            HF,LR [omega = 0.3000]
    0.1670               HF 

   => VV10 Non-Local Parameters <=

    VV10 B              =     6.0000E+00
    VV10 C              =     1.0000E-02

   => Molecular Quadrature <=

    Radial Scheme          =       TREUTLER
    Pruning Scheme         =           FLAT
    Nuclear Scheme         =       TREUTLER

    BS radius alpha        =              1
    Pruning alpha          =              1
    Radial Points          =             75
    Spherical Points       =            302
    Total Points           =          65778
    Total Blocks           =            572
    Max Points             =            256
    Max Functions          =            174

   => Loading Basis Set <=

    Name: (CC-PV(Q+D)Z AUX)
    Role: JKFIT
    Keyword: DF_BASIS_SCF
    atoms 1 entry O          line   253 file /work/zw18965/.conda/envs/p4env/share/psi4/basis/cc-pvqz-jkfit.gbs 
    atoms 2 entry C          line   137 file /work/zw18965/.conda/envs/p4env/share/psi4/basis/cc-pvqz-jkfit.gbs 
    atoms 3 entry S          line   673 file /work/zw18965/.conda/envs/p4env/share/psi4/basis/cc-pvqz-jkfit.gbs 

  ==> Pre-Iterations <==

   -------------------------------------------------------
    Irrep   Nso     Nmo     Nalpha   Nbeta   Ndocc  Nsocc
   -------------------------------------------------------
     A1        70      70       0       0       0       0
     A2        22      22       0       0       0       0
     B1        41      41       0       0       0       0
     B2        41      41       0       0       0       0
   -------------------------------------------------------
    Total     174     174      15      15      15       0
   -------------------------------------------------------

  ==> Integral Setup <==

  ==> DiskDFJK: Density-Fitted J/K Matrices <==

    J tasked:                  Yes
    K tasked:                  Yes
    wK tasked:                 Yes
    Omega:               3.000E-01
    OpenMP threads:             24
    Integrals threads:          24
    Memory [MiB]:           102717
    Algorithm:                Core
    Integral Cache:           NONE
    Schwarz Cutoff:          1E-12
    Fitting Condition:       1E-10

   => Auxiliary Basis Set <=

  Basis Set: (CC-PV(Q+D)Z AUX)
    Blend: CC-PVQZ-JKFIT
    Number of shells: 96
    Number of basis function: 360
    Number of Cartesian functions: 475
    Spherical Harmonics?: true
    Max angular momentum: 5

  Cached 100.0% of DFT collocation blocks in 0.273 [GiB].

  Minimum eigenvalue in the overlap matrix is 1.3019170831E-04.
  Using Symmetric Orthogonalization.

  SCF Guess: Superposition of Atomic Densities via on-the-fly atomic UHF.

  ==> Iterations <==

                           Total Energy        Delta E     RMS |[F,P]|

   @DF-RKS iter SAD:  -510.95332755981025   -5.10953e+02   0.00000e+00 
   @DF-RKS iter   1:  -511.43458482669121   -4.81257e-01   5.18318e-03 DIIS
   @DF-RKS iter   2:  -511.36877082251277    6.58140e-02   6.94333e-03 DIIS
   @DF-RKS iter   3:  -511.50840740421984   -1.39637e-01   8.18575e-04 DIIS
   @DF-RKS iter   4:  -511.51070034065799   -2.29294e-03   1.51707e-04 DIIS
   @DF-RKS iter   5:  -511.51081465006348   -1.14309e-04   6.70973e-05 DIIS
   @DF-RKS iter   6:  -511.51084080297693   -2.61529e-05   2.64688e-05 DIIS
   @DF-RKS iter   7:  -511.51084497626653   -4.17329e-06   3.79350e-06 DIIS
   @DF-RKS iter   8:  -511.51084516194885   -1.85682e-07   7.11683e-07 DIIS
   @DF-RKS iter   9:  -511.51084516703008   -5.08123e-09   2.21055e-07 DIIS
   @DF-RKS iter  10:  -511.51084516727832   -2.48235e-10   4.02108e-08 DIIS
   @DF-RKS iter  11:  -511.51084516728520   -6.87805e-12   4.50909e-09 DIIS
  Energy and wave function converged.


  ==> Post-Iterations <==

    Orbital Energies [Eh]
    ---------------------

    Doubly Occupied:                                                      

       1A1   -88.922389     2A1   -19.301112     3A1   -10.442739  
       4A1    -8.079422     5A1    -6.036665     1B1    -6.030181  
       1B2    -6.030181     6A1    -1.277037     7A1    -0.953352  
       8A1    -0.672128     2B1    -0.597955     2B2    -0.597955  
       9A1    -0.581509     3B1    -0.401795     3B2    -0.401795  

    Virtual:                                                              

       4B1     0.049541     4B2     0.049541    10A1     0.115584  
      11A1     0.157241    12A1     0.210140     5B1     0.261393  
       5B2     0.261393     6B2     0.318734     6B1     0.318734  
       1A2     0.323658    13A1     0.323658    14A1     0.326190  
      15A1     0.444786     7B1     0.474330     7B2     0.474330  
      16A1     0.583066    17A1     0.587357    18A1     0.588366  
       2A2     0.588367     8B2     0.588845     8B1     0.588845  
      19A1     0.807091    20A1     0.924945     9B1     0.969241  
       9B2     0.969241    21A1     1.028106     3A2     1.028106  
      22A1     1.110166     4A2     1.115218    23A1     1.115218  
      10B2     1.120852    10B1     1.120852    11B1     1.138754  
      11B2     1.138754    24A1     1.233982    12B1     1.292740  
      12B2     1.292740    13B2     1.305903    13B1     1.305903  
      25A1     1.320590    26A1     1.403752     5A2     1.403924  
      27A1     1.403925    14B2     1.594774    14B1     1.594774  
      15B1     1.715025    15B2     1.715025    16B2     1.759837  
      16B1     1.759837    28A1     1.774086    29A1     1.859948  
       6A2     1.859950    30A1     1.905656    31A1     2.165461  
      17B2     2.170006    17B1     2.170006    32A1     2.188672  
       7A2     2.188672    33A1     2.364291    18B2     2.636026  
      18B1     2.636026     8A2     2.740164    34A1     2.740176  
      19B1     2.862808    19B2     2.862808    35A1     2.891044  
      20B2     2.999728    20B1     2.999728    21B1     3.033096  
      21B2     3.033096    36A1     3.037577     9A2     3.054829  
      37A1     3.054839    38A1     3.107814    22B2     3.228486  
      22B1     3.228486    10A2     3.234864    39A1     3.234867  
      23B2     3.295973    23B1     3.295973    40A1     3.418312  
      11A2     3.418314    24B1     3.590643    24B2     3.590643  
      41A1     3.726634    42A1     3.755767    43A1     3.880329  
      12A2     3.880332    44A1     3.952670    25B2     3.955408  
      25B1     3.955408    45A1     4.165341    46A1     4.169630  
      13A2     4.169634    26B2     4.483795    26B1     4.483795  
      27B2     4.746442    27B1     4.746442    47A1     4.821602  
      14A2     4.821611    48A1     4.835751    49A1     4.971154  
      28B1     5.069131    28B2     5.069131    29B1     5.327305  
      29B2     5.327305    15A2     5.727614    50A1     5.727623  
      30B2     5.733889    30B1     5.733889    31B2     5.856992  
      31B1     5.856992    51A1     5.912964    32B1     5.921042  
      32B2     5.921042    16A2     6.043944    52A1     6.043953  
      53A1     6.305214    17A2     6.305215    54A1     6.613620  
      33B2     6.668234    33B1     6.668234    55A1     7.034014  
      34B2     7.950974    34B1     7.950974    56A1     8.310119  
      57A1     8.516549    58A1     8.723732    18A2     8.723764  
      59A1     8.903898    19A2     8.903949    35B1     9.004198  
      35B2     9.004198    36B2     9.149299    36B1     9.149299  
      60A1     9.660614    20A2    10.053328    61A1    10.053330  
      37B2    10.214814    37B1    10.214814    62A1    10.549554  
      38B2    10.722600    38B1    10.722600    39B2    11.002383  
      39B1    11.002383    63A1    11.124671    21A2    11.399404  
      64A1    11.399408    40B2    12.030737    40B1    12.030737  
      22A2    12.108206    65A1    12.108243    66A1    13.079152  
      41B2    13.701357    41B1    13.701357    67A1    13.918353  
      68A1    18.936217    69A1    23.597662    70A1    41.601213  

    Final Occupation by Irrep:
             A1    A2    B1    B2 
    DOCC [     9,    0,    3,    3 ]

  @DF-RKS Final Energy:  -511.51084516728520

   => Energetics <=

    Nuclear Repulsion Energy =             79.2031735655592399
    One-Electron Energy =                -860.9139055621171792
    Two-Electron Energy =                 299.3488000264826496
    DFT Exchange-Correlation Energy =     -29.2734302246403288
    Empirical Dispersion Energy =           0.0000000000000000
    VV10 Nonlocal Energy =                  0.1245170274303574
    Total Energy =                       -511.5108451672852539

Computation Completed


Properties will be evaluated at   0.000000,   0.000000,   0.000000 [a0]

Properties computed using the SCF density matrix

  Nuclear Dipole Moment: [e a0]
     X:     0.0000      Y:     0.0000      Z:     0.0194

  Electronic Dipole Moment: [e a0]
     X:     0.0000      Y:     0.0000      Z:     0.2334

  Dipole Moment: [e a0]
     X:     0.0000      Y:     0.0000      Z:     0.2527     Total:     0.2527

  Dipole Moment: [D]
     X:     0.0000      Y:     0.0000      Z:     0.6424     Total:     0.6424


*** tstop() called on bp1-compute00065.data.bp.acrc.priv at Tue Apr 27 17:05:24 2021
Module time:
	user time   =      99.67 seconds =       1.66 minutes
	system time =       4.25 seconds =       0.07 minutes
	total time  =          5 seconds =       0.08 minutes
Total time:
	user time   =      99.67 seconds =       1.66 minutes
	system time =       4.25 seconds =       0.07 minutes
	total time  =          5 seconds =       0.08 minutes

  //>>>>>>>>>>>>>>>>>>>>>>>>>>>>>>>>>>>//
  //    Loading displacement 2 of 5    //
  //<<<<<<<<<<<<<<<<<<<<<<<<<<<<<<<<<<<//

*** tstart() called on bp1-compute00065.data.bp.acrc.priv
*** at Tue Apr 27 17:05:24 2021

   => Loading Basis Set <=

    Name: CC-PV(Q+D)Z
    Role: ORBITAL
    Keyword: BASIS
    atoms 1 entry O          line   349 file /work/zw18965/.conda/envs/p4env/share/psi4/basis/cc-pv_qpd_z.gbs 
    atoms 2 entry C          line   249 file /work/zw18965/.conda/envs/p4env/share/psi4/basis/cc-pv_qpd_z.gbs 
    atoms 3 entry S          line   978 file /work/zw18965/.conda/envs/p4env/share/psi4/basis/cc-pv_qpd_z.gbs 


         ---------------------------------------------------------
                                   SCF
               by Justin Turney, Rob Parrish, Andy Simmonett
                          and Daniel G. A. Smith
                              RKS Reference
                       24 Threads, 137329 MiB Core
         ---------------------------------------------------------

  ==> Geometry <==

    Molecular point group: c2v
    Full point group: C_inf_v

    Geometry (in Angstrom), charge = 0, multiplicity = 1:

       Center              X                  Y                   Z               Mass       
    ------------   -----------------  -----------------  -----------------  -----------------
         O            0.000000000000     0.000000000000    -1.685395674844    15.994914619570
         C            0.000000000000     0.000000000000    -0.526191047085    12.000000000000
         S            0.000000000000     0.000000000000     1.040659902915    31.972071174400

  Running in c2v symmetry.

  Rotational constants: A = ************  B =      0.20217  C =      0.20217 [cm^-1]
  Rotational constants: A = ************  B =   6061.01523  C =   6061.01523 [MHz]
  Nuclear repulsion =   79.181515997036001

  Charge       = 0
  Multiplicity = 1
  Electrons    = 30
  Nalpha       = 15
  Nbeta        = 15

  ==> Algorithm <==

  SCF Algorithm Type is DF.
  DIIS enabled.
  MOM disabled.
  Fractional occupation disabled.
  Guess Type is SAD.
  Energy threshold   = 1.00e-08
  Density threshold  = 1.00e-08
  Integral threshold = 0.00e+00

  ==> Primary Basis <==

  Basis Set: CC-PV(Q+D)Z
    Blend: CC-PV(Q+D)Z
    Number of shells: 48
    Number of basis function: 174
    Number of Cartesian functions: 220
    Spherical Harmonics?: true
    Max angular momentum: 4

  ==> DFT Potential <==

   => Composite Functional: WB97X-V <= 

    wB97X-V Hyb-GGA Exchange-Correlation Functional

    N. Mardirossian and M. Head-Gordon, Phys. Chem. Chem. Phys. 16, 9904 (2014)

    Deriv               =              1
    GGA                 =           TRUE
    Meta                =          FALSE

    Exchange Hybrid     =           TRUE
    MP2 Hybrid          =          FALSE

   => Exchange-Correlation Functionals <=

    1.0000   wB97X-V range-separated functional

   => Exact (HF) Exchange <=

    0.8330            HF,LR [omega = 0.3000]
    0.1670               HF 

   => VV10 Non-Local Parameters <=

    VV10 B              =     6.0000E+00
    VV10 C              =     1.0000E-02

   => Molecular Quadrature <=

    Radial Scheme          =       TREUTLER
    Pruning Scheme         =           FLAT
    Nuclear Scheme         =       TREUTLER

    BS radius alpha        =              1
    Pruning alpha          =              1
    Radial Points          =             75
    Spherical Points       =            302
    Total Points           =          65778
    Total Blocks           =            572
    Max Points             =            256
    Max Functions          =            174

   => Loading Basis Set <=

    Name: (CC-PV(Q+D)Z AUX)
    Role: JKFIT
    Keyword: DF_BASIS_SCF
    atoms 1 entry O          line   253 file /work/zw18965/.conda/envs/p4env/share/psi4/basis/cc-pvqz-jkfit.gbs 
    atoms 2 entry C          line   137 file /work/zw18965/.conda/envs/p4env/share/psi4/basis/cc-pvqz-jkfit.gbs 
    atoms 3 entry S          line   673 file /work/zw18965/.conda/envs/p4env/share/psi4/basis/cc-pvqz-jkfit.gbs 

  ==> Pre-Iterations <==

   -------------------------------------------------------
    Irrep   Nso     Nmo     Nalpha   Nbeta   Ndocc  Nsocc
   -------------------------------------------------------
     A1        70      70       0       0       0       0
     A2        22      22       0       0       0       0
     B1        41      41       0       0       0       0
     B2        41      41       0       0       0       0
   -------------------------------------------------------
    Total     174     174      15      15      15       0
   -------------------------------------------------------

  ==> Integral Setup <==

  ==> DiskDFJK: Density-Fitted J/K Matrices <==

    J tasked:                  Yes
    K tasked:                  Yes
    wK tasked:                 Yes
    Omega:               3.000E-01
    OpenMP threads:             24
    Integrals threads:          24
    Memory [MiB]:           102717
    Algorithm:                Core
    Integral Cache:           NONE
    Schwarz Cutoff:          1E-12
    Fitting Condition:       1E-10

   => Auxiliary Basis Set <=

  Basis Set: (CC-PV(Q+D)Z AUX)
    Blend: CC-PVQZ-JKFIT
    Number of shells: 96
    Number of basis function: 360
    Number of Cartesian functions: 475
    Spherical Harmonics?: true
    Max angular momentum: 5

  Cached 100.0% of DFT collocation blocks in 0.273 [GiB].

  Minimum eigenvalue in the overlap matrix is 1.3023246018E-04.
  Using Symmetric Orthogonalization.

  SCF Guess: Superposition of Atomic Densities via on-the-fly atomic UHF.

  ==> Iterations <==

                           Total Energy        Delta E     RMS |[F,P]|

   @DF-RKS iter SAD:  -510.95194887967847   -5.10952e+02   0.00000e+00 
   @DF-RKS iter   1:  -511.43449797693034   -4.82549e-01   5.18386e-03 DIIS
   @DF-RKS iter   2:  -511.36818789961990    6.63101e-02   6.95514e-03 DIIS
   @DF-RKS iter   3:  -511.50838346047556   -1.40196e-01   8.18409e-04 DIIS
   @DF-RKS iter   4:  -511.51067584731305   -2.29239e-03   1.51896e-04 DIIS
   @DF-RKS iter   5:  -511.51079027200188   -1.14425e-04   6.72416e-05 DIIS
   @DF-RKS iter   6:  -511.51081653411859   -2.62621e-05   2.65032e-05 DIIS
   @DF-RKS iter   7:  -511.51082071789585   -4.18378e-06   3.80048e-06 DIIS
   @DF-RKS iter   8:  -511.51082090426399   -1.86368e-07   7.12628e-07 DIIS
   @DF-RKS iter   9:  -511.51082090936143   -5.09743e-09   2.21826e-07 DIIS
   @DF-RKS iter  10:  -511.51082090961103   -2.49599e-10   4.04705e-08 DIIS
   @DF-RKS iter  11:  -511.51082090961813   -7.10543e-12   4.53488e-09 DIIS
  Energy and wave function converged.


  ==> Post-Iterations <==

    Orbital Energies [Eh]
    ---------------------

    Doubly Occupied:                                                      

       1A1   -88.922520     2A1   -19.301063     3A1   -10.442876  
       4A1    -8.079547     5A1    -6.036787     1B2    -6.030308  
       1B1    -6.030308     6A1    -1.276525     7A1    -0.953432  
       8A1    -0.672049     2B2    -0.597647     2B1    -0.597647  
       9A1    -0.581527     3B2    -0.401858     3B1    -0.401858  

    Virtual:                                                              

       4B2     0.049339     4B1     0.049339    10A1     0.115506  
      11A1     0.157235    12A1     0.210080     5B2     0.261381  
       5B1     0.261381     6B1     0.318772     6B2     0.318772  
       1A2     0.323597    13A1     0.323598    14A1     0.326190  
      15A1     0.444689     7B2     0.474213     7B1     0.474213  
      16A1     0.582944    17A1     0.587087    18A1     0.588389  
       2A2     0.588389     8B1     0.588916     8B2     0.588916  
      19A1     0.806996    20A1     0.924788     9B2     0.969061  
       9B1     0.969061    21A1     1.028019     3A2     1.028019  
      22A1     1.109674     4A2     1.115184    23A1     1.115184  
      10B2     1.120775    10B1     1.120775    11B2     1.138586  
      11B1     1.138586    24A1     1.233940    12B2     1.292666  
      12B1     1.292666    13B1     1.306071    13B2     1.306071  
      25A1     1.320497     5A2     1.403753    26A1     1.403754  
      27A1     1.403795    14B1     1.594878    14B2     1.594878  
      15B2     1.715060    15B1     1.715060    16B2     1.759865  
      16B1     1.759865    28A1     1.774074    29A1     1.859994  
       6A2     1.859996    30A1     1.905423    31A1     2.165441  
      17B1     2.169693    17B2     2.169693    32A1     2.188475  
       7A2     2.188475    33A1     2.364166    18B1     2.635488  
      18B2     2.635488     8A2     2.740045    34A1     2.740058  
      19B2     2.862628    19B1     2.862628    35A1     2.890512  
      20B1     2.999325    20B2     2.999325    21B2     3.033083  
      21B1     3.033083    36A1     3.037935     9A2     3.054725  
      37A1     3.054735    38A1     3.107739    22B1     3.228391  
      22B2     3.228391    10A2     3.234620    39A1     3.234622  
      23B1     3.295790    23B2     3.295790    40A1     3.418046  
      11A2     3.418048    24B2     3.591094    24B1     3.591094  
      41A1     3.726126    42A1     3.755738    43A1     3.880258  
      12A2     3.880261    44A1     3.952455    25B1     3.955667  
      25B2     3.955667    45A1     4.165087    46A1     4.168846  
      13A2     4.168851    26B1     4.483245    26B2     4.483245  
      27B1     4.746326    27B2     4.746326    47A1     4.821638  
      14A2     4.821647    48A1     4.837535    49A1     4.968556  
      28B1     5.068686    28B2     5.068686    29B2     5.327033  
      29B1     5.327033    15A2     5.727448    50A1     5.727456  
      30B1     5.733815    30B2     5.733815    31B1     5.856001  
      31B2     5.856001    51A1     5.912522    32B2     5.921111  
      32B1     5.921111    16A2     6.044290    52A1     6.044299  
      53A1     6.303913    17A2     6.303914    54A1     6.611857  
      33B1     6.666825    33B2     6.666825    55A1     7.032666  
      34B1     7.949096    34B2     7.949096    56A1     8.309160  
      57A1     8.515576    58A1     8.723598    18A2     8.723630  
      59A1     8.904047    19A2     8.904099    35B2     9.003954  
      35B1     9.003954    36B1     9.148385    36B2     9.148385  
      60A1     9.659866    20A2    10.050653    61A1    10.050655  
      37B1    10.214068    37B2    10.214068    62A1    10.549045  
      38B1    10.721661    38B2    10.721661    39B1    11.002423  
      39B2    11.002423    63A1    11.123875    21A2    11.399046  
      64A1    11.399050    40B1    12.029255    40B2    12.029255  
      22A2    12.107522    65A1    12.107559    66A1    13.076904  
      41B1    13.697255    41B2    13.697255    67A1    13.915944  
      68A1    18.935639    69A1    23.588291    70A1    41.596769  

    Final Occupation by Irrep:
             A1    A2    B1    B2 
    DOCC [     9,    0,    3,    3 ]

  @DF-RKS Final Energy:  -511.51082090961813

   => Energetics <=

    Nuclear Repulsion Energy =             79.1815159970360014
    One-Electron Energy =                -860.8714427156344300
    Two-Electron Energy =                 299.3274228960442542
    DFT Exchange-Correlation Energy =     -29.2728343002657319
    Empirical Dispersion Energy =           0.0000000000000000
    VV10 Nonlocal Energy =                  0.1245172132017310
    Total Energy =                       -511.5108209096181326

Computation Completed


Properties will be evaluated at   0.000000,   0.000000,   0.000000 [a0]

Properties computed using the SCF density matrix

  Nuclear Dipole Moment: [e a0]
     X:     0.0000      Y:     0.0000      Z:     0.0194

  Electronic Dipole Moment: [e a0]
     X:     0.0000      Y:     0.0000      Z:     0.2360

  Dipole Moment: [e a0]
     X:     0.0000      Y:     0.0000      Z:     0.2554     Total:     0.2554

  Dipole Moment: [D]
     X:     0.0000      Y:     0.0000      Z:     0.6491     Total:     0.6491


*** tstop() called on bp1-compute00065.data.bp.acrc.priv at Tue Apr 27 17:05:29 2021
Module time:
	user time   =     106.54 seconds =       1.78 minutes
	system time =       5.92 seconds =       0.10 minutes
	total time  =          5 seconds =       0.08 minutes
Total time:
	user time   =     206.35 seconds =       3.44 minutes
	system time =      10.18 seconds =       0.17 minutes
	total time  =         10 seconds =       0.17 minutes

  //>>>>>>>>>>>>>>>>>>>>>>>>>>>>>>>>>>>//
  //    Loading displacement 3 of 5    //
  //<<<<<<<<<<<<<<<<<<<<<<<<<<<<<<<<<<<//

*** tstart() called on bp1-compute00065.data.bp.acrc.priv
*** at Tue Apr 27 17:05:29 2021

   => Loading Basis Set <=

    Name: CC-PV(Q+D)Z
    Role: ORBITAL
    Keyword: BASIS
    atoms 1 entry O          line   349 file /work/zw18965/.conda/envs/p4env/share/psi4/basis/cc-pv_qpd_z.gbs 
    atoms 2 entry C          line   249 file /work/zw18965/.conda/envs/p4env/share/psi4/basis/cc-pv_qpd_z.gbs 
    atoms 3 entry S          line   978 file /work/zw18965/.conda/envs/p4env/share/psi4/basis/cc-pv_qpd_z.gbs 


         ---------------------------------------------------------
                                   SCF
               by Justin Turney, Rob Parrish, Andy Simmonett
                          and Daniel G. A. Smith
                              RKS Reference
                       24 Threads, 137329 MiB Core
         ---------------------------------------------------------

  ==> Geometry <==

    Molecular point group: c2v
    Full point group: C_inf_v

    Geometry (in Angstrom), charge = 0, multiplicity = 1:

       Center              X                  Y                   Z               Mass       
    ------------   -----------------  -----------------  -----------------  -----------------
         O            0.000000000000     0.000000000000    -1.684262641943    15.994914619570
         C            0.000000000000     0.000000000000    -0.526603189702    12.000000000000
         S            0.000000000000     0.000000000000     1.040247760298    31.972071174400

  Running in c2v symmetry.

  Rotational constants: A = ************  B =      0.20238  C =      0.20238 [cm^-1]
  Rotational constants: A = ************  B =   6067.07496  C =   6067.07496 [MHz]
  Nuclear repulsion =   79.224854634420780

  Charge       = 0
  Multiplicity = 1
  Electrons    = 30
  Nalpha       = 15
  Nbeta        = 15

  ==> Algorithm <==

  SCF Algorithm Type is DF.
  DIIS enabled.
  MOM disabled.
  Fractional occupation disabled.
  Guess Type is SAD.
  Energy threshold   = 1.00e-08
  Density threshold  = 1.00e-08
  Integral threshold = 0.00e+00

  ==> Primary Basis <==

  Basis Set: CC-PV(Q+D)Z
    Blend: CC-PV(Q+D)Z
    Number of shells: 48
    Number of basis function: 174
    Number of Cartesian functions: 220
    Spherical Harmonics?: true
    Max angular momentum: 4

  ==> DFT Potential <==

   => Composite Functional: WB97X-V <= 

    wB97X-V Hyb-GGA Exchange-Correlation Functional

    N. Mardirossian and M. Head-Gordon, Phys. Chem. Chem. Phys. 16, 9904 (2014)

    Deriv               =              1
    GGA                 =           TRUE
    Meta                =          FALSE

    Exchange Hybrid     =           TRUE
    MP2 Hybrid          =          FALSE

   => Exchange-Correlation Functionals <=

    1.0000   wB97X-V range-separated functional

   => Exact (HF) Exchange <=

    0.8330            HF,LR [omega = 0.3000]
    0.1670               HF 

   => VV10 Non-Local Parameters <=

    VV10 B              =     6.0000E+00
    VV10 C              =     1.0000E-02

   => Molecular Quadrature <=

    Radial Scheme          =       TREUTLER
    Pruning Scheme         =           FLAT
    Nuclear Scheme         =       TREUTLER

    BS radius alpha        =              1
    Pruning alpha          =              1
    Radial Points          =             75
    Spherical Points       =            302
    Total Points           =          65778
    Total Blocks           =            572
    Max Points             =            256
    Max Functions          =            174

   => Loading Basis Set <=

    Name: (CC-PV(Q+D)Z AUX)
    Role: JKFIT
    Keyword: DF_BASIS_SCF
    atoms 1 entry O          line   253 file /work/zw18965/.conda/envs/p4env/share/psi4/basis/cc-pvqz-jkfit.gbs 
    atoms 2 entry C          line   137 file /work/zw18965/.conda/envs/p4env/share/psi4/basis/cc-pvqz-jkfit.gbs 
    atoms 3 entry S          line   673 file /work/zw18965/.conda/envs/p4env/share/psi4/basis/cc-pvqz-jkfit.gbs 

  ==> Pre-Iterations <==

   -------------------------------------------------------
    Irrep   Nso     Nmo     Nalpha   Nbeta   Ndocc  Nsocc
   -------------------------------------------------------
     A1        70      70       0       0       0       0
     A2        22      22       0       0       0       0
     B1        41      41       0       0       0       0
     B2        41      41       0       0       0       0
   -------------------------------------------------------
    Total     174     174      15      15      15       0
   -------------------------------------------------------

  ==> Integral Setup <==

  ==> DiskDFJK: Density-Fitted J/K Matrices <==

    J tasked:                  Yes
    K tasked:                  Yes
    wK tasked:                 Yes
    Omega:               3.000E-01
    OpenMP threads:             24
    Integrals threads:          24
    Memory [MiB]:           102717
    Algorithm:                Core
    Integral Cache:           NONE
    Schwarz Cutoff:          1E-12
    Fitting Condition:       1E-10

   => Auxiliary Basis Set <=

  Basis Set: (CC-PV(Q+D)Z AUX)
    Blend: CC-PVQZ-JKFIT
    Number of shells: 96
    Number of basis function: 360
    Number of Cartesian functions: 475
    Spherical Harmonics?: true
    Max angular momentum: 5

  Cached 100.0% of DFT collocation blocks in 0.273 [GiB].

  Minimum eigenvalue in the overlap matrix is 1.3015085199E-04.
  Using Symmetric Orthogonalization.

  SCF Guess: Superposition of Atomic Densities via on-the-fly atomic UHF.

  ==> Iterations <==

                           Total Energy        Delta E     RMS |[F,P]|

   @DF-RKS iter SAD:  -510.95470187592241   -5.10955e+02   0.00000e+00 
   @DF-RKS iter   1:  -511.43466840422690   -4.79967e-01   5.18252e-03 DIIS
   @DF-RKS iter   2:  -511.36934685336865    6.53216e-02   6.93159e-03 DIIS
   @DF-RKS iter   3:  -511.50842911329590   -1.39082e-01   8.18738e-04 DIIS
   @DF-RKS iter   4:  -511.51072258313252   -2.29347e-03   1.51518e-04 DIIS
   @DF-RKS iter   5:  -511.51083678061343   -1.14197e-04   6.69517e-05 DIIS
   @DF-RKS iter   6:  -511.51086282382721   -2.60432e-05   2.64349e-05 DIIS
   @DF-RKS iter   7:  -511.51086698677528   -4.16295e-06   3.78656e-06 DIIS
   @DF-RKS iter   8:  -511.51086717177640   -1.85001e-07   7.10742e-07 DIIS
   @DF-RKS iter   9:  -511.51086717684092   -5.06452e-09   2.20288e-07 DIIS
   @DF-RKS iter  10:  -511.51086717708739   -2.46473e-10   3.99529e-08 DIIS
   @DF-RKS iter  11:  -511.51086717709455   -7.16227e-12   4.48315e-09 DIIS
  Energy and wave function converged.


  ==> Post-Iterations <==

    Orbital Energies [Eh]
    ---------------------

    Doubly Occupied:                                                      

       1A1   -88.922258     2A1   -19.301161     3A1   -10.442602  
       4A1    -8.079297     5A1    -6.036543     1B2    -6.030054  
       1B1    -6.030054     6A1    -1.277550     7A1    -0.953271  
       8A1    -0.672208     2B2    -0.598263     2B1    -0.598263  
       9A1    -0.581491     3B2    -0.401731     3B1    -0.401731  

    Virtual:                                                              

       4B2     0.049744     4B1     0.049744    10A1     0.115662  
      11A1     0.157246    12A1     0.210200     5B2     0.261406  
       5B1     0.261406     6B1     0.318696     6B2     0.318696  
       1A2     0.323718    13A1     0.323718    14A1     0.326189  
      15A1     0.444884     7B2     0.474448     7B1     0.474448  
      16A1     0.583181    17A1     0.587633    18A1     0.588343  
       2A2     0.588344     8B1     0.588774     8B2     0.588774  
      19A1     0.807186    20A1     0.925102     9B2     0.969420  
       9B1     0.969420    21A1     1.028193     3A2     1.028194  
      22A1     1.110660     4A2     1.115251    23A1     1.115252  
      10B1     1.120929    10B2     1.120929    11B2     1.138922  
      11B1     1.138922    24A1     1.234023    12B2     1.292813  
      12B1     1.292813    13B1     1.305736    13B2     1.305736  
      25A1     1.320683    26A1     1.403710     5A2     1.404095  
      27A1     1.404096    14B1     1.594672    14B2     1.594672  
      15B2     1.714990    15B1     1.714990    16B2     1.759809  
      16B1     1.759809    28A1     1.774098    29A1     1.859902  
       6A2     1.859904    30A1     1.905889    31A1     2.165481  
      17B1     2.170319    17B2     2.170319    32A1     2.188868  
       7A2     2.188868    33A1     2.364417    18B1     2.636565  
      18B2     2.636565     8A2     2.740282    34A1     2.740294  
      19B2     2.862988    19B1     2.862988    35A1     2.891573  
      20B1     3.000130    20B2     3.000130    21B2     3.033108  
      21B1     3.033108    36A1     3.037224     9A2     3.054933  
      37A1     3.054944    38A1     3.107892    22B2     3.228580  
      22B1     3.228580    10A2     3.235109    39A1     3.235111  
      23B2     3.296156    23B1     3.296156    40A1     3.418579  
      11A2     3.418581    24B2     3.590189    24B1     3.590189  
      41A1     3.727136    42A1     3.755795    43A1     3.880398  
      12A2     3.880401    44A1     3.952886    25B1     3.955153  
      25B2     3.955153    45A1     4.165595    46A1     4.170414  
      13A2     4.170419    26B1     4.484347    26B2     4.484347  
      27B1     4.746556    27B2     4.746556    47A1     4.821566  
      14A2     4.821575    48A1     4.833969    49A1     4.973764  
      28B2     5.069578    28B1     5.069578    29B2     5.327578  
      29B1     5.327578    15A2     5.727779    50A1     5.727787  
      30B1     5.733964    30B2     5.733964    31B1     5.857985  
      31B2     5.857985    51A1     5.913406    32B2     5.920973  
      32B1     5.920973    16A2     6.043598    52A1     6.043606  
      53A1     6.306519    17A2     6.306520    54A1     6.615378  
      33B1     6.669645    33B2     6.669645    55A1     7.035361  
      34B1     7.952850    34B2     7.952850    56A1     8.311080  
      57A1     8.517524    58A1     8.723866    18A2     8.723898  
      59A1     8.903748    19A2     8.903799    35B2     9.004441  
      35B1     9.004441    36B2     9.150215    36B1     9.150215  
      60A1     9.661370    20A2    10.056005    61A1    10.056007  
      37B1    10.215562    37B2    10.215562    62A1    10.550056  
      38B1    10.723533    38B2    10.723533    39B1    11.002343  
      39B2    11.002343    63A1    11.125465    21A2    11.399761  
      64A1    11.399765    40B1    12.032229    40B2    12.032229  
      22A2    12.108896    65A1    12.108932    66A1    13.081388  
      41B1    13.705460    41B2    13.705460    67A1    13.920783  
      68A1    18.936793    69A1    23.607039    70A1    41.605675  

    Final Occupation by Irrep:
             A1    A2    B1    B2 
    DOCC [     9,    0,    3,    3 ]

  @DF-RKS Final Energy:  -511.51086717709455

   => Energetics <=

    Nuclear Repulsion Energy =             79.2248546344207796
    One-Electron Energy =                -860.9564087847754763
    Two-Electron Energy =                 299.3701974023100547
    DFT Exchange-Correlation Energy =     -29.2740272720886558
    Empirical Dispersion Energy =           0.0000000000000000
    VV10 Nonlocal Energy =                  0.1245168430386880
    Total Energy =                       -511.5108671770945534

Computation Completed


Properties will be evaluated at   0.000000,   0.000000,   0.000000 [a0]

Properties computed using the SCF density matrix

  Nuclear Dipole Moment: [e a0]
     X:     0.0000      Y:     0.0000      Z:     0.0194

  Electronic Dipole Moment: [e a0]
     X:     0.0000      Y:     0.0000      Z:     0.2308

  Dipole Moment: [e a0]
     X:     0.0000      Y:     0.0000      Z:     0.2501     Total:     0.2501

  Dipole Moment: [D]
     X:     0.0000      Y:     0.0000      Z:     0.6357     Total:     0.6357


*** tstop() called on bp1-compute00065.data.bp.acrc.priv at Tue Apr 27 17:05:33 2021
Module time:
	user time   =     101.44 seconds =       1.69 minutes
	system time =       3.15 seconds =       0.05 minutes
	total time  =          4 seconds =       0.07 minutes
Total time:
	user time   =     307.94 seconds =       5.13 minutes
	system time =      13.33 seconds =       0.22 minutes
	total time  =         14 seconds =       0.23 minutes

  //>>>>>>>>>>>>>>>>>>>>>>>>>>>>>>>>>>>//
  //    Loading displacement 4 of 5    //
  //<<<<<<<<<<<<<<<<<<<<<<<<<<<<<<<<<<<//

*** tstart() called on bp1-compute00065.data.bp.acrc.priv
*** at Tue Apr 27 17:05:33 2021

   => Loading Basis Set <=

    Name: CC-PV(Q+D)Z
    Role: ORBITAL
    Keyword: BASIS
    atoms 1 entry O          line   349 file /work/zw18965/.conda/envs/p4env/share/psi4/basis/cc-pv_qpd_z.gbs 
    atoms 2 entry C          line   249 file /work/zw18965/.conda/envs/p4env/share/psi4/basis/cc-pv_qpd_z.gbs 
    atoms 3 entry S          line   978 file /work/zw18965/.conda/envs/p4env/share/psi4/basis/cc-pv_qpd_z.gbs 


         ---------------------------------------------------------
                                   SCF
               by Justin Turney, Rob Parrish, Andy Simmonett
                          and Daniel G. A. Smith
                              RKS Reference
                       24 Threads, 137329 MiB Core
         ---------------------------------------------------------

  ==> Geometry <==

    Molecular point group: c2v
    Full point group: C_inf_v

    Geometry (in Angstrom), charge = 0, multiplicity = 1:

       Center              X                  Y                   Z               Mass       
    ------------   -----------------  -----------------  -----------------  -----------------
         O            0.000000000000     0.000000000000    -1.684829158394    15.994914619570
         C            0.000000000000     0.000000000000    -0.527048412935    12.000000000000
         S            0.000000000000     0.000000000000     1.040698280408    31.972071174400

  Running in c2v symmetry.

  Rotational constants: A = ************  B =      0.20222  C =      0.20222 [cm^-1]
  Rotational constants: A = ************  B =   6062.26204  C =   6062.26204 [MHz]
  Nuclear repulsion =   79.194754216267100

  Charge       = 0
  Multiplicity = 1
  Electrons    = 30
  Nalpha       = 15
  Nbeta        = 15

  ==> Algorithm <==

  SCF Algorithm Type is DF.
  DIIS enabled.
  MOM disabled.
  Fractional occupation disabled.
  Guess Type is SAD.
  Energy threshold   = 1.00e-08
  Density threshold  = 1.00e-08
  Integral threshold = 0.00e+00

  ==> Primary Basis <==

  Basis Set: CC-PV(Q+D)Z
    Blend: CC-PV(Q+D)Z
    Number of shells: 48
    Number of basis function: 174
    Number of Cartesian functions: 220
    Spherical Harmonics?: true
    Max angular momentum: 4

  ==> DFT Potential <==

   => Composite Functional: WB97X-V <= 

    wB97X-V Hyb-GGA Exchange-Correlation Functional

    N. Mardirossian and M. Head-Gordon, Phys. Chem. Chem. Phys. 16, 9904 (2014)

    Deriv               =              1
    GGA                 =           TRUE
    Meta                =          FALSE

    Exchange Hybrid     =           TRUE
    MP2 Hybrid          =          FALSE

   => Exchange-Correlation Functionals <=

    1.0000   wB97X-V range-separated functional

   => Exact (HF) Exchange <=

    0.8330            HF,LR [omega = 0.3000]
    0.1670               HF 

   => VV10 Non-Local Parameters <=

    VV10 B              =     6.0000E+00
    VV10 C              =     1.0000E-02

   => Molecular Quadrature <=

    Radial Scheme          =       TREUTLER
    Pruning Scheme         =           FLAT
    Nuclear Scheme         =       TREUTLER

    BS radius alpha        =              1
    Pruning alpha          =              1
    Radial Points          =             75
    Spherical Points       =            302
    Total Points           =          65778
    Total Blocks           =            572
    Max Points             =            256
    Max Functions          =            174

   => Loading Basis Set <=

    Name: (CC-PV(Q+D)Z AUX)
    Role: JKFIT
    Keyword: DF_BASIS_SCF
    atoms 1 entry O          line   253 file /work/zw18965/.conda/envs/p4env/share/psi4/basis/cc-pvqz-jkfit.gbs 
    atoms 2 entry C          line   137 file /work/zw18965/.conda/envs/p4env/share/psi4/basis/cc-pvqz-jkfit.gbs 
    atoms 3 entry S          line   673 file /work/zw18965/.conda/envs/p4env/share/psi4/basis/cc-pvqz-jkfit.gbs 

  ==> Pre-Iterations <==

   -------------------------------------------------------
    Irrep   Nso     Nmo     Nalpha   Nbeta   Ndocc  Nsocc
   -------------------------------------------------------
     A1        70      70       0       0       0       0
     A2        22      22       0       0       0       0
     B1        41      41       0       0       0       0
     B2        41      41       0       0       0       0
   -------------------------------------------------------
    Total     174     174      15      15      15       0
   -------------------------------------------------------

  ==> Integral Setup <==

  ==> DiskDFJK: Density-Fitted J/K Matrices <==

    J tasked:                  Yes
    K tasked:                  Yes
    wK tasked:                 Yes
    Omega:               3.000E-01
    OpenMP threads:             24
    Integrals threads:          24
    Memory [MiB]:           102717
    Algorithm:                Core
    Integral Cache:           NONE
    Schwarz Cutoff:          1E-12
    Fitting Condition:       1E-10

   => Auxiliary Basis Set <=

  Basis Set: (CC-PV(Q+D)Z AUX)
    Blend: CC-PVQZ-JKFIT
    Number of shells: 96
    Number of basis function: 360
    Number of Cartesian functions: 475
    Spherical Harmonics?: true
    Max angular momentum: 5

  Cached 100.0% of DFT collocation blocks in 0.273 [GiB].

  Minimum eigenvalue in the overlap matrix is 1.3056419333E-04.
  Using Symmetric Orthogonalization.

  SCF Guess: Superposition of Atomic Densities via on-the-fly atomic UHF.

  ==> Iterations <==

                           Total Energy        Delta E     RMS |[F,P]|

   @DF-RKS iter SAD:  -510.95314383269596   -5.10953e+02   0.00000e+00 
   @DF-RKS iter   1:  -511.43469977199862   -4.81556e-01   5.18111e-03 DIIS
   @DF-RKS iter   2:  -511.36937413682750    6.53256e-02   6.93135e-03 DIIS
   @DF-RKS iter   3:  -511.50841271313629   -1.39039e-01   8.18350e-04 DIIS
   @DF-RKS iter   4:  -511.51070480786512   -2.29209e-03   1.52136e-04 DIIS
   @DF-RKS iter   5:  -511.51081944159591   -1.14634e-04   6.75478e-05 DIIS
   @DF-RKS iter   6:  -511.51084597003870   -2.65284e-05   2.64276e-05 DIIS
   @DF-RKS iter   7:  -511.51085014862986   -4.17859e-06   3.79800e-06 DIIS
   @DF-RKS iter   8:  -511.51085033454490   -1.85915e-07   7.12598e-07 DIIS
   @DF-RKS iter   9:  -511.51085033963375   -5.08885e-09   2.20930e-07 DIIS
   @DF-RKS iter  10:  -511.51085033988193   -2.48178e-10   4.00368e-08 DIIS
   @DF-RKS iter  11:  -511.51085033988846   -6.53699e-12   4.49743e-09 DIIS
  Energy and wave function converged.


  ==> Post-Iterations <==

    Orbital Energies [Eh]
    ---------------------

    Doubly Occupied:                                                      

       1A1   -88.922333     2A1   -19.301319     3A1   -10.442799  
       4A1    -8.079329     5A1    -6.036586     1B1    -6.030084  
       1B2    -6.030084     6A1    -1.277596     7A1    -0.953017  
       8A1    -0.672326     2B1    -0.598258     2B2    -0.598258  
       9A1    -0.581480     3B1    -0.401679     3B2    -0.401679  

    Virtual:                                                              

       4B1     0.049620     4B2     0.049620    10A1     0.115466  
      11A1     0.157264    12A1     0.210160     5B1     0.261426  
       5B2     0.261426     6B2     0.318681     6B1     0.318681  
       1A2     0.323763    13A1     0.323763    14A1     0.326062  
      15A1     0.444756     7B1     0.474264     7B2     0.474264  
      16A1     0.583090    17A1     0.587597    18A1     0.588240  
       2A2     0.588241     8B2     0.588739     8B1     0.588739  
      19A1     0.807101    20A1     0.924996     9B1     0.969347  
       9B2     0.969347    21A1     1.028258     3A2     1.028258  
      22A1     1.110425     4A2     1.115152    23A1     1.115152  
      10B2     1.120991    10B1     1.120991    11B1     1.138665  
      11B2     1.138665    24A1     1.233980    12B1     1.292858  
      12B2     1.292858    13B2     1.305672    13B1     1.305672  
      25A1     1.320154    26A1     1.403555     5A2     1.403829  
      27A1     1.403830    14B2     1.594427    14B1     1.594427  
      15B1     1.715067    15B2     1.715067    16B2     1.759686  
      16B1     1.759686    28A1     1.774440    29A1     1.859832  
       6A2     1.859834    30A1     1.905520    31A1     2.164974  
      17B2     2.169795    17B1     2.169795     7A2     2.188469  
      32A1     2.188469    33A1     2.364597    18B2     2.635884  
      18B1     2.635884     8A2     2.740290    34A1     2.740303  
      19B1     2.863014    19B2     2.863014    35A1     2.890733  
      20B2     2.999511    20B1     2.999511    21B2     3.033101  
      21B1     3.033101    36A1     3.037011     9A2     3.055003  
      37A1     3.055013    38A1     3.107678    22B2     3.228558  
      22B1     3.228558    10A2     3.234790    39A1     3.234792  
      23B2     3.295928    23B1     3.295928    40A1     3.418097  
      11A2     3.418099    24B1     3.590191    24B2     3.590191  
      41A1     3.726687    42A1     3.755557    43A1     3.880097  
      12A2     3.880100    44A1     3.952096    25B2     3.954656  
      25B1     3.954656    45A1     4.164606    46A1     4.169575  
      13A2     4.169580    26B2     4.483474    26B1     4.483474  
      27B2     4.746803    27B1     4.746803    47A1     4.821505  
      14A2     4.821514    48A1     4.834792    49A1     4.972433  
      28B1     5.069008    28B2     5.069008    29B1     5.327052  
      29B2     5.327052    15A2     5.727479    50A1     5.727488  
      30B2     5.733527    30B1     5.733527    31B2     5.857274  
      31B1     5.857274    51A1     5.913153    32B2     5.920881  
      32B1     5.920881    16A2     6.043439    52A1     6.043447  
      53A1     6.305445    17A2     6.305446    54A1     6.614897  
      33B2     6.667529    33B1     6.667529    55A1     7.032438  
      34B2     7.951556    34B1     7.951556    56A1     8.312215  
      57A1     8.515442    58A1     8.723829    18A2     8.723861  
      59A1     8.903634    19A2     8.903685    35B1     9.003539  
      35B2     9.003539    36B1     9.149906    36B2     9.149906  
      60A1     9.661010    20A2    10.055089    61A1    10.055091  
      37B2    10.215018    37B1    10.215018    62A1    10.548575  
      38B2    10.723003    38B1    10.723003    39B2    11.002200  
      39B1    11.002200    63A1    11.125156    21A2    11.399479  
      64A1    11.399483    40B2    12.031388    40B1    12.031388  
      22A2    12.108537    65A1    12.108574    66A1    13.080885  
      41B2    13.703632    41B1    13.703632    67A1    13.920030  
      68A1    18.928451    69A1    23.603616    70A1    41.604372  

    Final Occupation by Irrep:
             A1    A2    B1    B2 
    DOCC [     9,    0,    3,    3 ]

  @DF-RKS Final Energy:  -511.51085033988846

   => Energetics <=

    Nuclear Repulsion Energy =             79.1947542162670999
    One-Electron Energy =                -860.8958247085275843
    Two-Electron Energy =                 299.3391717490879955
    DFT Exchange-Correlation Energy =     -29.2734692528524718
    Empirical Dispersion Energy =           0.0000000000000000
    VV10 Nonlocal Energy =                  0.1245176561364706
    Total Energy =                       -511.5108503398884636

Computation Completed


Properties will be evaluated at   0.000000,   0.000000,   0.000000 [a0]

Properties computed using the SCF density matrix

  Nuclear Dipole Moment: [e a0]
     X:     0.0000      Y:     0.0000      Z:     0.0194

  Electronic Dipole Moment: [e a0]
     X:     0.0000      Y:     0.0000      Z:     0.2294

  Dipole Moment: [e a0]
     X:     0.0000      Y:     0.0000      Z:     0.2488     Total:     0.2488

  Dipole Moment: [D]
     X:     0.0000      Y:     0.0000      Z:     0.6324     Total:     0.6324


*** tstop() called on bp1-compute00065.data.bp.acrc.priv at Tue Apr 27 17:05:38 2021
Module time:
	user time   =     102.15 seconds =       1.70 minutes
	system time =       3.30 seconds =       0.06 minutes
	total time  =          5 seconds =       0.08 minutes
Total time:
	user time   =     410.24 seconds =       6.84 minutes
	system time =      16.64 seconds =       0.28 minutes
	total time  =         19 seconds =       0.32 minutes

  //>>>>>>>>>>>>>>>>>>>>>>>>>>>>>>>>>>>//
  //    Loading displacement 5 of 5    //
  //<<<<<<<<<<<<<<<<<<<<<<<<<<<<<<<<<<<//

*** tstart() called on bp1-compute00065.data.bp.acrc.priv
*** at Tue Apr 27 17:05:38 2021

   => Loading Basis Set <=

    Name: CC-PV(Q+D)Z
    Role: ORBITAL
    Keyword: BASIS
    atoms 1 entry O          line   349 file /work/zw18965/.conda/envs/p4env/share/psi4/basis/cc-pv_qpd_z.gbs 
    atoms 2 entry C          line   249 file /work/zw18965/.conda/envs/p4env/share/psi4/basis/cc-pv_qpd_z.gbs 
    atoms 3 entry S          line   978 file /work/zw18965/.conda/envs/p4env/share/psi4/basis/cc-pv_qpd_z.gbs 


         ---------------------------------------------------------
                                   SCF
               by Justin Turney, Rob Parrish, Andy Simmonett
                          and Daniel G. A. Smith
                              RKS Reference
                       24 Threads, 137329 MiB Core
         ---------------------------------------------------------

  ==> Geometry <==

    Molecular point group: c2v
    Full point group: C_inf_v

    Geometry (in Angstrom), charge = 0, multiplicity = 1:

       Center              X                  Y                   Z               Mass       
    ------------   -----------------  -----------------  -----------------  -----------------
         O            0.000000000000     0.000000000000    -1.684829158394    15.994914619570
         C            0.000000000000     0.000000000000    -0.525745823852    12.000000000000
         S            0.000000000000     0.000000000000     1.040209382804    31.972071174400

  Running in c2v symmetry.

  Rotational constants: A = ************  B =      0.20233  C =      0.20233 [cm^-1]
  Rotational constants: A = ************  B =   6065.82617  C =   6065.82617 [MHz]
  Nuclear repulsion =   79.211628369170626

  Charge       = 0
  Multiplicity = 1
  Electrons    = 30
  Nalpha       = 15
  Nbeta        = 15

  ==> Algorithm <==

  SCF Algorithm Type is DF.
  DIIS enabled.
  MOM disabled.
  Fractional occupation disabled.
  Guess Type is SAD.
  Energy threshold   = 1.00e-08
  Density threshold  = 1.00e-08
  Integral threshold = 0.00e+00

  ==> Primary Basis <==

  Basis Set: CC-PV(Q+D)Z
    Blend: CC-PV(Q+D)Z
    Number of shells: 48
    Number of basis function: 174
    Number of Cartesian functions: 220
    Spherical Harmonics?: true
    Max angular momentum: 4

  ==> DFT Potential <==

   => Composite Functional: WB97X-V <= 

    wB97X-V Hyb-GGA Exchange-Correlation Functional

    N. Mardirossian and M. Head-Gordon, Phys. Chem. Chem. Phys. 16, 9904 (2014)

    Deriv               =              1
    GGA                 =           TRUE
    Meta                =          FALSE

    Exchange Hybrid     =           TRUE
    MP2 Hybrid          =          FALSE

   => Exchange-Correlation Functionals <=

    1.0000   wB97X-V range-separated functional

   => Exact (HF) Exchange <=

    0.8330            HF,LR [omega = 0.3000]
    0.1670               HF 

   => VV10 Non-Local Parameters <=

    VV10 B              =     6.0000E+00
    VV10 C              =     1.0000E-02

   => Molecular Quadrature <=

    Radial Scheme          =       TREUTLER
    Pruning Scheme         =           FLAT
    Nuclear Scheme         =       TREUTLER

    BS radius alpha        =              1
    Pruning alpha          =              1
    Radial Points          =             75
    Spherical Points       =            302
    Total Points           =          65778
    Total Blocks           =            572
    Max Points             =            255
    Max Functions          =            174

   => Loading Basis Set <=

    Name: (CC-PV(Q+D)Z AUX)
    Role: JKFIT
    Keyword: DF_BASIS_SCF
    atoms 1 entry O          line   253 file /work/zw18965/.conda/envs/p4env/share/psi4/basis/cc-pvqz-jkfit.gbs 
    atoms 2 entry C          line   137 file /work/zw18965/.conda/envs/p4env/share/psi4/basis/cc-pvqz-jkfit.gbs 
    atoms 3 entry S          line   673 file /work/zw18965/.conda/envs/p4env/share/psi4/basis/cc-pvqz-jkfit.gbs 

  ==> Pre-Iterations <==

   -------------------------------------------------------
    Irrep   Nso     Nmo     Nalpha   Nbeta   Ndocc  Nsocc
   -------------------------------------------------------
     A1        70      70       0       0       0       0
     A2        22      22       0       0       0       0
     B1        41      41       0       0       0       0
     B2        41      41       0       0       0       0
   -------------------------------------------------------
    Total     174     174      15      15      15       0
   -------------------------------------------------------

  ==> Integral Setup <==

  ==> DiskDFJK: Density-Fitted J/K Matrices <==

    J tasked:                  Yes
    K tasked:                  Yes
    wK tasked:                 Yes
    Omega:               3.000E-01
    OpenMP threads:             24
    Integrals threads:          24
    Memory [MiB]:           102717
    Algorithm:                Core
    Integral Cache:           NONE
    Schwarz Cutoff:          1E-12
    Fitting Condition:       1E-10

   => Auxiliary Basis Set <=

  Basis Set: (CC-PV(Q+D)Z AUX)
    Blend: CC-PVQZ-JKFIT
    Number of shells: 96
    Number of basis function: 360
    Number of Cartesian functions: 475
    Spherical Harmonics?: true
    Max angular momentum: 5

  Cached 100.0% of DFT collocation blocks in 0.273 [GiB].

  Minimum eigenvalue in the overlap matrix is 1.2982078500E-04.
  Using Symmetric Orthogonalization.

  SCF Guess: Superposition of Atomic Densities via on-the-fly atomic UHF.

  ==> Iterations <==

                           Total Energy        Delta E     RMS |[F,P]|

   @DF-RKS iter SAD:  -510.95349216900678   -5.10953e+02   0.00000e+00 
   @DF-RKS iter   1:  -511.43446379647582   -4.80972e-01   5.18533e-03 DIIS
   @DF-RKS iter   2:  -511.36815224879274    6.63115e-02   6.95555e-03 DIIS
   @DF-RKS iter   3:  -511.50839954828587   -1.40247e-01   8.18773e-04 DIIS
   @DF-RKS iter   4:  -511.51069321364520   -2.29367e-03   1.51281e-04 DIIS
   @DF-RKS iter   5:  -511.51080721964706   -1.14006e-04   6.66327e-05 DIIS
   @DF-RKS iter   6:  -511.51083299167311   -2.57720e-05   2.65124e-05 DIIS
   @DF-RKS iter   7:  -511.51083716020798   -4.16853e-06   3.78893e-06 DIIS
   @DF-RKS iter   8:  -511.51083734565316   -1.85445e-07   7.10772e-07 DIIS
   @DF-RKS iter   9:  -511.51083735072672   -5.07356e-09   2.21179e-07 DIIS
   @DF-RKS iter  10:  -511.51083735097467   -2.47951e-10   4.03859e-08 DIIS
   @DF-RKS iter  11:  -511.51083735098211   -7.44649e-12   4.52098e-09 DIIS
  Energy and wave function converged.


  ==> Post-Iterations <==

    Orbital Energies [Eh]
    ---------------------

    Doubly Occupied:                                                      

       1A1   -88.922444     2A1   -19.300905     3A1   -10.442678  
       4A1    -8.079516     5A1    -6.036744     1B2    -6.030278  
       1B1    -6.030278     6A1    -1.276478     7A1    -0.953687  
       8A1    -0.671931     2B2    -0.597653     2B1    -0.597653  
       9A1    -0.581539     3B2    -0.401910     3B1    -0.401910  

    Virtual:                                                              

       4B2     0.049463     4B1     0.049463    10A1     0.115702  
      11A1     0.157217    12A1     0.210119     5B2     0.261361  
       5B1     0.261361     6B1     0.318788     6B2     0.318788  
       1A2     0.323552    13A1     0.323553    14A1     0.326318  
      15A1     0.444817     7B2     0.474397     7B1     0.474397  
      16A1     0.583033    17A1     0.587126    18A1     0.588492  
       2A2     0.588493     8B1     0.588951     8B2     0.588951  
      19A1     0.807080    20A1     0.924893     9B2     0.969134  
       9B1     0.969134    21A1     1.027954     3A2     1.027954  
      22A1     1.109908     4A2     1.115284    23A1     1.115284  
      10B2     1.120714    10B1     1.120714    11B2     1.138844  
      11B1     1.138844    24A1     1.233984    12B2     1.292618  
      12B1     1.292618    13B1     1.306137    13B2     1.306137  
      25A1     1.321027    26A1     1.403950     5A2     1.404018  
      27A1     1.404019    14B1     1.595123    14B2     1.595123  
      15B2     1.714982    15B1     1.714982    16B1     1.759988  
      16B2     1.759988    28A1     1.773733    29A1     1.860065  
       6A2     1.860067    30A1     1.905793    31A1     2.165948  
      17B1     2.170217    17B2     2.170217    32A1     2.188874  
       7A2     2.188874    33A1     2.363985    18B1     2.636170  
      18B2     2.636170     8A2     2.740037    34A1     2.740049  
      19B2     2.862601    19B1     2.862601    35A1     2.891353  
      20B1     2.999946    20B2     2.999946    21B2     3.033091  
      21B1     3.033091    36A1     3.038146     9A2     3.054655  
      37A1     3.054666    38A1     3.107950    22B2     3.228413  
      22B1     3.228413    10A2     3.234939    39A1     3.234941  
      23B2     3.296019    23B1     3.296019    40A1     3.418527  
      11A2     3.418529    24B2     3.591094    24B1     3.591094  
      41A1     3.726557    42A1     3.755999    43A1     3.880560  
      12A2     3.880564    44A1     3.953246    25B1     3.956161  
      25B2     3.956161    45A1     4.166079    46A1     4.169684  
      13A2     4.169689    26B1     4.484111    26B2     4.484111  
      27B1     4.746082    27B2     4.746082    47A1     4.821699  
      14A2     4.821708    48A1     4.836716    49A1     4.969881  
      28B2     5.069257    28B1     5.069257    29B2     5.327557  
      29B1     5.327557    15A2     5.727749    50A1     5.727757  
      30B1     5.734254    30B2     5.734254    31B1     5.856715  
      31B2     5.856715    51A1     5.912769    32B1     5.921203  
      32B2     5.921203    16A2     6.044449    52A1     6.044458  
      53A1     6.304988    17A2     6.304988    54A1     6.612340  
      33B1     6.668939    33B2     6.668939    55A1     7.035594  
      34B1     7.950394    34B2     7.950394    56A1     8.308025  
      57A1     8.517654    58A1     8.723635    18A2     8.723667  
      59A1     8.904161    19A2     8.904212    35B2     9.004861  
      35B1     9.004861    36B1     9.148694    36B2     9.148694  
      60A1     9.660207    20A2    10.051569    61A1    10.051571  
      37B1    10.214611    37B2    10.214611    62A1    10.550538  
      38B1    10.722197    38B2    10.722197    39B1    11.002567  
      39B2    11.002567    63A1    11.124182    21A2    11.399328  
      64A1    11.399332    40B1    12.030091    40B2    12.030091  
      22A2    12.107879    65A1    12.107916    66A1    13.077418  
      41B1    13.699083    41B2    13.699083    67A1    13.916687  
      68A1    18.944007    69A1    23.591724    70A1    41.598062  

    Final Occupation by Irrep:
             A1    A2    B1    B2 
    DOCC [     9,    0,    3,    3 ]

  @DF-RKS Final Energy:  -511.51083735098211

   => Energetics <=

    Nuclear Repulsion Energy =             79.2116283691706258
    One-Electron Energy =                -860.9320505343023342
    Two-Electron Energy =                 299.3584613229687648
    DFT Exchange-Correlation Energy =     -29.2733929104508732
    Empirical Dispersion Energy =           0.0000000000000000
    VV10 Nonlocal Energy =                  0.1245164016316910
    Total Energy =                       -511.5108373509821149

Computation Completed


Properties will be evaluated at   0.000000,   0.000000,   0.000000 [a0]

Properties computed using the SCF density matrix

  Nuclear Dipole Moment: [e a0]
     X:     0.0000      Y:     0.0000      Z:     0.0194

  Electronic Dipole Moment: [e a0]
     X:     0.0000      Y:     0.0000      Z:     0.2374

  Dipole Moment: [e a0]
     X:     0.0000      Y:     0.0000      Z:     0.2567     Total:     0.2567

  Dipole Moment: [D]
     X:     0.0000      Y:     0.0000      Z:     0.6525     Total:     0.6525


*** tstop() called on bp1-compute00065.data.bp.acrc.priv at Tue Apr 27 17:05:42 2021
Module time:
	user time   =      97.82 seconds =       1.63 minutes
	system time =       4.05 seconds =       0.07 minutes
	total time  =          4 seconds =       0.07 minutes
Total time:
	user time   =     508.22 seconds =       8.47 minutes
	system time =      20.69 seconds =       0.34 minutes
	total time  =         23 seconds =       0.38 minutes

         ----------------------------------------------------------
                                   FINDIF
                     R. A. King and Jonathon Misiewicz
         ---------------------------------------------------------

  Computing gradient from energies.
    Using 3-point formula.
    Energy without displacement: -511.5108451673
    Check energies below for precision!
    Forces are for mass-weighted, symmetry-adapted cartesians (in au).

     Coord      Energy(-1)        Energy(+1)            Force
        0   -511.5108209096   -511.5108671771     -0.0046267476
        1   -511.5108503399   -511.5108373510      0.0012988906


-------------------------------------------------------------
  ## New Matrix (Symmetry 0) ##
  Irrep: 1 Size: 3 x 3

                 1                   2                   3

    1     0.00000000000000     0.00000000000000    -0.01584525112763
    2     0.00000000000000     0.00000000000000     0.00816089711815
    3     0.00000000000000     0.00000000000000     0.00768435400948




			-----------------------------------------
			 OPTKING 2.0: for geometry optimizations 
			  - R.A. King,  Bethel University        
			-----------------------------------------
	At level 1: Red. Int., RFO, no backsteps, dynamic trust

	Internal coordinates to be generated automatically.
	Detected frag 1 with atoms:  1 2 3
	---Fragment 1 Bond Connectivity---
	 1 : 2
	 2 : 1 3
	 3 : 2

	---Fragment 1 Geometry and Gradient---
	 O           0.0000000000        0.0000000000       -3.1838656775
	 C           0.0000000000        0.0000000000       -0.9947463870
	 S           0.0000000000        0.0000000000        1.9661727879
	             0.0000000000        0.0000000000       -0.0158452511
	             0.0000000000        0.0000000000        0.0081608971
	             0.0000000000        0.0000000000        0.0076843540

	Previous optimization step data not found.  Starting new optimization.

	---Fragment 1 Intrafragment Coordinates---
	 - Coordinate -           - BOHR/RAD -       - ANG/DEG -
	 R(1,2)           =         2.189119	       1.158432
	 R(2,3)           =         2.960919	       1.566851
	 L(1,2,3)         =         3.141593	     180.000000
	 l(1,2,3)         =         3.141593	     180.000000

	Current energy   :      -511.5108451673

	Generating empirical Hessian (Schlegel '84) for each fragment.
	Taking RFO optimization step.
	Going to follow RFO solution 1.
	Using RFO vector 1.
	Norm of target step-size    0.01804
	Projected energy change by RFO approximation:        -0.0002961560

	Back-transformation to cartesian coordinates...
	Successfully converged to displaced geometry.

	--- Internal Coordinate Step in ANG or DEG, aJ/ANG or AJ/DEG ---
	 ---------------------------------------------------------------------------
	   Coordinate                Previous        Force       Change         New 
	   ----------                --------       ------       ------       ------
	    1 R(1,2)          =      1.158432    -0.130545    -0.006507     1.151925
	    2 R(2,3)          =      1.566851    -0.063309    -0.006983     1.559868
	    3 L(1,2,3)        =    180.000000     0.000000     0.000000   180.000000
	    4 l(1,2,3)        =    180.000000     0.000000     0.000000   180.000000
	 ---------------------------------------------------------------------------
	Successfully symmetrized geometry.

  ==> Convergence Check <==

  Measures of convergence in internal coordinates in au.
  Criteria marked as inactive (o), active & met (*), and active & unmet ( ).
  --------------------------------------------------------------------------------------------- ~
   Step     Total Energy     Delta E     MAX Force     RMS Force      MAX Disp      RMS Disp    ~
  --------------------------------------------------------------------------------------------- ~
    Convergence Criteria    1.00e-06 *    3.00e-04 *             o    1.20e-03 *             o  ~
  --------------------------------------------------------------------------------------------- ~
      1    -511.51084517   -5.12e+02      1.58e-02      8.81e-03 o    1.32e-02      9.02e-03 o  ~
  ---------------------------------------------------------------------------------------------

	Writing optimization data to binary file.
	Structure for next step:
	Cartesian Geometry (in Angstrom)
	    O     0.0000000000   0.0000000000  -1.6781632706
	    C     0.0000000000  -0.0000000000  -0.5262385122
	    S     0.0000000000   0.0000000000   1.0336293423
			--------------------------
			 OPTKING Finished Execution 
			--------------------------

    Structure for next step:
    Molecular point group: c2v
    Full point group: C_inf_v

    Geometry (in Angstrom), charge = 0, multiplicity = 1:

    O            0.000000000000     0.000000000000    -1.676334446264
    C           -0.000000000000     0.000000000000    -0.524409683331
    S            0.000000000000     0.000000000000     1.035458177270

gradient() will perform gradient computation by finite difference of analytic energies.

         ----------------------------------------------------------
                                   FINDIF
                     R. A. King and Jonathon Misiewicz
         ---------------------------------------------------------

  Using finite-differences of energies to determine gradients.
    Generating geometries for use with 3-point formula.
    Displacement size will be 5.00e-03.
    Number of atoms is 3.
    Number of symmetric SALCs is 2.
    Translations projected? 1. Rotations projected? 1.
    Number of geometries (including reference) is 5.

  //>>>>>>>>>>>>>>>>>>>>>>>>>>>>>>>>>>>//
  //    Loading displacement 1 of 5    //
  //<<<<<<<<<<<<<<<<<<<<<<<<<<<<<<<<<<<//

*** tstart() called on bp1-compute00065.data.bp.acrc.priv
*** at Tue Apr 27 17:05:42 2021

   => Loading Basis Set <=

    Name: CC-PV(Q+D)Z
    Role: ORBITAL
    Keyword: BASIS
    atoms 1 entry O          line   349 file /work/zw18965/.conda/envs/p4env/share/psi4/basis/cc-pv_qpd_z.gbs 
    atoms 2 entry C          line   249 file /work/zw18965/.conda/envs/p4env/share/psi4/basis/cc-pv_qpd_z.gbs 
    atoms 3 entry S          line   978 file /work/zw18965/.conda/envs/p4env/share/psi4/basis/cc-pv_qpd_z.gbs 


         ---------------------------------------------------------
                                   SCF
               by Justin Turney, Rob Parrish, Andy Simmonett
                          and Daniel G. A. Smith
                              RKS Reference
                       24 Threads, 137329 MiB Core
         ---------------------------------------------------------

  ==> Geometry <==

    Molecular point group: c2v
    Full point group: C_inf_v

    Geometry (in Angstrom), charge = 0, multiplicity = 1:

       Center              X                  Y                   Z               Mass       
    ------------   -----------------  -----------------  -----------------  -----------------
         O           -0.000000000000     0.000000000000    -1.676334446264    15.994914619570
         C            0.000000000000     0.000000000000    -0.524409683331    12.000000000000
         S           -0.000000000000     0.000000000000     1.035458177270    31.972071174400

  Running in c2v symmetry.

  Rotational constants: A = ************  B =      0.20427  C =      0.20427 [cm^-1]
  Rotational constants: A = ************  B =   6123.80629  C =   6123.80629 [MHz]
  Nuclear repulsion =   79.595826117985467

  Charge       = 0
  Multiplicity = 1
  Electrons    = 30
  Nalpha       = 15
  Nbeta        = 15

  ==> Algorithm <==

  SCF Algorithm Type is DF.
  DIIS enabled.
  MOM disabled.
  Fractional occupation disabled.
  Guess Type is READ.
  Energy threshold   = 1.00e-08
  Density threshold  = 1.00e-08
  Integral threshold = 0.00e+00

  ==> Primary Basis <==

  Basis Set: CC-PV(Q+D)Z
    Blend: CC-PV(Q+D)Z
    Number of shells: 48
    Number of basis function: 174
    Number of Cartesian functions: 220
    Spherical Harmonics?: true
    Max angular momentum: 4

  ==> DFT Potential <==

   => Composite Functional: WB97X-V <= 

    wB97X-V Hyb-GGA Exchange-Correlation Functional

    N. Mardirossian and M. Head-Gordon, Phys. Chem. Chem. Phys. 16, 9904 (2014)

    Deriv               =              1
    GGA                 =           TRUE
    Meta                =          FALSE

    Exchange Hybrid     =           TRUE
    MP2 Hybrid          =          FALSE

   => Exchange-Correlation Functionals <=

    1.0000   wB97X-V range-separated functional

   => Exact (HF) Exchange <=

    0.8330            HF,LR [omega = 0.3000]
    0.1670               HF 

   => VV10 Non-Local Parameters <=

    VV10 B              =     6.0000E+00
    VV10 C              =     1.0000E-02

   => Molecular Quadrature <=

    Radial Scheme          =       TREUTLER
    Pruning Scheme         =           FLAT
    Nuclear Scheme         =       TREUTLER

    BS radius alpha        =              1
    Pruning alpha          =              1
    Radial Points          =             75
    Spherical Points       =            302
    Total Points           =          65778
    Total Blocks           =            571
    Max Points             =            255
    Max Functions          =            174

   => Loading Basis Set <=

    Name: (CC-PV(Q+D)Z AUX)
    Role: JKFIT
    Keyword: DF_BASIS_SCF
    atoms 1 entry O          line   253 file /work/zw18965/.conda/envs/p4env/share/psi4/basis/cc-pvqz-jkfit.gbs 
    atoms 2 entry C          line   137 file /work/zw18965/.conda/envs/p4env/share/psi4/basis/cc-pvqz-jkfit.gbs 
    atoms 3 entry S          line   673 file /work/zw18965/.conda/envs/p4env/share/psi4/basis/cc-pvqz-jkfit.gbs 

   => Loading Basis Set <=

    Name: CC-PV(Q+D)Z
    Role: ORBITAL
    Keyword: BASIS
    atoms 1 entry O          line   349 file /work/zw18965/.conda/envs/p4env/share/psi4/basis/cc-pv_qpd_z.gbs 
    atoms 2 entry C          line   249 file /work/zw18965/.conda/envs/p4env/share/psi4/basis/cc-pv_qpd_z.gbs 
    atoms 3 entry S          line   978 file /work/zw18965/.conda/envs/p4env/share/psi4/basis/cc-pv_qpd_z.gbs 

  Reading orbitals from file 180, no projection.

  ==> Pre-Iterations <==

   -------------------------------------------------------
    Irrep   Nso     Nmo     Nalpha   Nbeta   Ndocc  Nsocc
   -------------------------------------------------------
     A1        70      70       0       0       0       0
     A2        22      22       0       0       0       0
     B1        41      41       0       0       0       0
     B2        41      41       0       0       0       0
   -------------------------------------------------------
    Total     174     174      15      15      15       0
   -------------------------------------------------------

  ==> Integral Setup <==

  ==> DiskDFJK: Density-Fitted J/K Matrices <==

    J tasked:                  Yes
    K tasked:                  Yes
    wK tasked:                 Yes
    Omega:               3.000E-01
    OpenMP threads:             24
    Integrals threads:          24
    Memory [MiB]:           102716
    Algorithm:                Core
    Integral Cache:           NONE
    Schwarz Cutoff:          1E-12
    Fitting Condition:       1E-10

   => Auxiliary Basis Set <=

  Basis Set: (CC-PV(Q+D)Z AUX)
    Blend: CC-PVQZ-JKFIT
    Number of shells: 96
    Number of basis function: 360
    Number of Cartesian functions: 475
    Spherical Harmonics?: true
    Max angular momentum: 5

  Cached 100.0% of DFT collocation blocks in 0.273 [GiB].

  Minimum eigenvalue in the overlap matrix is 1.2675164290E-04.
  Using Symmetric Orthogonalization.

  SCF Guess: Orbitals guess was supplied from a previous computation.

  ==> Iterations <==

                           Total Energy        Delta E     RMS |[F,P]|

   @DF-RKS iter   0:  -511.52366160706669   -5.11524e+02   3.32092e-04 
   @DF-RKS iter   1:  -511.51097947769841    1.26821e-02   7.25104e-05 DIIS
   @DF-RKS iter   2:  -511.51098044020648   -9.62508e-07   7.97248e-05 DIIS
   @DF-RKS iter   3:  -511.51100524815877   -2.48080e-05   8.78217e-06 DIIS
   @DF-RKS iter   4:  -511.51100542552274   -1.77364e-07   5.88464e-06 DIIS
   @DF-RKS iter   5:  -511.51100552837420   -1.02851e-07   1.73715e-06 DIIS
   @DF-RKS iter   6:  -511.51100554001215   -1.16380e-08   2.47338e-07 DIIS
   @DF-RKS iter   7:  -511.51100554083246   -8.20307e-10   5.15398e-08 DIIS
   @DF-RKS iter   8:  -511.51100554086742   -3.49587e-11   1.69961e-08 DIIS
   @DF-RKS iter   9:  -511.51100554086958   -2.16005e-12   3.42256e-09 DIIS
  Energy and wave function converged.


  ==> Post-Iterations <==

    Orbital Energies [Eh]
    ---------------------

    Doubly Occupied:                                                      

       1A1   -88.920849     2A1   -19.300224     3A1   -10.440202  
       4A1    -8.078268     5A1    -6.035450     1B1    -6.029020  
       1B2    -6.029020     6A1    -1.280372     7A1    -0.954759  
       8A1    -0.671784     2B2    -0.600228     2B1    -0.600228  
       9A1    -0.581451     3B2    -0.401744     3B1    -0.401744  

    Virtual:                                                              

       4B1     0.051973     4B2     0.051973    10A1     0.117640  
      11A1     0.157140    12A1     0.210897     5B1     0.261332  
       5B2     0.261332     6B2     0.318580     6B1     0.318580  
       1A2     0.323741    13A1     0.323742    14A1     0.327188  
      15A1     0.446504     7B2     0.476621     7B1     0.476621  
      16A1     0.584485     8B2     0.588610     8B1     0.588610  
      17A1     0.589012     2A2     0.589013    18A1     0.589698  
      19A1     0.808374    20A1     0.926919     9B2     0.971068  
       9B1     0.971068    21A1     1.028231     3A2     1.028231  
      22A1     1.115499     4A2     1.116243    23A1     1.116243  
      10B2     1.120932    10B1     1.120932    11B2     1.141979  
      11B1     1.141979    24A1     1.234724    12B1     1.292924  
      12B2     1.292924    13B2     1.305167    13B1     1.305167  
      25A1     1.325546    26A1     1.404751     5A2     1.407228  
      27A1     1.407228    14B2     1.595977    14B1     1.595977  
      15B2     1.714159    15B1     1.714159    16B1     1.760601  
      16B2     1.760601    28A1     1.771511    29A1     1.860183  
       6A2     1.860184    30A1     1.910139    31A1     2.169548  
      17B2     2.176391    17B1     2.176391    32A1     2.193196  
       7A2     2.193196    33A1     2.363701    18B2     2.645273  
      18B1     2.645273     8A2     2.740946    34A1     2.740959  
      19B1     2.863933    19B2     2.863933    35A1     2.901120  
      20B2     3.007365    20B1     3.007365    21B2     3.033253  
      21B1     3.033253    36A1     3.036899     9A2     3.055036  
      37A1     3.055046    38A1     3.110320    22B1     3.229333  
      22B2     3.229333    10A2     3.239088    39A1     3.239089  
      23B1     3.299132    23B2     3.299132    40A1     3.424079  
      11A2     3.424081    24B2     3.587198    24B1     3.587198  
      41A1     3.731292    42A1     3.760017    43A1     3.883124  
      12A2     3.883127    25B2     3.957586    25B1     3.957586  
[...]
         ---------------------------------------------------------

  ==> Geometry <==

    Molecular point group: cs
    Full point group: Cs

    Geometry (in Angstrom), charge = 0, multiplicity = 1:

       Center              X                  Y                   Z               Mass       
    ------------   -----------------  -----------------  -----------------  -----------------
         O            0.000000000000    -0.000287381305    -1.675681575437    15.994914619570
         C            0.000000000000     0.000665809671    -0.524446264145    12.000000000000
         S            0.000000000000    -0.000106126269     1.035145290335    31.972071174400

  Running in cs symmetry.

  Rotational constants: A = 2407987.46702  B =      0.20441  C =      0.20441 [cm^-1]
  Rotational constants: A = 72189648157.17372  B =   6127.90931  C =   6127.90879 [MHz]
  Nuclear repulsion =   79.623688536639833

  Charge       = 0
  Multiplicity = 1
  Electrons    = 30
  Nalpha       = 15
  Nbeta        = 15

  ==> Algorithm <==

  SCF Algorithm Type is DF.
  DIIS enabled.
  MOM disabled.
  Fractional occupation disabled.
  Guess Type is SAD.
  Energy threshold   = 1.00e-10
  Density threshold  = 1.00e-10
  Integral threshold = 0.00e+00

  ==> Primary Basis <==

  Basis Set: CC-PV(Q+D)Z
    Blend: CC-PV(Q+D)Z
    Number of shells: 48
    Number of basis function: 174
    Number of Cartesian functions: 220
    Spherical Harmonics?: true
    Max angular momentum: 4

  ==> DFT Potential <==

   => Composite Functional: WB97X-V <= 

    wB97X-V Hyb-GGA Exchange-Correlation Functional

    N. Mardirossian and M. Head-Gordon, Phys. Chem. Chem. Phys. 16, 9904 (2014)

    Deriv               =              1
    GGA                 =           TRUE
    Meta                =          FALSE

    Exchange Hybrid     =           TRUE
    MP2 Hybrid          =          FALSE

   => Exchange-Correlation Functionals <=

    1.0000   wB97X-V range-separated functional

   => Exact (HF) Exchange <=

    0.8330            HF,LR [omega = 0.3000]
    0.1670               HF 

   => VV10 Non-Local Parameters <=

    VV10 B              =     6.0000E+00
    VV10 C              =     1.0000E-02

   => Molecular Quadrature <=

    Radial Scheme          =       TREUTLER
    Pruning Scheme         =           FLAT
    Nuclear Scheme         =       TREUTLER

    BS radius alpha        =              1
    Pruning alpha          =              1
    Radial Points          =             75
    Spherical Points       =            302
    Total Points           =          65778
    Total Blocks           =            572
    Max Points             =            256
    Max Functions          =            174

   => Loading Basis Set <=

    Name: (CC-PV(Q+D)Z AUX)
    Role: JKFIT
    Keyword: DF_BASIS_SCF
    atoms 1 entry O          line   253 file /work/zw18965/.conda/envs/p4env/share/psi4/basis/cc-pvqz-jkfit.gbs 
    atoms 2 entry C          line   137 file /work/zw18965/.conda/envs/p4env/share/psi4/basis/cc-pvqz-jkfit.gbs 
    atoms 3 entry S          line   673 file /work/zw18965/.conda/envs/p4env/share/psi4/basis/cc-pvqz-jkfit.gbs 

  ==> Pre-Iterations <==

   -------------------------------------------------------
    Irrep   Nso     Nmo     Nalpha   Nbeta   Ndocc  Nsocc
   -------------------------------------------------------
     A'       111     111       0       0       0       0
     A"        63      63       0       0       0       0
   -------------------------------------------------------
    Total     174     174      15      15      15       0
   -------------------------------------------------------

  ==> Integral Setup <==

  ==> DiskDFJK: Density-Fitted J/K Matrices <==

    J tasked:                  Yes
    K tasked:                  Yes
    wK tasked:                 Yes
    Omega:               3.000E-01
    OpenMP threads:             24
    Integrals threads:          24
    Memory [MiB]:           102716
    Algorithm:                Core
    Integral Cache:           NONE
    Schwarz Cutoff:          1E-12
    Fitting Condition:       1E-10

   => Auxiliary Basis Set <=

  Basis Set: (CC-PV(Q+D)Z AUX)
    Blend: CC-PVQZ-JKFIT
    Number of shells: 96
    Number of basis function: 360
    Number of Cartesian functions: 475
    Spherical Harmonics?: true
    Max angular momentum: 5

  Cached 100.0% of DFT collocation blocks in 0.274 [GiB].

  Minimum eigenvalue in the overlap matrix is 1.2659630211E-04.
  Using Symmetric Orthogonalization.

  SCF Guess: Superposition of Atomic Densities via on-the-fly atomic UHF.

  ==> Iterations <==

                           Total Energy        Delta E     RMS |[F,P]|

   @DF-RKS iter SAD:  -510.97695508167988   -5.10977e+02   0.00000e+00 
   @DF-RKS iter   1:  -511.43478321341428   -4.57828e-01   3.80384e-03 DIIS
   @DF-RKS iter   2:  -511.37282298722170    6.19602e-02   5.02281e-03 DIIS
   @DF-RKS iter   3:  -511.50856180130086   -1.35739e-01   6.03077e-04 DIIS
   @DF-RKS iter   4:  -511.51087036012149   -2.30856e-03   1.06679e-04 DIIS
   @DF-RKS iter   5:  -511.51098090874734   -1.10549e-04   4.45251e-05 DIIS
   @DF-RKS iter   6:  -511.51100235218217   -2.14434e-05   1.92202e-05 DIIS
   @DF-RKS iter   7:  -511.51100631023837   -3.95806e-06   2.67274e-06 DIIS
   @DF-RKS iter   8:  -511.51100648339735   -1.73159e-07   5.05413e-07 DIIS
   @DF-RKS iter   9:  -511.51100648816509   -4.76774e-09   1.53933e-07 DIIS
   @DF-RKS iter  10:  -511.51100648839281   -2.27715e-10   2.75282e-08 DIIS
   @DF-RKS iter  11:  -511.51100648839883   -6.02540e-12   3.08029e-09 DIIS
   @DF-RKS iter  12:  -511.51100648839963   -7.95808e-13   7.38689e-10 DIIS
   @DF-RKS iter  13:  -511.51100648839918    4.54747e-13   7.53912e-11 DIIS
  Energy and wave function converged.


  ==> Post-Iterations <==

    Orbital Energies [Eh]
    ---------------------

    Doubly Occupied:                                                      

       1Ap   -88.920714     2Ap   -19.300216     3Ap   -10.440024  
       4Ap    -8.078152     5Ap    -6.035333     1App   -6.028902  
       6Ap    -6.028902     7Ap    -1.280793     8Ap    -0.954769  
       9Ap    -0.671817     2App   -0.600493    10Ap    -0.600493  
      11Ap    -0.581436     3App   -0.401706    12Ap    -0.401706  

    Virtual:                                                              

      13Ap     0.052183     4App    0.052184    14Ap     0.117762  
      15Ap     0.157139    16Ap     0.210961    17Ap     0.261336  
       5App    0.261336    18Ap     0.318553     6App    0.318553  
       7App    0.323779    19Ap     0.323779    20Ap     0.327227  
      21Ap     0.446628    22Ap     0.476778     8App    0.476779  
      23Ap     0.584576    24Ap     0.588526     9App    0.588528  
      25Ap     0.589058    10App    0.589059    26Ap     0.589972  
      27Ap     0.808471    28Ap     0.927088    29Ap     0.971237  
      11App    0.971237    30Ap     1.028285    12App    1.028285  
      31Ap     1.115984    13App    1.116301    32Ap     1.116302  
      14App    1.120979    33Ap     1.120979    15App    1.142203  
      34Ap     1.142205    35Ap     1.234785    16App    1.292971  
      36Ap     1.292972    17App    1.305040    37Ap     1.305040  
      38Ap     1.325808    39Ap     1.404781    18App    1.407453  
      40Ap     1.407454    41Ap     1.595973    19App    1.595973  
      42Ap     1.714107    20App    1.714107    43Ap     1.760616  
      21App    1.760616    44Ap     1.771415    45Ap     1.860168  
      22App    1.860170    46Ap     1.910438    47Ap     2.169686  
      23App    2.176820    48Ap     2.176849    49Ap     2.193485  
      24App    2.193486    50Ap     2.363745    51Ap     2.645944  
      25App    2.645946    26App    2.741043    52Ap     2.741056  
      53Ap     2.864080    27App    2.864082    54Ap     2.901781  
      55Ap     3.007872    28App    3.007875    56Ap     3.033267  
      29App    3.033267    57Ap     3.036713    30App    3.055102  
      58Ap     3.055112    59Ap     3.110497    31App    3.229419  
      60Ap     3.229419    32App    3.239391    61Ap     3.239393  
      33App    3.299365    62Ap     3.299365    63Ap     3.424466  
      34App    3.424468    64Ap     3.586779    35App    3.586781  
      65Ap     3.731560    66Ap     3.760346    67Ap     3.883264  
      36App    3.883267    68Ap     3.957558    37App    3.957559  
      69Ap     3.960913    70Ap     4.175915    71Ap     4.182825  
      38App    4.182830    72Ap     4.494825    39App    4.494825  
      73Ap     4.745886    40App    4.745913    74Ap     4.813927  
      75Ap     4.821806    41App    4.821814    76Ap     5.004209  
      42App    5.077434    77Ap     5.077434    43App    5.333978  
      78Ap     5.333981    44App    5.731269    79Ap     5.731277  
      45App    5.738046    80Ap     5.738047    81Ap     5.870716  
      46App    5.870726    82Ap     5.918517    83Ap     5.921219  
      47App    5.921219    48App    6.042507    84Ap     6.042515  
      85Ap     6.324615    49App    6.324616    86Ap     6.631594  
      87Ap     6.697180    50App    6.697185    88Ap     7.067841  
      89Ap     7.976195    51App    7.976195    90Ap     8.308009  
      91Ap     8.542651    92Ap     8.725123    52App    8.725156  
      93Ap     8.903630    53App    8.903678    94Ap     9.013674  
      54App    9.013674    95Ap     9.159327    55App    9.159327  
      96Ap     9.669411    56App   10.082416    97Ap    10.082418  
      98Ap    10.225387    57App   10.225388    99Ap    10.565271  
     100Ap    10.734041    58App   10.734042   101Ap    11.003229  
      59App   11.003229   102Ap    11.133440    60App   11.404552  
     103Ap    11.404557    61App   12.050076   104Ap    12.050076  
      62App   12.116909   105Ap    12.116944   106Ap    13.100111  
      63App   13.749478   107Ap    13.749479   108Ap    13.945737  
     109Ap    19.009342   110Ap    23.701304   111Ap    41.648609  

    Final Occupation by Irrep:
             Ap   App 
    DOCC [    12,    3 ]

  @DF-RKS Final Energy:  -511.51100648839918

   => Energetics <=

    Nuclear Repulsion Energy =             79.6236885366398326
    One-Electron Energy =                -861.7508430215992803
    Two-Electron Energy =                 299.7744673647864033
    DFT Exchange-Correlation Energy =     -29.2828283805537772
    Empirical Dispersion Energy =           0.0000000000000000
    VV10 Nonlocal Energy =                  0.1245090123276219
    Total Energy =                       -511.5110064883991754

Computation Completed


Properties will be evaluated at   0.000000,   0.000000,   0.000000 [a0]

Properties computed using the SCF density matrix

  Nuclear Dipole Moment: [e a0]
     X:     0.0000      Y:    -0.0000      Z:     0.0193

  Electronic Dipole Moment: [e a0]
     X:     0.0000      Y:     0.0003      Z:     0.2229

  Dipole Moment: [e a0]
     X:     0.0000      Y:     0.0003      Z:     0.2422     Total:     0.2422

  Dipole Moment: [D]
     X:     0.0000      Y:     0.0008      Z:     0.6156     Total:     0.6156


*** tstop() called on bp1-compute00065.data.bp.acrc.priv at Tue Apr 27 17:07:21 2021
Module time:
	user time   =     104.99 seconds =       1.75 minutes
	system time =       3.82 seconds =       0.06 minutes
	total time  =          5 seconds =       0.08 minutes
Total time:
	user time   =    2652.14 seconds =      44.20 minutes
	system time =      87.02 seconds =       1.45 minutes
	total time  =        122 seconds =       2.03 minutes

         ----------------------------------------------------------
                                   FINDIF
                     R. A. King and Jonathon Misiewicz
         ---------------------------------------------------------

  Computing second-derivative from energies using projected, 
  symmetry-adapted, cartesian coordinates.

  9 energies passed in, including the reference geometry.
    Using 3-point formula.
    Energy without displacement: -511.5110066278
    Check energies below for precision!
    0: -1        :      -511.5110053676
    0: 1         :      -511.5110055230
    1: -1        :      -511.5110054564
    1: 1         :      -511.5110050192
    0: 1, 1: 1   :      -511.5110057134
    0: -1, 1: -1 :      -511.5110059910
    2: -1        :      -511.5110064883
    3: -1        :      -511.5110064884

-------------------------------------------------------------


  ==> Harmonic Vibrational Analysis <==

  non-mass-weighted Hessian:       Symmetric? True   Hermitian? True   Lin Dep Dim?  5 (0)
  projection of translations (True) and rotations (True) removed 5 degrees of freedom (5)
  total projector:                 Symmetric? True   Hermitian? True   Lin Dep Dim?  5 (5)
  mass-weighted Hessian:           Symmetric? True   Hermitian? True   Lin Dep Dim?  5 (0)
  pre-proj  low-frequency mode:    0.0000i [cm^-1]
  pre-proj  low-frequency mode:    0.0000i [cm^-1]
  pre-proj  low-frequency mode:    0.0000i [cm^-1]
  pre-proj  low-frequency mode:    0.0000  [cm^-1]
  pre-proj  low-frequency mode:    0.0000  [cm^-1]
  pre-proj  all modes:['0.0000i' '0.0000i' '0.0000i' '0.0000' '0.0000' '542.8965' '543.0893'
 '898.4532' '2151.9923']
  projected mass-weighted Hessian: Symmetric? True   Hermitian? True   Lin Dep Dim?  5 (5)
  post-proj low-frequency mode:    0.0000i [cm^-1] (TR)
  post-proj low-frequency mode:    0.0000i [cm^-1] (TR)
  post-proj low-frequency mode:    0.0000i [cm^-1] (TR)
  post-proj low-frequency mode:    0.0000  [cm^-1] (TR)
  post-proj low-frequency mode:    0.0000  [cm^-1] (TR)
  post-proj  all modes:['0.0000i' '0.0000i' '0.0000i' '0.0000' '0.0000' '542.8965' '543.0893'
 '898.4532' '2151.9923']

  Vibration                       6                   7                   8           
  Freq [cm^-1]                 542.8965            543.0893            898.4532       
  Irrep                           B2                  B1                  A1          
  Reduced mass [u]             13.0330             13.0330             19.6021        
  Force const [mDyne/A]         2.2632              2.2648              9.3227        
  Turning point v=0 [a0]        0.1304              0.1304              0.0827        
  RMS dev v=0 [a0 u^1/2]        0.3330              0.3329              0.2589        
  Char temp [K]                781.1072            781.3846           1292.6741       
  ----------------------------------------------------------------------------------
      1   O               -0.00 -0.39  0.00   -0.39 -0.00 -0.00   -0.00 -0.00 -0.71   
      2   C               -0.00  0.91  0.00    0.91  0.00  0.00   -0.00 -0.00 -0.47   
      3   S                0.00 -0.14  0.00   -0.14 -0.00 -0.00   -0.00 -0.00  0.53   

  Vibration                       9           
  Freq [cm^-1]                2151.9923       
  Irrep                           A1          
  Reduced mass [u]             13.1427        
  Force const [mDyne/A]        35.8605        
  Turning point v=0 [a0]        0.0652        
  RMS dev v=0 [a0 u^1/2]        0.1673        
  Char temp [K]               3096.2377       
  ----------------------------------------------------------------------------------
      1   O               -0.00  0.00 -0.52   
      2   C               -0.00 -0.00  0.85   
      3   S               -0.00  0.00 -0.06   

  ==> Thermochemistry Components <==

  Entropy, S
    Electronic S            0.000 [cal/(mol K)]        0.000 [J/(mol K)]       0.00000000 [mEh/K] (multiplicity = 1)
    Translational S        38.194 [cal/(mol K)]      159.802 [J/(mol K)]       0.06086550 [mEh/K] (mol. weight = 59.9670 [u], P = 101325.00 [Pa])
    Rotational S           15.742 [cal/(mol K)]       65.863 [J/(mol K)]       0.02508575 [mEh/K] (symmetry no. = 1)
    Vibrational S           1.259 [cal/(mol K)]        5.267 [J/(mol K)]       0.00200628 [mEh/K]
  Total S                  55.194 [cal/(mol K)]      230.932 [J/(mol K)]       0.08795753 [mEh/K]
  Correction S              0.000 [cal/(mol K)]        0.000 [J/(mol K)]       0.00000000 [mEh/K]

  Constant volume heat capacity, Cv
    Electronic Cv           0.000 [cal/(mol K)]        0.000 [J/(mol K)]       0.00000000 [mEh/K]
    Translational Cv        2.981 [cal/(mol K)]       12.472 [J/(mol K)]       0.00475022 [mEh/K]
    Rotational Cv           1.987 [cal/(mol K)]        8.314 [J/(mol K)]       0.00316681 [mEh/K]
    Vibrational Cv          2.819 [cal/(mol K)]       11.794 [J/(mol K)]       0.00449215 [mEh/K]
  Total Cv                  7.787 [cal/(mol K)]       32.580 [J/(mol K)]       0.01240917 [mEh/K]
  Correction Cv             0.000 [cal/(mol K)]        0.000 [J/(mol K)]       0.00000000 [mEh/K]

  Constant pressure heat capacity, Cp
    Electronic Cp           0.000 [cal/(mol K)]        0.000 [J/(mol K)]       0.00000000 [mEh/K]
    Translational Cp        4.968 [cal/(mol K)]       20.786 [J/(mol K)]       0.00791703 [mEh/K]
    Rotational Cp           1.987 [cal/(mol K)]        8.314 [J/(mol K)]       0.00316681 [mEh/K]
    Vibrational Cp          2.819 [cal/(mol K)]       11.794 [J/(mol K)]       0.00449215 [mEh/K]
  Total Cp                  9.774 [cal/(mol K)]       40.895 [J/(mol K)]       0.01557598 [mEh/K]
  Correction Cp             0.000 [cal/(mol K)]        0.000 [J/(mol K)]       0.00000000 [mEh/K]

  ==> Thermochemistry Energy Analysis <==

  Raw electronic energy, E0
  Total E0, Electronic energy at well bottom at 0 [K]                 -511.51100663 [Eh]

  Zero-point energy, ZPE_vib = Sum_i nu_i / 2
    Electronic ZPE          0.000 [kcal/mol]        0.000 [kJ/mol]       0.00000000 [Eh]
    Translational ZPE       0.000 [kcal/mol]        0.000 [kJ/mol]       0.00000000 [Eh]
    Rotational ZPE          0.000 [kcal/mol]        0.000 [kJ/mol]       0.00000000 [Eh]
    Vibrational ZPE         5.913 [kcal/mol]       24.741 [kJ/mol]       0.00942348 [Eh]        2068.216 [cm^-1]
  Correction ZPE            5.913 [kcal/mol]       24.741 [kJ/mol]       0.00942348 [Eh]        2068.216 [cm^-1]
  Total ZPE, Electronic energy at 0 [K]                               -511.50158314 [Eh]

  Thermal Energy, E (includes ZPE)
    Electronic E            0.000 [kcal/mol]        0.000 [kJ/mol]       0.00000000 [Eh]
    Translational E         0.889 [kcal/mol]        3.718 [kJ/mol]       0.00141628 [Eh]
    Rotational E            0.592 [kcal/mol]        2.479 [kJ/mol]       0.00094418 [Eh]
    Vibrational E           6.191 [kcal/mol]       25.904 [kJ/mol]       0.00986649 [Eh]
  Correction E              7.673 [kcal/mol]       32.102 [kJ/mol]       0.01222695 [Eh]
  Total E, Electronic energy at  298.15 [K]                           -511.49877968 [Eh]

  Enthalpy, H_trans = E_trans + k_B * T
    Electronic H            0.000 [kcal/mol]        0.000 [kJ/mol]       0.00000000 [Eh]
    Translational H         1.481 [kcal/mol]        6.197 [kJ/mol]       0.00236046 [Eh]
    Rotational H            0.592 [kcal/mol]        2.479 [kJ/mol]       0.00094418 [Eh]
    Vibrational H           6.191 [kcal/mol]       25.904 [kJ/mol]       0.00986649 [Eh]
  Correction H              8.265 [kcal/mol]       34.581 [kJ/mol]       0.01317114 [Eh]
  Total H, Enthalpy at  298.15 [K]                                    -511.49783549 [Eh]

  Gibbs free energy, G = H - T * S
    Electronic G            0.000 [kcal/mol]        0.000 [kJ/mol]       0.00000000 [Eh]
    Translational G        -9.906 [kcal/mol]      -41.448 [kJ/mol]      -0.01578659 [Eh]
    Rotational G           -4.101 [kcal/mol]      -17.158 [kJ/mol]      -0.00653513 [Eh]
    Vibrational G           5.816 [kcal/mol]       24.334 [kJ/mol]       0.00926832 [Eh]
  Correction G             -8.191 [kcal/mol]      -34.272 [kJ/mol]      -0.01305340 [Eh]
  Total G, Free enthalpy at  298.15 [K]                               -511.52406003 [Eh]

    Psi4 stopped on: Tuesday, 27 April 2021 05:07PM
    Psi4 wall time for execution: 0:02:02.38

*** Psi4 exiting successfully. Buy a developer a beer!
