
    -----------------------------------------------------------------------
          Psi4: An Open-Source Ab Initio Electronic Structure Package
                               Psi4 1.3.2 release

                         Git: Rev {HEAD} ecbda83 


    R. M. Parrish, L. A. Burns, D. G. A. Smith, A. C. Simmonett,
    A. E. DePrince III, E. G. Hohenstein, U. Bozkaya, A. Yu. Sokolov,
    R. Di Remigio, R. M. Richard, J. F. Gonthier, A. M. James,
    H. R. McAlexander, A. Kumar, M. Saitow, X. Wang, B. P. Pritchard,
    P. Verma, H. F. Schaefer III, K. Patkowski, R. A. King, E. F. Valeev,
    F. A. Evangelista, J. M. Turney, T. D. Crawford, and C. D. Sherrill,
    J. Chem. Theory Comput. 13(7) pp 3185--3197 (2017).
    (doi: 10.1021/acs.jctc.7b00174)


                         Additional Contributions by
    P. Kraus, H. Kruse, M. H. Lechner, M. C. Schieber, R. A. Shaw,
    A. Alenaizan, R. Galvelis, Z. L. Glick, S. Lehtola, and J. P. Misiewicz

    -----------------------------------------------------------------------


    Psi4 started on: Tuesday, 27 April 2021 05:04PM

    Process ID: 137094
    Host:       bp1-compute00066.data.bp.acrc.priv
    PSIDATADIR: /work/zw18965/.conda/envs/p4env/share/psi4
    Memory:     500.0 MiB
    Threads:    24
    
  ==> Input File <==

--------------------------------------------------------------------------
memory 144 GB

molecule {
0 1
P 0.0000000000 0.0000000000 -0.0679917919
H 1.1903431933 0.0000000000 0.6964572780
H -0.5951715967 -1.0308674445 0.6964572780
H -0.5951715967 1.0308674445 0.6964572780
}

set dynamic_level 1
set basis cc-pV(Q+d)Z
 
optimize("wB97X-V")
frequencies("wB97X-V")
--------------------------------------------------------------------------

  Memory set to 134.110 GiB by Python driver.
gradient() will perform gradient computation by finite difference of analytic energies.

         ----------------------------------------------------------
                                   FINDIF
                     R. A. King and Jonathon Misiewicz
         ---------------------------------------------------------

  Using finite-differences of energies to determine gradients.
    Generating geometries for use with 3-point formula.
    Displacement size will be 5.00e-03.
    Number of atoms is 4.
    Number of symmetric SALCs is 4.
    Translations projected? 1. Rotations projected? 1.
    Number of geometries (including reference) is 9.

  //>>>>>>>>>>>>>>>>>>>>>>>>>>>>>>>>>>>//
  //    Loading displacement 1 of 9    //
  //<<<<<<<<<<<<<<<<<<<<<<<<<<<<<<<<<<<//

*** tstart() called on bp1-compute00066.data.bp.acrc.priv
*** at Tue Apr 27 17:04:52 2021

   => Loading Basis Set <=

    Name: CC-PV(Q+D)Z
    Role: ORBITAL
    Keyword: BASIS
    atoms 1   entry P          line   890 file /work/zw18965/.conda/envs/p4env/share/psi4/basis/cc-pv_qpd_z.gbs 
    atoms 2-4 entry H          line    32 file /work/zw18965/.conda/envs/p4env/share/psi4/basis/cc-pv_qpd_z.gbs 


         ---------------------------------------------------------
                                   SCF
               by Justin Turney, Rob Parrish, Andy Simmonett
                          and Daniel G. A. Smith
                              RKS Reference
                       24 Threads, 137329 MiB Core
         ---------------------------------------------------------

  ==> Geometry <==

    Molecular point group: cs
    Full point group: C3v

    Geometry (in Angstrom), charge = 0, multiplicity = 1:

       Center              X                  Y                   Z               Mass       
    ------------   -----------------  -----------------  -----------------  -----------------
         P            0.000000000001     0.067984722378     0.000000000000    30.973761998420
         H            0.595171596587    -0.696464347522     1.030867444611     1.007825032230
         H            0.595171596587    -0.696464347522    -1.030867444611     1.007825032230
         H           -1.190343193220    -0.696464347522     0.000000000000     1.007825032230

  Running in cs symmetry.

  Rotational constants: A =      4.49328  B =      4.49328  C =      3.93501 [cm^-1]
  Rotational constants: A = 134705.25087  B = 134705.25086  C = 117968.59793 [MHz]
  Nuclear repulsion =   17.602846847432616

  Charge       = 0
  Multiplicity = 1
  Electrons    = 18
  Nalpha       = 9
  Nbeta        = 9

  ==> Algorithm <==

  SCF Algorithm Type is DF.
  DIIS enabled.
  MOM disabled.
  Fractional occupation disabled.
  Guess Type is SAD.
  Energy threshold   = 1.00e-08
  Density threshold  = 1.00e-08
  Integral threshold = 0.00e+00

  ==> Primary Basis <==

  Basis Set: CC-PV(Q+D)Z
    Blend: CC-PV(Q+D)Z
    Number of shells: 48
    Number of basis function: 154
    Number of Cartesian functions: 185
    Spherical Harmonics?: true
    Max angular momentum: 4

  ==> DFT Potential <==

   => Composite Functional: WB97X-V <= 

    wB97X-V Hyb-GGA Exchange-Correlation Functional

    N. Mardirossian and M. Head-Gordon, Phys. Chem. Chem. Phys. 16, 9904 (2014)

    Deriv               =              1
    GGA                 =           TRUE
    Meta                =          FALSE

    Exchange Hybrid     =           TRUE
    MP2 Hybrid          =          FALSE

   => Exchange-Correlation Functionals <=

    1.0000   wB97X-V range-separated functional

   => Exact (HF) Exchange <=

    0.8330            HF,LR [omega = 0.3000]
    0.1670               HF 

   => VV10 Non-Local Parameters <=

    VV10 B              =     6.0000E+00
    VV10 C              =     1.0000E-02

   => Molecular Quadrature <=

    Radial Scheme          =       TREUTLER
    Pruning Scheme         =           FLAT
    Nuclear Scheme         =       TREUTLER

    BS radius alpha        =              1
    Pruning alpha          =              1
    Radial Points          =             75
    Spherical Points       =            302
    Total Points           =          89838
    Total Blocks           =            733
    Max Points             =            256
    Max Functions          =            154

   => Loading Basis Set <=

    Name: (CC-PV(Q+D)Z AUX)
    Role: JKFIT
    Keyword: DF_BASIS_SCF
    atoms 1   entry P          line   591 file /work/zw18965/.conda/envs/p4env/share/psi4/basis/cc-pvqz-jkfit.gbs 
    atoms 2-4 entry H          line    51 file /work/zw18965/.conda/envs/p4env/share/psi4/basis/cc-pvqz-jkfit.gbs 

  ==> Pre-Iterations <==

   -------------------------------------------------------
    Irrep   Nso     Nmo     Nalpha   Nbeta   Ndocc  Nsocc
   -------------------------------------------------------
     A'        91      91       0       0       0       0
     A"        63      63       0       0       0       0
   -------------------------------------------------------
    Total     154     154       9       9       9       0
   -------------------------------------------------------

  ==> Integral Setup <==

  ==> DiskDFJK: Density-Fitted J/K Matrices <==

    J tasked:                  Yes
    K tasked:                  Yes
    wK tasked:                 Yes
    Omega:               3.000E-01
    OpenMP threads:             24
    Integrals threads:          24
    Memory [MiB]:           102635
    Algorithm:                Core
    Integral Cache:           NONE
    Schwarz Cutoff:          1E-12
    Fitting Condition:       1E-10

   => Auxiliary Basis Set <=

  Basis Set: (CC-PV(Q+D)Z AUX)
    Blend: CC-PVQZ-JKFIT
    Number of shells: 79
    Number of basis function: 301
    Number of Cartesian functions: 389
    Spherical Harmonics?: true
    Max angular momentum: 5

  Cached 100.0% of DFT collocation blocks in 0.353 [GiB].

  Minimum eigenvalue in the overlap matrix is 1.9467423455E-04.
  Using Symmetric Orthogonalization.

  SCF Guess: Superposition of Atomic Densities via on-the-fly atomic UHF.

  ==> Iterations <==

                           Total Energy        Delta E     RMS |[F,P]|

   @DF-RKS iter SAD:  -342.75381200765594   -3.42754e+02   0.00000e+00 
   @DF-RKS iter   1:  -343.07417471493522   -3.20363e-01   2.18150e-03 DIIS
   @DF-RKS iter   2:  -343.09909660200617   -2.49219e-02   1.07014e-03 DIIS
   @DF-RKS iter   3:  -343.10439307242649   -5.29647e-03   1.13553e-04 DIIS
   @DF-RKS iter   4:  -343.10469197803502   -2.98906e-04   1.97387e-05 DIIS
   @DF-RKS iter   5:  -343.10470111858177   -9.14055e-06   4.26969e-06 DIIS
   @DF-RKS iter   6:  -343.10470133225402   -2.13672e-07   7.23287e-07 DIIS
   @DF-RKS iter   7:  -343.10470133940765   -7.15363e-09   1.51998e-07 DIIS
   @DF-RKS iter   8:  -343.10470133968408   -2.76430e-10   2.23575e-08 DIIS
   @DF-RKS iter   9:  -343.10470133969511   -1.10276e-11   3.13110e-09 DIIS
  Energy and wave function converged.


  ==> Post-Iterations <==

    Orbital Energies [Eh]
    ---------------------

    Doubly Occupied:                                                      

       1Ap   -77.098362     2Ap    -6.659616     3Ap    -4.814136  
       1App   -4.814136     4Ap    -4.809701     5Ap    -0.772994  
       6Ap    -0.489055     2App   -0.489054     7Ap    -0.375123  

    Virtual:                                                              

       8Ap     0.094404     9Ap     0.102297     3App    0.102297  
      10Ap     0.209289     4App    0.209290    11Ap     0.240741  
       5App    0.264296    12Ap     0.264296    13Ap     0.267744  
      14Ap     0.328938     6App    0.328939    15Ap     0.398800  
      16Ap     0.448796    17Ap     0.539684     7App    0.539684  
       8App    0.685075    18Ap     0.699761     9App    0.699764  
      19Ap     0.760874    10App    0.760874    20Ap     0.832812  
      21Ap     0.845569    11App    0.845570    22Ap     0.884843  
      12App    0.884845    23Ap     0.892998    24Ap     0.947518  
      25Ap     1.040734    13App    1.142713    26Ap     1.145377  
      14App    1.145379    27Ap     1.161097    28Ap     1.230320  
      15App    1.230322    29Ap     1.249301    30Ap     1.272261  
      16App    1.272265    31Ap     1.458829    17App    1.458830  
      32Ap     1.521704    33Ap     1.659159    18App    1.659160  
      34Ap     2.045146    19App    2.045149    20App    2.054114  
      35Ap     2.054115    21App    2.071554    36Ap     2.107745  
      37Ap     2.164973    22App    2.164974    38Ap     2.186515  
      39Ap     2.288146    23App    2.288148    40Ap     2.309229  
      24App    2.369789    25App    2.482530    41Ap     2.482531  
      42Ap     2.488521    26App    2.545359    43Ap     2.545360  
      44Ap     2.571157    27App    2.672612    45Ap     2.702582  
      46Ap     2.706804    28App    2.706807    47Ap     2.746828  
      29App    2.746830    48Ap     2.947448    49Ap     2.955169  
      30App    2.955181    31App    3.008759    50Ap     3.015859  
      32App    3.015862    51Ap     3.054897    52Ap     3.133307  
      33App    3.133312    53Ap     3.446179    34App    3.470598  
      54Ap     3.470599    55Ap     3.609083    35App    3.609084  
      56Ap     3.648148    57Ap     3.758561    36App    3.758561  
      58Ap     3.938140    37App    3.988304    59Ap     4.013021  
      38App    4.013027    39App    5.884061    60Ap     5.884080  
      40App    5.909423    61Ap     5.909426    41App    5.910821  
      62Ap     5.950890    42App    5.972018    63Ap     5.972022  
      64Ap     5.978651    43App    6.000373    65Ap     6.250216  
      44App    6.250216    45App    6.349631    66Ap     6.349635  
      67Ap     6.384337    68Ap     6.411725    46App    6.411727  
      69Ap     6.619673    47App    6.767785    70Ap     6.767786  
      71Ap     6.771501    48App    6.945512    49App    7.006830  
      72Ap     7.006840    73Ap     7.579888    50App    7.593330  
      74Ap     7.593337    75Ap     7.670179    76Ap     7.673220  
      51App    7.673221    77Ap     7.818073    52App    7.818089  
      53App    7.988516    54App    8.041959    78Ap     8.041978  
      55App    8.053232    79Ap     8.053251    80Ap     8.088256  
      81Ap     8.130241    56App    8.130244    57App    8.314615  
      82Ap     8.325895    83Ap     8.414614    58App    8.414616  
      59App    8.655426    60App    8.670672    84Ap     8.670674  
      85Ap     8.822244    86Ap     9.028026    61App    9.028038  
      87Ap     9.110444    62App    9.110445    88Ap     9.155524  
      89Ap     9.434239    90Ap    10.817970    63App   10.817974  
      91Ap    15.640146  

    Final Occupation by Irrep:
             Ap   App 
    DOCC [     7,    2 ]

  @DF-RKS Final Energy:  -343.10470133969511

   => Energetics <=

    Nuclear Repulsion Energy =             17.6028468474326161
    One-Electron Energy =                -508.5667876929725253
    Two-Electron Energy =                 165.8035842445104890
    DFT Exchange-Correlation Energy =     -18.0197313957680656
    Empirical Dispersion Energy =           0.0000000000000000
    VV10 Nonlocal Energy =                  0.0753866571023979
    Total Energy =                       -343.1047013396951115

Computation Completed


Properties will be evaluated at   0.000000,   0.000000,   0.000000 [a0]

Properties computed using the SCF density matrix

  Nuclear Dipole Moment: [e a0]
     X:    -0.0000      Y:    -2.0213      Z:     0.0000

  Electronic Dipole Moment: [e a0]
     X:    -0.0000      Y:     1.7516      Z:     0.0000

  Dipole Moment: [e a0]
     X:    -0.0000      Y:    -0.2697      Z:     0.0000     Total:     0.2697

  Dipole Moment: [D]
     X:    -0.0000      Y:    -0.6856      Z:     0.0000     Total:     0.6856


*** tstop() called on bp1-compute00066.data.bp.acrc.priv at Tue Apr 27 17:04:57 2021
Module time:
	user time   =     101.87 seconds =       1.70 minutes
	system time =       6.23 seconds =       0.10 minutes
	total time  =          5 seconds =       0.08 minutes
Total time:
	user time   =     101.87 seconds =       1.70 minutes
	system time =       6.23 seconds =       0.10 minutes
	total time  =          5 seconds =       0.08 minutes

  //>>>>>>>>>>>>>>>>>>>>>>>>>>>>>>>>>>>//
  //    Loading displacement 2 of 9    //
  //<<<<<<<<<<<<<<<<<<<<<<<<<<<<<<<<<<<//

*** tstart() called on bp1-compute00066.data.bp.acrc.priv
*** at Tue Apr 27 17:04:57 2021

   => Loading Basis Set <=

    Name: CC-PV(Q+D)Z
    Role: ORBITAL
    Keyword: BASIS
    atoms 1   entry P          line   890 file /work/zw18965/.conda/envs/p4env/share/psi4/basis/cc-pv_qpd_z.gbs 
    atoms 2-4 entry H          line    32 file /work/zw18965/.conda/envs/p4env/share/psi4/basis/cc-pv_qpd_z.gbs 


         ---------------------------------------------------------
                                   SCF
               by Justin Turney, Rob Parrish, Andy Simmonett
                          and Daniel G. A. Smith
                              RKS Reference
                       24 Threads, 137329 MiB Core
         ---------------------------------------------------------

  ==> Geometry <==

    Molecular point group: cs
    Full point group: Cs

    Geometry (in Angstrom), charge = 0, multiplicity = 1:

       Center              X                  Y                   Z               Mass       
    ------------   -----------------  -----------------  -----------------  -----------------
         P           -0.000107127161     0.067984722378     0.000000000000    30.973761998420
         H            0.596269052699    -0.697169143675     1.030867444611     1.007825032230
         H            0.596269052699    -0.697169143675    -1.030867444611     1.007825032230
         H           -1.189245737108    -0.695054755215     0.000000000000     1.007825032230

  Running in cs symmetry.

  Rotational constants: A =      4.49334  B =      4.49328  C =      3.93496 [cm^-1]
  Rotational constants: A = 134706.87892  B = 134704.99952  C = 117967.15655 [MHz]
  Nuclear repulsion =   17.602856191068895

  Charge       = 0
  Multiplicity = 1
  Electrons    = 18
  Nalpha       = 9
  Nbeta        = 9

  ==> Algorithm <==

  SCF Algorithm Type is DF.
  DIIS enabled.
  MOM disabled.
  Fractional occupation disabled.
  Guess Type is SAD.
  Energy threshold   = 1.00e-08
  Density threshold  = 1.00e-08
  Integral threshold = 0.00e+00

  ==> Primary Basis <==

  Basis Set: CC-PV(Q+D)Z
    Blend: CC-PV(Q+D)Z
    Number of shells: 48
    Number of basis function: 154
    Number of Cartesian functions: 185
    Spherical Harmonics?: true
    Max angular momentum: 4

  ==> DFT Potential <==

   => Composite Functional: WB97X-V <= 

    wB97X-V Hyb-GGA Exchange-Correlation Functional

    N. Mardirossian and M. Head-Gordon, Phys. Chem. Chem. Phys. 16, 9904 (2014)

    Deriv               =              1
    GGA                 =           TRUE
    Meta                =          FALSE

    Exchange Hybrid     =           TRUE
    MP2 Hybrid          =          FALSE

   => Exchange-Correlation Functionals <=

    1.0000   wB97X-V range-separated functional

   => Exact (HF) Exchange <=

    0.8330            HF,LR [omega = 0.3000]
    0.1670               HF 

   => VV10 Non-Local Parameters <=

    VV10 B              =     6.0000E+00
    VV10 C              =     1.0000E-02

   => Molecular Quadrature <=

    Radial Scheme          =       TREUTLER
    Pruning Scheme         =           FLAT
    Nuclear Scheme         =       TREUTLER

    BS radius alpha        =              1
    Pruning alpha          =              1
    Radial Points          =             75
    Spherical Points       =            302
    Total Points           =          89838
    Total Blocks           =            727
    Max Points             =            256
    Max Functions          =            154

   => Loading Basis Set <=

    Name: (CC-PV(Q+D)Z AUX)
    Role: JKFIT
    Keyword: DF_BASIS_SCF
    atoms 1   entry P          line   591 file /work/zw18965/.conda/envs/p4env/share/psi4/basis/cc-pvqz-jkfit.gbs 
    atoms 2-4 entry H          line    51 file /work/zw18965/.conda/envs/p4env/share/psi4/basis/cc-pvqz-jkfit.gbs 

  ==> Pre-Iterations <==

   -------------------------------------------------------
    Irrep   Nso     Nmo     Nalpha   Nbeta   Ndocc  Nsocc
   -------------------------------------------------------
     A'        91      91       0       0       0       0
     A"        63      63       0       0       0       0
   -------------------------------------------------------
    Total     154     154       9       9       9       0
   -------------------------------------------------------

  ==> Integral Setup <==

  ==> DiskDFJK: Density-Fitted J/K Matrices <==

    J tasked:                  Yes
    K tasked:                  Yes
    wK tasked:                 Yes
    Omega:               3.000E-01
    OpenMP threads:             24
    Integrals threads:          24
    Memory [MiB]:           102635
    Algorithm:                Core
    Integral Cache:           NONE
    Schwarz Cutoff:          1E-12
    Fitting Condition:       1E-10

   => Auxiliary Basis Set <=

  Basis Set: (CC-PV(Q+D)Z AUX)
    Blend: CC-PVQZ-JKFIT
    Number of shells: 79
    Number of basis function: 301
    Number of Cartesian functions: 389
    Spherical Harmonics?: true
    Max angular momentum: 5

  Cached 100.0% of DFT collocation blocks in 0.353 [GiB].

  Minimum eigenvalue in the overlap matrix is 1.9466730647E-04.
  Using Symmetric Orthogonalization.

  SCF Guess: Superposition of Atomic Densities via on-the-fly atomic UHF.

  ==> Iterations <==

                           Total Energy        Delta E     RMS |[F,P]|

   @DF-RKS iter SAD:  -342.75381074545533   -3.42754e+02   0.00000e+00 
   @DF-RKS iter   1:  -343.07417212672351   -3.20361e-01   2.18151e-03 DIIS
   @DF-RKS iter   2:  -343.09909429020701   -2.49222e-02   1.07015e-03 DIIS
   @DF-RKS iter   3:  -343.10439085394177   -5.29656e-03   1.13554e-04 DIIS
   @DF-RKS iter   4:  -343.10468976153004   -2.98908e-04   1.97394e-05 DIIS
   @DF-RKS iter   5:  -343.10469890233367   -9.14080e-06   4.27024e-06 DIIS
   @DF-RKS iter   6:  -343.10469911605253   -2.13719e-07   7.23590e-07 DIIS
   @DF-RKS iter   7:  -343.10469912321133   -7.15880e-09   1.52095e-07 DIIS
   @DF-RKS iter   8:  -343.10469912348827   -2.76941e-10   2.24168e-08 DIIS
   @DF-RKS iter   9:  -343.10469912349913   -1.08571e-11   3.26096e-09 DIIS
  Energy and wave function converged.


  ==> Post-Iterations <==

    Orbital Energies [Eh]
    ---------------------

    Doubly Occupied:                                                      

       1Ap   -77.098361     2Ap    -6.659616     1App   -4.814139  
       3Ap    -4.814133     4Ap    -4.809701     5Ap    -0.772994  
       6Ap    -0.489345     2App   -0.488764     7Ap    -0.375123  

    Virtual:                                                              

       8Ap     0.094401     3App    0.102111     9Ap     0.102485  
      10Ap     0.209227     4App    0.209351    11Ap     0.240741  
      12Ap     0.264264     5App    0.264328    13Ap     0.267744  
       6App    0.328867    14Ap     0.329010    15Ap     0.398800  
      16Ap     0.448796     7App    0.539459    17Ap     0.539908  
       8App    0.685074    18Ap     0.699707     9App    0.699819  
      19Ap     0.760825    10App    0.760923    20Ap     0.832809  
      11App    0.845466    21Ap     0.845673    22Ap     0.884524  
      12App    0.885159    23Ap     0.893005    24Ap     0.947519  
      25Ap     1.040732    13App    1.142697    14App    1.145247  
      26Ap     1.145524    27Ap     1.161097    15App    1.229980  
      28Ap     1.230662    29Ap     1.249300    16App    1.271859  
      30Ap     1.272668    31Ap     1.458763    17App    1.458892  
      32Ap     1.521711    33Ap     1.659143    18App    1.659180  
      34Ap     2.044881    19App    2.045411    35Ap     2.053857  
      20App    2.054370    21App    2.071555    36Ap     2.107741  
      37Ap     2.164815    22App    2.165130    38Ap     2.186518  
      39Ap     2.288029    23App    2.288253    40Ap     2.309240  
      24App    2.369789    25App    2.482215    41Ap     2.482813  
      42Ap     2.488552    26App    2.545043    43Ap     2.545673  
      44Ap     2.571156    27App    2.672607    45Ap     2.702580  
      28App    2.706565    46Ap     2.707060    29App    2.746789  
      47Ap     2.746869    48Ap     2.947440    30App    2.954777  
      49Ap     2.955566    31App    3.008757    32App    3.015210  
      50Ap     3.016521    51Ap     3.054896    33App    3.133269  
      52Ap     3.133354    53Ap     3.446177    54Ap     3.470171  
      34App    3.471029    35App    3.607989    55Ap     3.610110  
      56Ap     3.648224    57Ap     3.758084    36App    3.759020  
      58Ap     3.938097    37App    3.988249    38App    4.012808  
      59Ap     4.013348    60Ap     5.883820    39App    5.884314  
      61Ap     5.909012    40App    5.909817    41App    5.910824  
      62Ap     5.950882    63Ap     5.971347    42App    5.972640  
      64Ap     5.978743    43App    6.000377    44App    6.249750  
      65Ap     6.250683    45App    6.348919    66Ap     6.350325  
      67Ap     6.384341    46App    6.409171    68Ap     6.414260  
      69Ap     6.619657    70Ap     6.767120    47App    6.767529  
      71Ap     6.772456    48App    6.945499    49App    7.005951  
      72Ap     7.007769    73Ap     7.579812    74Ap     7.593199  
      50App    7.593533    75Ap     7.669291    51App    7.672246  
      76Ap     7.675078    77Ap     7.818053    52App    7.818124  
      53App    7.988481    54App    8.040929    78Ap     8.042764  
      55App    8.052464    79Ap     8.054160    80Ap     8.088367  
      81Ap     8.129091    56App    8.131449    57App    8.314635  
      82Ap     8.325895    58App    8.414607    83Ap     8.414637  
      59App    8.655406    84Ap     8.670651    60App    8.670704  
      85Ap     8.822231    86Ap     9.027403    61App    9.028667  
      62App    9.110159    87Ap     9.110712    88Ap     9.155548  
      89Ap     9.434238    63App   10.811428    90Ap    10.824496  
      91Ap    15.640185  

    Final Occupation by Irrep:
             Ap   App 
    DOCC [     7,    2 ]

  @DF-RKS Final Energy:  -343.10469912349913

   => Energetics <=

    Nuclear Repulsion Energy =             17.6028561910688950
    One-Electron Energy =                -508.5668014219239694
    Two-Electron Energy =                 165.8035911518508385
    DFT Exchange-Correlation Energy =     -18.0197317020221561
    Empirical Dispersion Energy =           0.0000000000000000
    VV10 Nonlocal Energy =                  0.0753866575272601
    Total Energy =                       -343.1046991234991879

Computation Completed


Properties will be evaluated at   0.000000,   0.000000,   0.000000 [a0]

Properties computed using the SCF density matrix

  Nuclear Dipole Moment: [e a0]
     X:     0.0032      Y:    -2.0213      Z:     0.0000

  Electronic Dipole Moment: [e a0]
     X:    -0.0045      Y:     1.7516      Z:     0.0000

  Dipole Moment: [e a0]
     X:    -0.0013      Y:    -0.2697      Z:     0.0000     Total:     0.2697

  Dipole Moment: [D]
     X:    -0.0034      Y:    -0.6856      Z:     0.0000     Total:     0.6856


*** tstop() called on bp1-compute00066.data.bp.acrc.priv at Tue Apr 27 17:05:01 2021
Module time:
	user time   =      95.73 seconds =       1.60 minutes
	system time =       3.65 seconds =       0.06 minutes
	total time  =          4 seconds =       0.07 minutes
Total time:
	user time   =     197.76 seconds =       3.30 minutes
	system time =       9.88 seconds =       0.16 minutes
	total time  =          9 seconds =       0.15 minutes

  //>>>>>>>>>>>>>>>>>>>>>>>>>>>>>>>>>>>//
  //    Loading displacement 3 of 9    //
  //<<<<<<<<<<<<<<<<<<<<<<<<<<<<<<<<<<<//

*** tstart() called on bp1-compute00066.data.bp.acrc.priv
*** at Tue Apr 27 17:05:01 2021

   => Loading Basis Set <=

    Name: CC-PV(Q+D)Z
    Role: ORBITAL
    Keyword: BASIS
    atoms 1   entry P          line   890 file /work/zw18965/.conda/envs/p4env/share/psi4/basis/cc-pv_qpd_z.gbs 
    atoms 2-4 entry H          line    32 file /work/zw18965/.conda/envs/p4env/share/psi4/basis/cc-pv_qpd_z.gbs 


         ---------------------------------------------------------
                                   SCF
               by Justin Turney, Rob Parrish, Andy Simmonett
                          and Daniel G. A. Smith
                              RKS Reference
                       24 Threads, 137329 MiB Core
         ---------------------------------------------------------

  ==> Geometry <==

    Molecular point group: cs
    Full point group: Cs

    Geometry (in Angstrom), charge = 0, multiplicity = 1:

       Center              X                  Y                   Z               Mass       
    ------------   -----------------  -----------------  -----------------  -----------------
         P            0.000107127164     0.067984722378     0.000000000000    30.973761998420
         H            0.594074140475    -0.695759551369     1.030867444611     1.007825032230
         H            0.594074140475    -0.695759551369    -1.030867444611     1.007825032230
         H           -1.191440649332    -0.697873939829     0.000000000000     1.007825032230

  Running in cs symmetry.

  Rotational constants: A =      4.49334  B =      4.49328  C =      3.93496 [cm^-1]
  Rotational constants: A = 134706.87892  B = 134704.99952  C = 117967.15655 [MHz]
  Nuclear repulsion =   17.602856165215442

  Charge       = 0
  Multiplicity = 1
  Electrons    = 18
  Nalpha       = 9
  Nbeta        = 9

  ==> Algorithm <==

  SCF Algorithm Type is DF.
  DIIS enabled.
  MOM disabled.
  Fractional occupation disabled.
  Guess Type is SAD.
  Energy threshold   = 1.00e-08
  Density threshold  = 1.00e-08
  Integral threshold = 0.00e+00

  ==> Primary Basis <==

  Basis Set: CC-PV(Q+D)Z
    Blend: CC-PV(Q+D)Z
    Number of shells: 48
    Number of basis function: 154
    Number of Cartesian functions: 185
    Spherical Harmonics?: true
    Max angular momentum: 4

  ==> DFT Potential <==

   => Composite Functional: WB97X-V <= 

    wB97X-V Hyb-GGA Exchange-Correlation Functional

    N. Mardirossian and M. Head-Gordon, Phys. Chem. Chem. Phys. 16, 9904 (2014)

    Deriv               =              1
    GGA                 =           TRUE
    Meta                =          FALSE

    Exchange Hybrid     =           TRUE
    MP2 Hybrid          =          FALSE

   => Exchange-Correlation Functionals <=

    1.0000   wB97X-V range-separated functional

   => Exact (HF) Exchange <=

    0.8330            HF,LR [omega = 0.3000]
    0.1670               HF 

   => VV10 Non-Local Parameters <=

    VV10 B              =     6.0000E+00
    VV10 C              =     1.0000E-02

   => Molecular Quadrature <=

    Radial Scheme          =       TREUTLER
    Pruning Scheme         =           FLAT
    Nuclear Scheme         =       TREUTLER

    BS radius alpha        =              1
    Pruning alpha          =              1
    Radial Points          =             75
    Spherical Points       =            302
    Total Points           =          89838
    Total Blocks           =            734
    Max Points             =            256
    Max Functions          =            154

   => Loading Basis Set <=

    Name: (CC-PV(Q+D)Z AUX)
    Role: JKFIT
    Keyword: DF_BASIS_SCF
    atoms 1   entry P          line   591 file /work/zw18965/.conda/envs/p4env/share/psi4/basis/cc-pvqz-jkfit.gbs 
    atoms 2-4 entry H          line    51 file /work/zw18965/.conda/envs/p4env/share/psi4/basis/cc-pvqz-jkfit.gbs 

  ==> Pre-Iterations <==

   -------------------------------------------------------
    Irrep   Nso     Nmo     Nalpha   Nbeta   Ndocc  Nsocc
   -------------------------------------------------------
     A'        91      91       0       0       0       0
     A"        63      63       0       0       0       0
   -------------------------------------------------------
    Total     154     154       9       9       9       0
   -------------------------------------------------------

  ==> Integral Setup <==

  ==> DiskDFJK: Density-Fitted J/K Matrices <==

    J tasked:                  Yes
    K tasked:                  Yes
    wK tasked:                 Yes
    Omega:               3.000E-01
    OpenMP threads:             24
    Integrals threads:          24
    Memory [MiB]:           102635
    Algorithm:                Core
    Integral Cache:           NONE
    Schwarz Cutoff:          1E-12
    Fitting Condition:       1E-10

   => Auxiliary Basis Set <=

  Basis Set: (CC-PV(Q+D)Z AUX)
    Blend: CC-PVQZ-JKFIT
    Number of shells: 79
    Number of basis function: 301
    Number of Cartesian functions: 389
    Spherical Harmonics?: true
    Max angular momentum: 5

  Cached 100.0% of DFT collocation blocks in 0.353 [GiB].

  Minimum eigenvalue in the overlap matrix is 1.9466740658E-04.
  Using Symmetric Orthogonalization.

  SCF Guess: Superposition of Atomic Densities via on-the-fly atomic UHF.

  ==> Iterations <==

                           Total Energy        Delta E     RMS |[F,P]|

   @DF-RKS iter SAD:  -342.75381106320975   -3.42754e+02   0.00000e+00 
   @DF-RKS iter   1:  -343.07417240406591   -3.20361e-01   2.18151e-03 DIIS
   @DF-RKS iter   2:  -343.09909457471400   -2.49222e-02   1.07015e-03 DIIS
   @DF-RKS iter   3:  -343.10439115432706   -5.29658e-03   1.13554e-04 DIIS
   @DF-RKS iter   4:  -343.10469006083912   -2.98907e-04   1.97394e-05 DIIS
   @DF-RKS iter   5:  -343.10469920168180   -9.14084e-06   4.27025e-06 DIIS
   @DF-RKS iter   6:  -343.10469941539907   -2.13717e-07   7.23592e-07 DIIS
   @DF-RKS iter   7:  -343.10469942255770   -7.15863e-09   1.52097e-07 DIIS
   @DF-RKS iter   8:  -343.10469942283481   -2.77112e-10   2.24177e-08 DIIS
   @DF-RKS iter   9:  -343.10469942284601   -1.11982e-11   3.26227e-09 DIIS
  Energy and wave function converged.


  ==> Post-Iterations <==

    Orbital Energies [Eh]
    ---------------------

    Doubly Occupied:                                                      

       1Ap   -77.098362     2Ap    -6.659617     3Ap    -4.814140  
       1App   -4.814132     4Ap    -4.809701     5Ap    -0.772994  
       2App   -0.489345     6Ap    -0.488764     7Ap    -0.375123  

    Virtual:                                                              

       8Ap     0.094401     9Ap     0.102114     3App    0.102483  
       4App    0.209228    10Ap     0.209351    11Ap     0.240741  
       5App    0.264264    12Ap     0.264327    13Ap     0.267744  
      14Ap     0.328866     6App    0.329011    15Ap     0.398800  
      16Ap     0.448796    17Ap     0.539460     7App    0.539907  
       8App    0.685074     9App    0.699711    18Ap     0.699814  
      10App    0.760825    19Ap     0.760922    20Ap     0.832809  
      21Ap     0.845465    11App    0.845675    12App    0.884531  
      22Ap     0.885152    23Ap     0.893005    24Ap     0.947519  
      25Ap     1.040732    13App    1.142699    26Ap     1.145230  
      14App    1.145540    27Ap     1.161097    28Ap     1.229979  
      15App    1.230663    29Ap     1.249301    30Ap     1.271856  
      16App    1.272671    17App    1.458770    31Ap     1.458883  
      32Ap     1.521711    18App    1.659141    33Ap     1.659181  
      19App    2.044885    34Ap     2.045409    20App    2.053856  
      35Ap     2.054371    21App    2.071555    36Ap     2.107740  
      22App    2.164818    37Ap     2.165127    38Ap     2.186518  
      23App    2.288040    39Ap     2.288242    40Ap     2.309241  
      24App    2.369789    41Ap     2.482188    25App    2.482842  
      42Ap     2.488549    43Ap     2.545043    26App    2.545673  
      44Ap     2.571156    27App    2.672607    45Ap     2.702580  
      46Ap     2.706562    28App    2.707062    47Ap     2.746786  
      29App    2.746871    48Ap     2.947441    49Ap     2.954768  
      30App    2.955575    31App    3.008758    50Ap     3.015200  
      32App    3.016529    51Ap     3.054895    52Ap     3.133266  
      33App    3.133357    53Ap     3.446177    34App    3.470166  
      54Ap     3.471035    55Ap     3.607917    35App    3.610186  
      56Ap     3.648219    36App    3.758084    57Ap     3.759022  
      58Ap     3.938097    37App    3.988251    59Ap     4.012792  
      38App    4.013362    39App    5.883799    60Ap     5.884332  
      40App    5.909020    61Ap     5.909807    41App    5.910820  
      62Ap     5.950880    42App    5.971418    63Ap     5.972555  
      64Ap     5.978759    43App    6.000378    65Ap     6.249746  
      44App    6.250682    66Ap     6.348913    45App    6.350329  
      67Ap     6.384337    68Ap     6.409138    46App    6.414296  
      69Ap     6.619656    70Ap     6.766705    47App    6.768024  
      71Ap     6.772377    48App    6.945493    72Ap     7.005970  
      49App    7.007740    73Ap     7.579811    50App    7.593117  
      74Ap     7.593605    75Ap     7.668891    76Ap     7.673532  
      51App    7.674194    52App    7.818062    77Ap     7.818116  
      53App    7.988482    78Ap     8.040911    54App    8.042767  
      79Ap     8.052428    55App    8.054224    80Ap     8.088353  
      56App    8.129133    81Ap     8.131405    57App    8.314631  
      82Ap     8.325896    83Ap     8.414604    58App    8.414630  
      59App    8.655406    60App    8.670673    84Ap     8.670682  
      85Ap     8.822231    61App    9.027406    86Ap     9.028659  
      87Ap     9.110133    62App    9.110735    88Ap     9.155548  
      89Ap     9.434239    90Ap    10.811411    63App   10.824515  
      91Ap    15.640184  

    Final Occupation by Irrep:
             Ap   App 
    DOCC [     7,    2 ]

  @DF-RKS Final Energy:  -343.10469942284601

   => Energetics <=

    Nuclear Repulsion Energy =             17.6028561652154423
    One-Electron Energy =                -508.5668002371611465
    Two-Electron Energy =                 165.8035900234059739
    DFT Exchange-Correlation Energy =     -18.0197320328907509
    Empirical Dispersion Energy =           0.0000000000000000
    VV10 Nonlocal Energy =                  0.0753866585845094
    Total Energy =                       -343.1046994228459539

Computation Completed


Properties will be evaluated at   0.000000,   0.000000,   0.000000 [a0]

Properties computed using the SCF density matrix

  Nuclear Dipole Moment: [e a0]
     X:    -0.0032      Y:    -2.0213      Z:     0.0000

  Electronic Dipole Moment: [e a0]
     X:     0.0045      Y:     1.7516      Z:     0.0000

  Dipole Moment: [e a0]
     X:     0.0013      Y:    -0.2697      Z:     0.0000     Total:     0.2697

  Dipole Moment: [D]
     X:     0.0034      Y:    -0.6856      Z:     0.0000     Total:     0.6856


*** tstop() called on bp1-compute00066.data.bp.acrc.priv at Tue Apr 27 17:05:05 2021
Module time:
	user time   =      92.50 seconds =       1.54 minutes
	system time =       2.52 seconds =       0.04 minutes
	total time  =          4 seconds =       0.07 minutes
Total time:
	user time   =     290.40 seconds =       4.84 minutes
	system time =      12.41 seconds =       0.21 minutes
	total time  =         13 seconds =       0.22 minutes

  //>>>>>>>>>>>>>>>>>>>>>>>>>>>>>>>>>>>//
  //    Loading displacement 4 of 9    //
  //<<<<<<<<<<<<<<<<<<<<<<<<<<<<<<<<<<<//

*** tstart() called on bp1-compute00066.data.bp.acrc.priv
*** at Tue Apr 27 17:05:05 2021

   => Loading Basis Set <=

    Name: CC-PV(Q+D)Z
    Role: ORBITAL
    Keyword: BASIS
    atoms 1   entry P          line   890 file /work/zw18965/.conda/envs/p4env/share/psi4/basis/cc-pv_qpd_z.gbs 
    atoms 2-4 entry H          line    32 file /work/zw18965/.conda/envs/p4env/share/psi4/basis/cc-pv_qpd_z.gbs 


         ---------------------------------------------------------
                                   SCF
               by Justin Turney, Rob Parrish, Andy Simmonett
                          and Daniel G. A. Smith
                              RKS Reference
                       24 Threads, 137329 MiB Core
         ---------------------------------------------------------

  ==> Geometry <==

    Molecular point group: cs
    Full point group: C3v

    Geometry (in Angstrom), charge = 0, multiplicity = 1:

       Center              X                  Y                   Z               Mass       
    ------------   -----------------  -----------------  -----------------  -----------------
         P            0.000000000001     0.067842945456     0.000000000000    30.973761998420
         H            0.595171596587    -0.695011924562     1.030867444611     1.007825032230
         H            0.595171596587    -0.695011924562    -1.030867444611     1.007825032230
         H           -1.190343193220    -0.695011924562     0.000000000000     1.007825032230

  Running in cs symmetry.

  Rotational constants: A =      4.50133  B =      4.50133  C =      3.93501 [cm^-1]
  Rotational constants: A = 134946.49342  B = 134946.49341  C = 117968.59793 [MHz]
  Nuclear repulsion =   17.613095820028434

  Charge       = 0
  Multiplicity = 1
  Electrons    = 18
  Nalpha       = 9
  Nbeta        = 9

  ==> Algorithm <==

  SCF Algorithm Type is DF.
  DIIS enabled.
  MOM disabled.
  Fractional occupation disabled.
  Guess Type is SAD.
  Energy threshold   = 1.00e-08
  Density threshold  = 1.00e-08
  Integral threshold = 0.00e+00

  ==> Primary Basis <==

  Basis Set: CC-PV(Q+D)Z
    Blend: CC-PV(Q+D)Z
    Number of shells: 48
    Number of basis function: 154
    Number of Cartesian functions: 185
    Spherical Harmonics?: true
    Max angular momentum: 4

  ==> DFT Potential <==

   => Composite Functional: WB97X-V <= 

    wB97X-V Hyb-GGA Exchange-Correlation Functional

    N. Mardirossian and M. Head-Gordon, Phys. Chem. Chem. Phys. 16, 9904 (2014)

    Deriv               =              1
    GGA                 =           TRUE
    Meta                =          FALSE

    Exchange Hybrid     =           TRUE
    MP2 Hybrid          =          FALSE

   => Exchange-Correlation Functionals <=

    1.0000   wB97X-V range-separated functional

   => Exact (HF) Exchange <=

    0.8330            HF,LR [omega = 0.3000]
    0.1670               HF 

   => VV10 Non-Local Parameters <=

    VV10 B              =     6.0000E+00
    VV10 C              =     1.0000E-02

   => Molecular Quadrature <=

    Radial Scheme          =       TREUTLER
    Pruning Scheme         =           FLAT
    Nuclear Scheme         =       TREUTLER

    BS radius alpha        =              1
    Pruning alpha          =              1
    Radial Points          =             75
    Spherical Points       =            302
    Total Points           =          89838
    Total Blocks           =            730
    Max Points             =            256
    Max Functions          =            154

   => Loading Basis Set <=

    Name: (CC-PV(Q+D)Z AUX)
    Role: JKFIT
    Keyword: DF_BASIS_SCF
    atoms 1   entry P          line   591 file /work/zw18965/.conda/envs/p4env/share/psi4/basis/cc-pvqz-jkfit.gbs 
    atoms 2-4 entry H          line    51 file /work/zw18965/.conda/envs/p4env/share/psi4/basis/cc-pvqz-jkfit.gbs 

  ==> Pre-Iterations <==

   -------------------------------------------------------
    Irrep   Nso     Nmo     Nalpha   Nbeta   Ndocc  Nsocc
   -------------------------------------------------------
     A'        91      91       0       0       0       0
     A"        63      63       0       0       0       0
   -------------------------------------------------------
    Total     154     154       9       9       9       0
   -------------------------------------------------------

  ==> Integral Setup <==

  ==> DiskDFJK: Density-Fitted J/K Matrices <==

    J tasked:                  Yes
    K tasked:                  Yes
    wK tasked:                 Yes
    Omega:               3.000E-01
    OpenMP threads:             24
    Integrals threads:          24
    Memory [MiB]:           102635
    Algorithm:                Core
    Integral Cache:           NONE
    Schwarz Cutoff:          1E-12
    Fitting Condition:       1E-10

   => Auxiliary Basis Set <=

  Basis Set: (CC-PV(Q+D)Z AUX)
    Blend: CC-PVQZ-JKFIT
    Number of shells: 79
    Number of basis function: 301
    Number of Cartesian functions: 389
    Spherical Harmonics?: true
    Max angular momentum: 5

  Cached 100.0% of DFT collocation blocks in 0.353 [GiB].

  Minimum eigenvalue in the overlap matrix is 1.9404892903E-04.
  Using Symmetric Orthogonalization.

  SCF Guess: Superposition of Atomic Densities via on-the-fly atomic UHF.

  ==> Iterations <==

                           Total Energy        Delta E     RMS |[F,P]|

   @DF-RKS iter SAD:  -342.75468019581950   -3.42755e+02   0.00000e+00 
   @DF-RKS iter   1:  -343.07415864472063   -3.19478e-01   2.18256e-03 DIIS
   @DF-RKS iter   2:  -343.09910453595228   -2.49459e-02   1.07000e-03 DIIS
   @DF-RKS iter   3:  -343.10439405803692   -5.28952e-03   1.13622e-04 DIIS
   @DF-RKS iter   4:  -343.10469316720184   -2.99109e-04   1.97283e-05 DIIS
   @DF-RKS iter   5:  -343.10470230319828   -9.13600e-06   4.26689e-06 DIIS
   @DF-RKS iter   6:  -343.10470251663531   -2.13437e-07   7.21905e-07 DIIS
   @DF-RKS iter   7:  -343.10470252377257   -7.13726e-09   1.52395e-07 DIIS
   @DF-RKS iter   8:  -343.10470252405071   -2.78135e-10   2.24558e-08 DIIS
   @DF-RKS iter   9:  -343.10470252406139   -1.06866e-11   3.15052e-09 DIIS
  Energy and wave function converged.


  ==> Post-Iterations <==

    Orbital Energies [Eh]
    ---------------------

    Doubly Occupied:                                                      

       1Ap   -77.098149     2Ap    -6.659472     3Ap    -4.813991  
       1App   -4.813990     4Ap    -4.809551     5Ap    -0.773151  
       6Ap    -0.489322     2App   -0.489322     7Ap    -0.374916  

    Virtual:                                                              

       8Ap     0.094477     9Ap     0.102460     3App    0.102460  
      10Ap     0.209240     4App    0.209240    11Ap     0.240734  
       5App    0.264294    12Ap     0.264294    13Ap     0.267735  
      14Ap     0.329029     6App    0.329029    15Ap     0.398976  
      16Ap     0.448775    17Ap     0.539924     7App    0.539924  
       8App    0.685013    18Ap     0.700014     9App    0.700017  
      19Ap     0.760816    10App    0.760816    20Ap     0.832580  
      21Ap     0.845506    11App    0.845508    22Ap     0.885158  
      12App    0.885161    23Ap     0.893131    24Ap     0.947860  
      25Ap     1.041123    13App    1.142928    26Ap     1.145664  
      14App    1.145666    27Ap     1.160660    28Ap     1.230701  
      15App    1.230703    29Ap     1.249001    30Ap     1.272049  
      16App    1.272053    31Ap     1.458725    17App    1.458726  
      32Ap     1.521838    33Ap     1.659950    18App    1.659951  
      34Ap     2.045041    19App    2.045044    20App    2.054173  
      35Ap     2.054173    21App    2.071345    36Ap     2.108283  
      37Ap     2.165282    22App    2.165284    38Ap     2.186916  
      39Ap     2.288471    23App    2.288472    40Ap     2.310094  
      24App    2.370286    25App    2.482863    41Ap     2.482864  
      42Ap     2.489181    26App    2.546036    43Ap     2.546037  
      44Ap     2.570905    27App    2.672191    45Ap     2.702906  
      46Ap     2.707047    28App    2.707050    47Ap     2.747749  
      29App    2.747751    48Ap     2.947495    49Ap     2.956469  
      30App    2.956482    31App    3.009513    50Ap     3.016194  
      32App    3.016197    51Ap     3.054434    52Ap     3.134036  
      33App    3.134041    53Ap     3.446563    34App    3.470089  
      54Ap     3.470089    55Ap     3.610674    35App    3.610676  
      56Ap     3.649354    57Ap     3.758757    36App    3.758758  
      58Ap     3.938825    37App    3.990362    59Ap     4.013766  
      38App    4.013772    39App    5.883786    60Ap     5.883805  
      40App    5.908824    61Ap     5.908827    41App    5.910586  
      62Ap     5.950899    42App    5.971661    63Ap     5.971665  
      64Ap     5.978258    43App    6.000410    65Ap     6.250691  
      44App    6.250691    45App    6.351186    66Ap     6.351191  
      67Ap     6.384058    68Ap     6.415281    46App    6.415283  
      69Ap     6.620087    47App    6.770112    70Ap     6.770113  
      71Ap     6.773962    48App    6.946935    49App    7.008210  
      72Ap     7.008220    73Ap     7.580702    50App    7.594500  
      74Ap     7.594507    75Ap     7.671877    76Ap     7.674240  
      51App    7.674241    77Ap     7.819077    52App    7.819093  
      53App    7.990410    54App    8.042909    78Ap     8.042930  
      55App    8.054459    79Ap     8.054476    80Ap     8.089176  
      81Ap     8.132250    56App    8.132253    57App    8.315710  
      82Ap     8.327112    83Ap     8.414658    58App    8.414659  
      59App    8.654853    60App    8.670393    84Ap     8.670395  
      85Ap     8.823057    86Ap     9.029939    61App    9.029950  
      87Ap     9.111087    62App    9.111089    88Ap     9.156180  
      89Ap     9.434464    90Ap    10.824532    63App   10.824536  
      91Ap    15.650231  

    Final Occupation by Irrep:
             Ap   App 
    DOCC [     7,    2 ]

  @DF-RKS Final Energy:  -343.10470252406139

   => Energetics <=

    Nuclear Repulsion Energy =             17.6130958200284340
    One-Electron Energy =                -508.5875744211951428
    Two-Electron Energy =                 165.8146510823825679
    DFT Exchange-Correlation Energy =     -18.0202623606713246
    Empirical Dispersion Energy =           0.0000000000000000
    VV10 Nonlocal Energy =                  0.0753873553940892
    Total Energy =                       -343.1047025240613948

Computation Completed


Properties will be evaluated at   0.000000,   0.000000,   0.000000 [a0]

Properties computed using the SCF density matrix

  Nuclear Dipole Moment: [e a0]
     X:    -0.0000      Y:    -2.0171      Z:     0.0000

  Electronic Dipole Moment: [e a0]
     X:    -0.0000      Y:     1.7463      Z:     0.0000

  Dipole Moment: [e a0]
     X:    -0.0000      Y:    -0.2708      Z:     0.0000     Total:     0.2708

  Dipole Moment: [D]
     X:    -0.0000      Y:    -0.6882      Z:     0.0000     Total:     0.6882


*** tstop() called on bp1-compute00066.data.bp.acrc.priv at Tue Apr 27 17:05:10 2021
Module time:
	user time   =      96.75 seconds =       1.61 minutes
	system time =       2.76 seconds =       0.05 minutes
	total time  =          5 seconds =       0.08 minutes
Total time:
	user time   =     387.29 seconds =       6.45 minutes
	system time =      15.17 seconds =       0.25 minutes
	total time  =         18 seconds =       0.30 minutes

  //>>>>>>>>>>>>>>>>>>>>>>>>>>>>>>>>>>>//
  //    Loading displacement 5 of 9    //
  //<<<<<<<<<<<<<<<<<<<<<<<<<<<<<<<<<<<//

*** tstart() called on bp1-compute00066.data.bp.acrc.priv
*** at Tue Apr 27 17:05:10 2021

   => Loading Basis Set <=

    Name: CC-PV(Q+D)Z
    Role: ORBITAL
    Keyword: BASIS
    atoms 1   entry P          line   890 file /work/zw18965/.conda/envs/p4env/share/psi4/basis/cc-pv_qpd_z.gbs 
    atoms 2-4 entry H          line    32 file /work/zw18965/.conda/envs/p4env/share/psi4/basis/cc-pv_qpd_z.gbs 


         ---------------------------------------------------------
                                   SCF
               by Justin Turney, Rob Parrish, Andy Simmonett
                          and Daniel G. A. Smith
                              RKS Reference
                       24 Threads, 137329 MiB Core
         ---------------------------------------------------------

  ==> Geometry <==

    Molecular point group: cs
    Full point group: C3v

    Geometry (in Angstrom), charge = 0, multiplicity = 1:

       Center              X                  Y                   Z               Mass       
    ------------   -----------------  -----------------  -----------------  -----------------
         P            0.000000000001     0.068126499300     0.000000000000    30.973761998420
         H            0.595171596587    -0.697916770482     1.030867444611     1.007825032230
         H            0.595171596587    -0.697916770482    -1.030867444611     1.007825032230
         H           -1.190343193220    -0.697916770482     0.000000000000     1.007825032230

  Running in cs symmetry.

  Rotational constants: A =      4.48525  B =      4.48525  C =      3.93501 [cm^-1]
  Rotational constants: A = 134464.36840  B = 134464.36839  C = 117968.59793 [MHz]
  Nuclear repulsion =   17.592595224261025

  Charge       = 0
  Multiplicity = 1
  Electrons    = 18
  Nalpha       = 9
  Nbeta        = 9

  ==> Algorithm <==

  SCF Algorithm Type is DF.
  DIIS enabled.
  MOM disabled.
  Fractional occupation disabled.
  Guess Type is SAD.
  Energy threshold   = 1.00e-08
  Density threshold  = 1.00e-08
  Integral threshold = 0.00e+00

  ==> Primary Basis <==

  Basis Set: CC-PV(Q+D)Z
    Blend: CC-PV(Q+D)Z
    Number of shells: 48
    Number of basis function: 154
    Number of Cartesian functions: 185
    Spherical Harmonics?: true
    Max angular momentum: 4

  ==> DFT Potential <==

   => Composite Functional: WB97X-V <= 

    wB97X-V Hyb-GGA Exchange-Correlation Functional

    N. Mardirossian and M. Head-Gordon, Phys. Chem. Chem. Phys. 16, 9904 (2014)

    Deriv               =              1
    GGA                 =           TRUE
    Meta                =          FALSE

    Exchange Hybrid     =           TRUE
    MP2 Hybrid          =          FALSE

   => Exchange-Correlation Functionals <=

    1.0000   wB97X-V range-separated functional

   => Exact (HF) Exchange <=

    0.8330            HF,LR [omega = 0.3000]
    0.1670               HF 

   => VV10 Non-Local Parameters <=

    VV10 B              =     6.0000E+00
    VV10 C              =     1.0000E-02

   => Molecular Quadrature <=

    Radial Scheme          =       TREUTLER
    Pruning Scheme         =           FLAT
    Nuclear Scheme         =       TREUTLER

    BS radius alpha        =              1
    Pruning alpha          =              1
    Radial Points          =             75
    Spherical Points       =            302
    Total Points           =          89836
    Total Blocks           =            736
    Max Points             =            255
    Max Functions          =            154

   => Loading Basis Set <=

    Name: (CC-PV(Q+D)Z AUX)
    Role: JKFIT
    Keyword: DF_BASIS_SCF
    atoms 1   entry P          line   591 file /work/zw18965/.conda/envs/p4env/share/psi4/basis/cc-pvqz-jkfit.gbs 
    atoms 2-4 entry H          line    51 file /work/zw18965/.conda/envs/p4env/share/psi4/basis/cc-pvqz-jkfit.gbs 

  ==> Pre-Iterations <==

   -------------------------------------------------------
    Irrep   Nso     Nmo     Nalpha   Nbeta   Ndocc  Nsocc
   -------------------------------------------------------
     A'        91      91       0       0       0       0
     A"        63      63       0       0       0       0
   -------------------------------------------------------
    Total     154     154       9       9       9       0
   -------------------------------------------------------

  ==> Integral Setup <==

  ==> DiskDFJK: Density-Fitted J/K Matrices <==

    J tasked:                  Yes
    K tasked:                  Yes
    wK tasked:                 Yes
    Omega:               3.000E-01
    OpenMP threads:             24
    Integrals threads:          24
    Memory [MiB]:           102635
    Algorithm:                Core
    Integral Cache:           NONE
    Schwarz Cutoff:          1E-12
    Fitting Condition:       1E-10

   => Auxiliary Basis Set <=

  Basis Set: (CC-PV(Q+D)Z AUX)
    Blend: CC-PVQZ-JKFIT
    Number of shells: 79
    Number of basis function: 301
    Number of Cartesian functions: 389
    Spherical Harmonics?: true
    Max angular momentum: 5

  Cached 100.0% of DFT collocation blocks in 0.353 [GiB].

  Minimum eigenvalue in the overlap matrix is 1.9530333957E-04.
  Using Symmetric Orthogonalization.

  SCF Guess: Superposition of Atomic Densities via on-the-fly atomic UHF.

  ==> Iterations <==

                           Total Energy        Delta E     RMS |[F,P]|

   @DF-RKS iter SAD:  -342.75294148440270   -3.42753e+02   0.00000e+00 
   @DF-RKS iter   1:  -343.07418875309753   -3.21247e-01   2.18043e-03 DIIS
   @DF-RKS iter   2:  -343.09908635433442   -2.48976e-02   1.07027e-03 DIIS
   @DF-RKS iter   3:  -343.10438980617459   -5.30345e-03   1.13485e-04 DIIS
   @DF-RKS iter   4:  -343.10468851465959   -2.98708e-04   1.97498e-05 DIIS
   @DF-RKS iter   5:  -343.10469766036096   -9.14570e-06   4.27260e-06 DIIS
   @DF-RKS iter   6:  -343.10469787428769   -2.13927e-07   7.24701e-07 DIIS
   @DF-RKS iter   7:  -343.10469788145616   -7.16847e-09   1.51601e-07 DIIS
   @DF-RKS iter   8:  -343.10469788173276   -2.76600e-10   2.22638e-08 DIIS
   @DF-RKS iter   9:  -343.10469788174362   -1.08571e-11   3.11421e-09 DIIS
  Energy and wave function converged.


  ==> Post-Iterations <==

    Orbital Energies [Eh]
    ---------------------

    Doubly Occupied:                                                      

       1Ap   -77.098575     2Ap    -6.659761     3Ap    -4.814282  
       1App   -4.814281     4Ap    -4.809852     5Ap    -0.772836  
       6Ap    -0.488787     2App   -0.488786     7Ap    -0.375330  

    Virtual:                                                              

       8Ap     0.094330     9Ap     0.102133     3App    0.102134  
      10Ap     0.209339     4App    0.209339    11Ap     0.240748  
       5App    0.264298    12Ap     0.264299    13Ap     0.267752  
      14Ap     0.328848     6App    0.328849    15Ap     0.398623  
      16Ap     0.448820    17Ap     0.539442     7App    0.539442  
       8App    0.685138    18Ap     0.699507     9App    0.699510  
      19Ap     0.760932    10App    0.760932    20Ap     0.833043  
      21Ap     0.845631    11App    0.845632    22Ap     0.884529  
      12App    0.884531    23Ap     0.892858    24Ap     0.947180  
      25Ap     1.040346    13App    1.142497    26Ap     1.145090  
      14App    1.145092    27Ap     1.161535    28Ap     1.229938  
      15App    1.229940    29Ap     1.249603    30Ap     1.272470  
      16App    1.272473    31Ap     1.458935    17App    1.458936  
      32Ap     1.521573    33Ap     1.658368    18App    1.658369  
      34Ap     2.045251    19App    2.045254    20App    2.054060  
      35Ap     2.054060    21App    2.071762    36Ap     2.107195  
      37Ap     2.164664    22App    2.164665    38Ap     2.186122  
      39Ap     2.287819    23App    2.287820    40Ap     2.308360  
      24App    2.369293    25App    2.482196    41Ap     2.482197  
      42Ap     2.487861    26App    2.544680    43Ap     2.544680  
      44Ap     2.571410    27App    2.673032    45Ap     2.702262  
      46Ap     2.706557    28App    2.706560    47Ap     2.745907  
      29App    2.745909    48Ap     2.947389    49Ap     2.953871  
      30App    2.953883    31App    3.008006    50Ap     3.015515  
      32App    3.015519    51Ap     3.055372    52Ap     3.132583  
      33App    3.132588    53Ap     3.445797    34App    3.471104  
      54Ap     3.471104    55Ap     3.607495    35App    3.607497  
      56Ap     3.646932    57Ap     3.758359    36App    3.758360  
      58Ap     3.937459    37App    3.986243    59Ap     4.012275  
      38App    4.012281    39App    5.884332    60Ap     5.884352  
      40App    5.910014    61Ap     5.910017    41App    5.911055  
      62Ap     5.950866    42App    5.972392    63Ap     5.972396  
      64Ap     5.979063    43App    6.000346    65Ap     6.249709  
      44App    6.249709    45App    6.348103    66Ap     6.348107  
      67Ap     6.384621    68Ap     6.408167    46App    6.408169  
      69Ap     6.619255    47App    6.765469    70Ap     6.765470  
      71Ap     6.769045    48App    6.944083    49App    7.005438  
      72Ap     7.005447    73Ap     7.579064    50App    7.592145  
      74Ap     7.592153    75Ap     7.668484    76Ap     7.672181  
      51App    7.672182    77Ap     7.817098    52App    7.817115  
      53App    7.986617    54App    8.040775    78Ap     8.040793  
      55App    8.052241    79Ap     8.052262    80Ap     8.087339  
      81Ap     8.128250    56App    8.128253    57App    8.313537  
      82Ap     8.324673    83Ap     8.414558    58App    8.414561  
      59App    8.655998    60App    8.670949    84Ap     8.670951  
      85Ap     8.821441    86Ap     9.026068    61App    9.026079  
      87Ap     9.109845    62App    9.109845    88Ap     9.154857  
      89Ap     9.434017    90Ap    10.811398    63App   10.811403  
      91Ap    15.630076  

    Final Occupation by Irrep:
             Ap   App 
    DOCC [     7,    2 ]

  @DF-RKS Final Energy:  -343.10469788174362

   => Energetics <=

    Nuclear Repulsion Energy =             17.5925952242610251
    One-Electron Energy =                -508.5459894006089598
    Two-Electron Energy =                 165.7925103958704085
    DFT Exchange-Correlation Energy =     -18.0192000576130695
    Empirical Dispersion Energy =           0.0000000000000000
    VV10 Nonlocal Energy =                  0.0753859563469950
    Total Energy =                       -343.1046978817436184

Computation Completed


Properties will be evaluated at   0.000000,   0.000000,   0.000000 [a0]

Properties computed using the SCF density matrix

  Nuclear Dipole Moment: [e a0]
     X:    -0.0000      Y:    -2.0255      Z:     0.0000

  Electronic Dipole Moment: [e a0]
     X:    -0.0000      Y:     1.7568      Z:     0.0000

  Dipole Moment: [e a0]
     X:    -0.0000      Y:    -0.2687      Z:     0.0000     Total:     0.2687

  Dipole Moment: [D]
     X:    -0.0000      Y:    -0.6829      Z:     0.0000     Total:     0.6829


*** tstop() called on bp1-compute00066.data.bp.acrc.priv at Tue Apr 27 17:05:14 2021
Module time:
	user time   =      95.39 seconds =       1.59 minutes
	system time =       2.65 seconds =       0.04 minutes
	total time  =          4 seconds =       0.07 minutes
Total time:
	user time   =     482.83 seconds =       8.05 minutes
	system time =      17.83 seconds =       0.30 minutes
	total time  =         22 seconds =       0.37 minutes

  //>>>>>>>>>>>>>>>>>>>>>>>>>>>>>>>>>>>//
  //    Loading displacement 6 of 9    //
  //<<<<<<<<<<<<<<<<<<<<<<<<<<<<<<<<<<<//

*** tstart() called on bp1-compute00066.data.bp.acrc.priv
*** at Tue Apr 27 17:05:14 2021

   => Loading Basis Set <=

    Name: CC-PV(Q+D)Z
    Role: ORBITAL
    Keyword: BASIS
    atoms 1   entry P          line   890 file /work/zw18965/.conda/envs/p4env/share/psi4/basis/cc-pv_qpd_z.gbs 
    atoms 2-4 entry H          line    32 file /work/zw18965/.conda/envs/p4env/share/psi4/basis/cc-pv_qpd_z.gbs 


         ---------------------------------------------------------
                                   SCF
               by Justin Turney, Rob Parrish, Andy Simmonett
                          and Daniel G. A. Smith
                              RKS Reference
                       24 Threads, 137329 MiB Core
         ---------------------------------------------------------

  ==> Geometry <==

    Molecular point group: cs
    Full point group: Cs

    Geometry (in Angstrom), charge = 0, multiplicity = 1:

       Center              X                  Y                   Z               Mass       
    ------------   -----------------  -----------------  -----------------  -----------------
         P            0.000000000001     0.067984722378     0.000000000000    30.973761998420
         H            0.594095619703    -0.696464347522     1.030867444611     1.007825032230
         H            0.594095619703    -0.696464347522    -1.030867444611     1.007825032230
         H           -1.188191239451    -0.696464347522     0.000000000000     1.007825032230

  Running in cs symmetry.

  Rotational constants: A =      4.50257  B =      4.49328  C =      3.94213 [cm^-1]
  Rotational constants: A = 134983.64962  B = 134705.25086  C = 118182.05942 [MHz]
  Nuclear repulsion =   17.614322033411948

  Charge       = 0
  Multiplicity = 1
  Electrons    = 18
  Nalpha       = 9
  Nbeta        = 9

  ==> Algorithm <==

  SCF Algorithm Type is DF.
  DIIS enabled.
  MOM disabled.
  Fractional occupation disabled.
  Guess Type is SAD.
  Energy threshold   = 1.00e-08
  Density threshold  = 1.00e-08
  Integral threshold = 0.00e+00

  ==> Primary Basis <==

  Basis Set: CC-PV(Q+D)Z
    Blend: CC-PV(Q+D)Z
    Number of shells: 48
    Number of basis function: 154
    Number of Cartesian functions: 185
    Spherical Harmonics?: true
    Max angular momentum: 4

  ==> DFT Potential <==

   => Composite Functional: WB97X-V <= 

    wB97X-V Hyb-GGA Exchange-Correlation Functional

    N. Mardirossian and M. Head-Gordon, Phys. Chem. Chem. Phys. 16, 9904 (2014)

    Deriv               =              1
    GGA                 =           TRUE
    Meta                =          FALSE

    Exchange Hybrid     =           TRUE
    MP2 Hybrid          =          FALSE

   => Exchange-Correlation Functionals <=

    1.0000   wB97X-V range-separated functional

   => Exact (HF) Exchange <=

    0.8330            HF,LR [omega = 0.3000]
    0.1670               HF 

   => VV10 Non-Local Parameters <=

    VV10 B              =     6.0000E+00
    VV10 C              =     1.0000E-02

   => Molecular Quadrature <=

    Radial Scheme          =       TREUTLER
    Pruning Scheme         =           FLAT
    Nuclear Scheme         =       TREUTLER

    BS radius alpha        =              1
    Pruning alpha          =              1
    Radial Points          =             75
    Spherical Points       =            302
    Total Points           =          89836
    Total Blocks           =            734
    Max Points             =            256
    Max Functions          =            154

   => Loading Basis Set <=

    Name: (CC-PV(Q+D)Z AUX)
    Role: JKFIT
    Keyword: DF_BASIS_SCF
    atoms 1   entry P          line   591 file /work/zw18965/.conda/envs/p4env/share/psi4/basis/cc-pvqz-jkfit.gbs 
    atoms 2-4 entry H          line    51 file /work/zw18965/.conda/envs/p4env/share/psi4/basis/cc-pvqz-jkfit.gbs 

  ==> Pre-Iterations <==

   -------------------------------------------------------
    Irrep   Nso     Nmo     Nalpha   Nbeta   Ndocc  Nsocc
   -------------------------------------------------------
     A'        91      91       0       0       0       0
     A"        63      63       0       0       0       0
   -------------------------------------------------------
    Total     154     154       9       9       9       0
   -------------------------------------------------------

  ==> Integral Setup <==

  ==> DiskDFJK: Density-Fitted J/K Matrices <==

    J tasked:                  Yes
    K tasked:                  Yes
    wK tasked:                 Yes
    Omega:               3.000E-01
    OpenMP threads:             24
    Integrals threads:          24
    Memory [MiB]:           102635
    Algorithm:                Core
    Integral Cache:           NONE
    Schwarz Cutoff:          1E-12
    Fitting Condition:       1E-10

   => Auxiliary Basis Set <=

  Basis Set: (CC-PV(Q+D)Z AUX)
    Blend: CC-PVQZ-JKFIT
    Number of shells: 79
    Number of basis function: 301
    Number of Cartesian functions: 389
    Spherical Harmonics?: true
    Max angular momentum: 5

  Cached 100.0% of DFT collocation blocks in 0.353 [GiB].

  Minimum eigenvalue in the overlap matrix is 1.9390640901E-04.
  Using Symmetric Orthogonalization.

  SCF Guess: Superposition of Atomic Densities via on-the-fly atomic UHF.

  ==> Iterations <==

                           Total Energy        Delta E     RMS |[F,P]|

   @DF-RKS iter SAD:  -342.75495132741338   -3.42755e+02   0.00000e+00 
   @DF-RKS iter   1:  -343.07417867820641   -3.19227e-01   2.18230e-03 DIIS
   @DF-RKS iter   2:  -343.09910145264297   -2.49228e-02   1.06988e-03 DIIS
   @DF-RKS iter   3:  -343.10439032938984   -5.28888e-03   1.13529e-04 DIIS
   @DF-RKS iter   4:  -343.10468899347728   -2.98664e-04   1.97987e-05 DIIS
   @DF-RKS iter   5:  -343.10469816686094   -9.17338e-06   4.28258e-06 DIIS
   @DF-RKS iter   6:  -343.10469838127545   -2.14415e-07   7.28111e-07 DIIS
   @DF-RKS iter   7:  -343.10469838852191   -7.24646e-09   1.51827e-07 DIIS
   @DF-RKS iter   8:  -343.10469838879936   -2.77453e-10   2.23289e-08 DIIS
   @DF-RKS iter   9:  -343.10469838881016   -1.08002e-11   3.13183e-09 DIIS
  Energy and wave function converged.


  ==> Post-Iterations <==

    Orbital Energies [Eh]
    ---------------------

    Doubly Occupied:                                                      

       1Ap   -77.098131     2Ap    -6.659457     1App   -4.813974  
       3Ap    -4.813972     4Ap    -4.809539     5Ap    -0.773193  
       2App   -0.489173     6Ap    -0.489103     7Ap    -0.375183  

    Virtual:                                                              

       8Ap     0.094485     9Ap     0.102392     3App    0.102408  
       4App    0.209273    10Ap     0.209298    11Ap     0.240726  
       5App    0.264280    12Ap     0.264340    13Ap     0.267764  
       6App    0.328976    14Ap     0.328987    15Ap     0.399068  
      16Ap     0.449080    17Ap     0.539688     7App    0.539830  
       8App    0.685429     9App    0.699548    18Ap     0.700066  
      10App    0.760910    19Ap     0.761005    20Ap     0.832720  
      11App    0.845387    21Ap     0.845650    22Ap     0.884987  
      12App    0.885120    23Ap     0.893263    24Ap     0.947429  
      25Ap     1.041072    13App    1.142729    26Ap     1.145256  
      14App    1.145451    27Ap     1.160930    15App    1.230477  
      28Ap     1.230833    29Ap     1.249575    30Ap     1.272315  
      16App    1.273015    31Ap     1.458820    17App    1.458827  
      32Ap     1.521447    18App    1.658651    33Ap     1.659209  
      19App    2.045128    34Ap     2.046258    20App    2.054259  
      35Ap     2.055313    21App    2.072076    36Ap     2.108376  
      22App    2.165209    37Ap     2.165226    38Ap     2.186683  
      39Ap     2.288309    23App    2.288455    40Ap     2.309431  
      24App    2.370394    25App    2.482627    41Ap     2.482847  
      42Ap     2.488720    43Ap     2.545845    26App    2.545889  
      44Ap     2.571811    27App    2.673210    45Ap     2.702577  
      28App    2.706830    46Ap     2.707521    47Ap     2.746991  
      29App    2.747011    48Ap     2.948461    49Ap     2.955293  
      30App    2.955541    31App    3.009696    32App    3.016491  
      50Ap     3.016921    51Ap     3.056558    33App    3.134431  
      52Ap     3.134482    53Ap     3.445832    54Ap     3.469806  
      34App    3.470109    35App    3.609648    55Ap     3.610864  
      56Ap     3.649177    57Ap     3.759891    36App    3.761560  
      58Ap     3.938799    37App    3.989273    38App    4.014178  
      59Ap     4.014938    39App    5.883943    60Ap     5.884284  
      40App    5.909412    61Ap     5.909555    41App    5.911211  
      62Ap     5.951640    63Ap     5.971150    42App    5.972032  
      64Ap     5.978937    43App    6.001462    65Ap     6.250198  
      44App    6.250907    66Ap     6.350054    45App    6.350189  
      67Ap     6.383672    46App    6.413340    68Ap     6.414719  
      69Ap     6.623426    70Ap     6.769694    47App    6.770610  
      71Ap     6.775511    48App    6.945752    72Ap     7.007726  
      49App    7.007833    73Ap     7.581705    74Ap     7.594355  
      50App    7.595959    75Ap     7.671384    51App    7.674279  
      76Ap     7.675437    52App    7.817281    77Ap     7.817441  
      53App    7.990018    54App    8.043375    78Ap     8.044062  
      55App    8.053981    79Ap     8.054682    80Ap     8.090831  
      81Ap     8.131245    56App    8.134401    57App    8.315190  
      82Ap     8.326869    83Ap     8.414767    58App    8.415929  
      59App    8.657329    60App    8.671506    84Ap     8.673384  
      85Ap     8.822831    86Ap     9.028724    61App    9.028752  
      62App    9.111008    87Ap     9.111622    88Ap     9.156570  
      89Ap     9.436024    63App   10.821320    90Ap    10.827376  
      91Ap    15.651361  

    Final Occupation by Irrep:
             Ap   App 
    DOCC [     7,    2 ]

  @DF-RKS Final Energy:  -343.10469838881016

   => Energetics <=

    Nuclear Repulsion Energy =             17.6143220334119484
    One-Electron Energy =                -508.5902658012337270
    Two-Electron Energy =                 165.8161735645411454
    DFT Exchange-Correlation Energy =     -18.0203150832360350
    Empirical Dispersion Energy =           0.0000000000000000
    VV10 Nonlocal Energy =                  0.0753868977065194
    Total Energy =                       -343.1046983888101636

Computation Completed


Properties will be evaluated at   0.000000,   0.000000,   0.000000 [a0]

Properties computed using the SCF density matrix

  Nuclear Dipole Moment: [e a0]
     X:    -0.0000      Y:    -2.0213      Z:     0.0000

  Electronic Dipole Moment: [e a0]
     X:    -0.0002      Y:     1.7513      Z:     0.0000

  Dipole Moment: [e a0]
     X:    -0.0002      Y:    -0.2700      Z:     0.0000     Total:     0.2700

  Dipole Moment: [D]
     X:    -0.0005      Y:    -0.6862      Z:     0.0000     Total:     0.6862


*** tstop() called on bp1-compute00066.data.bp.acrc.priv at Tue Apr 27 17:05:18 2021
Module time:
	user time   =      94.95 seconds =       1.58 minutes
	system time =       2.62 seconds =       0.04 minutes
	total time  =          4 seconds =       0.07 minutes
Total time:
	user time   =     577.92 seconds =       9.63 minutes
	system time =      20.45 seconds =       0.34 minutes
	total time  =         26 seconds =       0.43 minutes

  //>>>>>>>>>>>>>>>>>>>>>>>>>>>>>>>>>>>//
  //    Loading displacement 7 of 9    //
  //<<<<<<<<<<<<<<<<<<<<<<<<<<<<<<<<<<<//

*** tstart() called on bp1-compute00066.data.bp.acrc.priv
*** at Tue Apr 27 17:05:18 2021

   => Loading Basis Set <=

    Name: CC-PV(Q+D)Z
    Role: ORBITAL
    Keyword: BASIS
    atoms 1   entry P          line   890 file /work/zw18965/.conda/envs/p4env/share/psi4/basis/cc-pv_qpd_z.gbs 
    atoms 2-4 entry H          line    32 file /work/zw18965/.conda/envs/p4env/share/psi4/basis/cc-pv_qpd_z.gbs 


         ---------------------------------------------------------
                                   SCF
               by Justin Turney, Rob Parrish, Andy Simmonett
                          and Daniel G. A. Smith
                              RKS Reference
                       24 Threads, 137329 MiB Core
         ---------------------------------------------------------

  ==> Geometry <==

    Molecular point group: cs
    Full point group: Cs

    Geometry (in Angstrom), charge = 0, multiplicity = 1:

       Center              X                  Y                   Z               Mass       
    ------------   -----------------  -----------------  -----------------  -----------------
         P            0.000000000001     0.067984722378     0.000000000000    30.973761998420
         H            0.596247573472    -0.696464347522     1.030867444611     1.007825032230
         H            0.596247573472    -0.696464347522    -1.030867444611     1.007825032230
         H           -1.192495146989    -0.696464347522     0.000000000000     1.007825032230

  Running in cs symmetry.

  Rotational constants: A =      4.49328  B =      4.48402  C =      3.92790 [cm^-1]
  Rotational constants: A = 134705.25086  B = 134427.49749  C = 117755.52198 [MHz]
  Nuclear repulsion =   17.591384783026541

  Charge       = 0
  Multiplicity = 1
  Electrons    = 18
  Nalpha       = 9
  Nbeta        = 9

  ==> Algorithm <==

  SCF Algorithm Type is DF.
  DIIS enabled.
  MOM disabled.
  Fractional occupation disabled.
  Guess Type is SAD.
  Energy threshold   = 1.00e-08
  Density threshold  = 1.00e-08
  Integral threshold = 0.00e+00

  ==> Primary Basis <==

  Basis Set: CC-PV(Q+D)Z
    Blend: CC-PV(Q+D)Z
    Number of shells: 48
    Number of basis function: 154
    Number of Cartesian functions: 185
    Spherical Harmonics?: true
    Max angular momentum: 4

  ==> DFT Potential <==

   => Composite Functional: WB97X-V <= 

    wB97X-V Hyb-GGA Exchange-Correlation Functional

    N. Mardirossian and M. Head-Gordon, Phys. Chem. Chem. Phys. 16, 9904 (2014)

    Deriv               =              1
    GGA                 =           TRUE
    Meta                =          FALSE

    Exchange Hybrid     =           TRUE
    MP2 Hybrid          =          FALSE

   => Exchange-Correlation Functionals <=

    1.0000   wB97X-V range-separated functional

   => Exact (HF) Exchange <=

    0.8330            HF,LR [omega = 0.3000]
    0.1670               HF 

   => VV10 Non-Local Parameters <=

    VV10 B              =     6.0000E+00
    VV10 C              =     1.0000E-02

   => Molecular Quadrature <=

    Radial Scheme          =       TREUTLER
    Pruning Scheme         =           FLAT
    Nuclear Scheme         =       TREUTLER

    BS radius alpha        =              1
    Pruning alpha          =              1
    Radial Points          =             75
    Spherical Points       =            302
    Total Points           =          89838
    Total Blocks           =            734
    Max Points             =            256
    Max Functions          =            154

   => Loading Basis Set <=

    Name: (CC-PV(Q+D)Z AUX)
    Role: JKFIT
    Keyword: DF_BASIS_SCF
    atoms 1   entry P          line   591 file /work/zw18965/.conda/envs/p4env/share/psi4/basis/cc-pvqz-jkfit.gbs 
    atoms 2-4 entry H          line    51 file /work/zw18965/.conda/envs/p4env/share/psi4/basis/cc-pvqz-jkfit.gbs 

  ==> Pre-Iterations <==

   -------------------------------------------------------
    Irrep   Nso     Nmo     Nalpha   Nbeta   Ndocc  Nsocc
   -------------------------------------------------------
     A'        91      91       0       0       0       0
     A"        63      63       0       0       0       0
   -------------------------------------------------------
    Total     154     154       9       9       9       0
   -------------------------------------------------------

  ==> Integral Setup <==

  ==> DiskDFJK: Density-Fitted J/K Matrices <==

    J tasked:                  Yes
    K tasked:                  Yes
    wK tasked:                 Yes
    Omega:               3.000E-01
    OpenMP threads:             24
    Integrals threads:          24
    Memory [MiB]:           102635
    Algorithm:                Core
    Integral Cache:           NONE
    Schwarz Cutoff:          1E-12
    Fitting Condition:       1E-10

   => Auxiliary Basis Set <=

  Basis Set: (CC-PV(Q+D)Z AUX)
    Blend: CC-PVQZ-JKFIT
    Number of shells: 79
    Number of basis function: 301
    Number of Cartesian functions: 389
    Spherical Harmonics?: true
    Max angular momentum: 5

  Cached 100.0% of DFT collocation blocks in 0.353 [GiB].

  Minimum eigenvalue in the overlap matrix is 1.9544168176E-04.
  Using Symmetric Orthogonalization.

  SCF Guess: Superposition of Atomic Densities via on-the-fly atomic UHF.

  ==> Iterations <==

                           Total Energy        Delta E     RMS |[F,P]|

   @DF-RKS iter SAD:  -342.75267239313973   -3.42753e+02   0.00000e+00 
   @DF-RKS iter   1:  -343.07416677718817   -3.21494e-01   2.18072e-03 DIIS
   @DF-RKS iter   2:  -343.09908804945417   -2.49213e-02   1.07040e-03 DIIS
   @DF-RKS iter   3:  -343.10439219562443   -5.30415e-03   1.13578e-04 DIIS
   @DF-RKS iter   4:  -343.10469134510708   -2.99149e-04   1.96790e-05 DIIS
   @DF-RKS iter   5:  -343.10470045310262   -9.10800e-06   4.25688e-06 DIIS
   @DF-RKS iter   6:  -343.10470066605700   -2.12954e-07   7.18424e-07 DIIS
   @DF-RKS iter   7:  -343.10470067311797   -7.06098e-09   1.52195e-07 DIIS
   @DF-RKS iter   8:  -343.10470067339463   -2.76657e-10   2.24065e-08 DIIS
   @DF-RKS iter   9:  -343.10470067340577   -1.11413e-11   3.15042e-09 DIIS
  Energy and wave function converged.


  ==> Post-Iterations <==

    Orbital Energies [Eh]
    ---------------------

    Doubly Occupied:                                                      

       1Ap   -77.098592     2Ap    -6.659776     3Ap    -4.814300  
       1App   -4.814297     4Ap    -4.809864     5Ap    -0.772795  
       6Ap    -0.489005     2App   -0.488935     7Ap    -0.375064  

    Virtual:                                                              

       8Ap     0.094319     3App    0.102186     9Ap     0.102204  
      10Ap     0.209281     4App    0.209306    11Ap     0.240756  
      12Ap     0.264251     5App    0.264311    13Ap     0.267724  
      14Ap     0.328889     6App    0.328901    15Ap     0.398531  
      16Ap     0.448515     7App    0.539537    17Ap     0.539679  
       8App    0.684719    18Ap     0.699455     9App    0.699979  
      19Ap     0.760742    10App    0.760839    20Ap     0.832902  
      21Ap     0.845488    11App    0.845753    12App    0.884571  
      22Ap     0.884683    23Ap     0.892750    24Ap     0.947607  
      25Ap     1.040397    13App    1.142687    14App    1.145317  
      26Ap     1.145498    27Ap     1.161266    28Ap     1.229800  
      15App    1.230165    29Ap     1.249020    16App    1.271514  
      30Ap     1.272219    17App    1.458834    31Ap     1.458841  
      32Ap     1.521959    33Ap     1.659111    18App    1.659663  
      34Ap     2.044037    19App    2.045161    35Ap     2.052928  
      20App    2.053950    21App    2.071060    36Ap     2.107106  
      37Ap     2.164727    22App    2.164739    38Ap     2.186345  
[...]
  Rotational constants: A = 135125.43432  B = 134729.58205  C = 117533.32329 [MHz]
  Nuclear repulsion =   17.600891186957945

  Charge       = 0
  Multiplicity = 1
  Electrons    = 18
  Nalpha       = 9
  Nbeta        = 9

  ==> Algorithm <==

  SCF Algorithm Type is DF.
  DIIS enabled.
  MOM disabled.
  Fractional occupation disabled.
  Guess Type is SAD.
  Energy threshold   = 1.00e-10
  Density threshold  = 1.00e-10
  Integral threshold = 0.00e+00

  ==> Primary Basis <==

  Basis Set: CC-PV(Q+D)Z
    Blend: CC-PV(Q+D)Z
    Number of shells: 48
    Number of basis function: 154
    Number of Cartesian functions: 185
    Spherical Harmonics?: true
    Max angular momentum: 4

  ==> DFT Potential <==

   => Composite Functional: WB97X-V <= 

    wB97X-V Hyb-GGA Exchange-Correlation Functional

    N. Mardirossian and M. Head-Gordon, Phys. Chem. Chem. Phys. 16, 9904 (2014)

    Deriv               =              1
    GGA                 =           TRUE
    Meta                =          FALSE

    Exchange Hybrid     =           TRUE
    MP2 Hybrid          =          FALSE

   => Exchange-Correlation Functionals <=

    1.0000   wB97X-V range-separated functional

   => Exact (HF) Exchange <=

    0.8330            HF,LR [omega = 0.3000]
    0.1670               HF 

   => VV10 Non-Local Parameters <=

    VV10 B              =     6.0000E+00
    VV10 C              =     1.0000E-02

   => Molecular Quadrature <=

    Radial Scheme          =       TREUTLER
    Pruning Scheme         =           FLAT
    Nuclear Scheme         =       TREUTLER

    BS radius alpha        =              1
    Pruning alpha          =              1
    Radial Points          =             75
    Spherical Points       =            302
    Total Points           =          89836
    Total Blocks           =            738
    Max Points             =            256
    Max Functions          =            154

   => Loading Basis Set <=

    Name: (CC-PV(Q+D)Z AUX)
    Role: JKFIT
    Keyword: DF_BASIS_SCF
    atoms 1   entry P          line   591 file /work/zw18965/.conda/envs/p4env/share/psi4/basis/cc-pvqz-jkfit.gbs 
    atoms 2-4 entry H          line    51 file /work/zw18965/.conda/envs/p4env/share/psi4/basis/cc-pvqz-jkfit.gbs 

  ==> Pre-Iterations <==

   -------------------------------------------------------
    Irrep   Nso     Nmo     Nalpha   Nbeta   Ndocc  Nsocc
   -------------------------------------------------------
     A        154     154       0       0       0       0
   -------------------------------------------------------
    Total     154     154       9       9       9       0
   -------------------------------------------------------

  ==> Integral Setup <==

  ==> DiskDFJK: Density-Fitted J/K Matrices <==

    J tasked:                  Yes
    K tasked:                  Yes
    wK tasked:                 Yes
    Omega:               3.000E-01
    OpenMP threads:             24
    Integrals threads:          24
    Memory [MiB]:           102636
    Algorithm:                Core
    Integral Cache:           NONE
    Schwarz Cutoff:          1E-12
    Fitting Condition:       1E-10

   => Auxiliary Basis Set <=

  Basis Set: (CC-PV(Q+D)Z AUX)
    Blend: CC-PVQZ-JKFIT
    Number of shells: 79
    Number of basis function: 301
    Number of Cartesian functions: 389
    Spherical Harmonics?: true
    Max angular momentum: 5

  Cached 100.0% of DFT collocation blocks in 0.352 [GiB].

  Minimum eigenvalue in the overlap matrix is 1.9493157403E-04.
  Using Symmetric Orthogonalization.

  SCF Guess: Superposition of Atomic Densities via on-the-fly atomic UHF.

  ==> Iterations <==

                           Total Energy        Delta E     RMS |[F,P]|

   @DF-RKS iter SAD:  -342.75330692170695   -3.42753e+02   0.00000e+00 
   @DF-RKS iter   1:  -343.07412588284149   -3.20819e-01   1.56830e-03 DIIS
   @DF-RKS iter   2:  -343.09909681929685   -2.49709e-02   7.69293e-04 DIIS
   @DF-RKS iter   3:  -343.10439439267441   -5.29757e-03   8.17510e-05 DIIS
   @DF-RKS iter   4:  -343.10469422814418   -2.99835e-04   1.40855e-05 DIIS
   @DF-RKS iter   5:  -343.10470329466102   -9.06652e-06   3.04660e-06 DIIS
   @DF-RKS iter   6:  -343.10470350652884   -2.11868e-07   5.10870e-07 DIIS
   @DF-RKS iter   7:  -343.10470351347504   -6.94621e-09   1.10293e-07 DIIS
   @DF-RKS iter   8:  -343.10470351375346   -2.78419e-10   1.63810e-08 DIIS
   @DF-RKS iter   9:  -343.10470351376489   -1.14255e-11   2.46099e-09 DIIS
   @DF-RKS iter  10:  -343.10470351376551   -6.25278e-13   4.74753e-10 DIIS
   @DF-RKS iter  11:  -343.10470351376500    5.11591e-13   1.37602e-10 DIIS
   @DF-RKS iter  12:  -343.10470351376557   -5.68434e-13   2.72068e-11 DIIS
  Energy and wave function converged.


  ==> Post-Iterations <==

    Orbital Energies [Eh]
    ---------------------

    Doubly Occupied:                                                      

       1A    -77.098385     2A     -6.659638     3A     -4.814164  
       4A     -4.814160     5A     -4.809716     6A     -0.772919  
       7A     -0.489782     8A     -0.489104     9A     -0.374569  

    Virtual:                                                              

      10A      0.094387    11A      0.102231    12A      0.102629  
      13A      0.209115    14A      0.209274    15A      0.240752  
      16A      0.264186    17A      0.264336    18A      0.267684  
      19A      0.328974    20A      0.329105    21A      0.398620  
      22A      0.448181    23A      0.539709    24A      0.540359  
      25A      0.684213    26A      0.699775    27A      0.700614  
      28A      0.760465    29A      0.760700    30A      0.832497  
      31A      0.845464    32A      0.845629    33A      0.884824  
      34A      0.885282    35A      0.892785    36A      0.948426  
      37A      1.040870    38A      1.143078    39A      1.145782  
      40A      1.146338    41A      1.160525    42A      1.230340  
      43A      1.230515    44A      1.248102    45A      1.270093  
      46A      1.271909    47A      1.458567    48A      1.458684  
      49A      1.522507    50A      1.660852    51A      1.661661  
      52A      2.042765    53A      2.044877    54A      2.051898  
      55A      2.053858    56A      2.070124    57A      2.107517  
      58A      2.164970    59A      2.165296    60A      2.187026  
      61A      2.288322    62A      2.288341    63A      2.310637  
      64A      2.369612    65A      2.482623    66A      2.482938  
      67A      2.489532    68A      2.545406    69A      2.546104  
      70A      2.569300    71A      2.670466    72A      2.703240  
      73A      2.706324    74A      2.706812    75A      2.748341  
      76A      2.748450    77A      2.945316    78A      2.956853  
      79A      2.958046    80A      3.008407    81A      3.014507  
      82A      3.015198    83A      3.050608    84A      3.132490  
      85A      3.132519    86A      3.447685    87A      3.470629  
      88A      3.471044    89A      3.609792    90A      3.610239  
      91A      3.648638    92A      3.753827    93A      3.755247  
      94A      3.938234    95A      3.990587    96A      4.011180  
      97A      4.011730    98A      5.882962    99A      5.883910  
     100A      5.907544   101A      5.908455   102A      5.909659  
     103A      5.949265   104A      5.972103   105A      5.972158  
     106A      5.977342   107A      5.998392   108A      6.249554  
     109A      6.251435   110A      6.350972   111A      6.352726  
     112A      6.385105   113A      6.412942   114A      6.416030  
     115A      6.612920   116A      6.766639   117A      6.767879  
     118A      6.769366   119A      6.947959   120A      7.006871  
     121A      7.008826   122A      7.577836   123A      7.591117  
     124A      7.593064   125A      7.670461   126A      7.672067  
     127A      7.672817   128A      7.821532   129A      7.821854  
     130A      7.989384   131A      8.039957   132A      8.040570  
     133A      8.053070   134A      8.054103   135A      8.085039  
     136A      8.128261   137A      8.130372   138A      8.315736  
     139A      8.326423   140A      8.412344   141A      8.413969  
     142A      8.649761   143A      8.665410   144A      8.668299  
     145A      8.822644   146A      9.029831   147A      9.030931  
     148A      9.110008   149A      9.110308   150A      9.154840  
     151A      9.431140   152A     10.816429   153A     10.820891  
     154A     15.638455  

    Final Occupation by Irrep:
              A 
    DOCC [     9 ]

  @DF-RKS Final Energy:  -343.10470351376557

   => Energetics <=

    Nuclear Repulsion Energy =             17.6008911869579450
    One-Electron Energy =                -508.5624086248494677
    Two-Electron Energy =                 165.8010772857136317
    DFT Exchange-Correlation Energy =     -18.0196511192764035
    Empirical Dispersion Energy =           0.0000000000000000
    VV10 Nonlocal Energy =                  0.0753877576887107
    Total Energy =                       -343.1047035137656280

Computation Completed


Properties will be evaluated at   0.000000,   0.000000,   0.000000 [a0]

Properties computed using the SCF density matrix

  Nuclear Dipole Moment: [e a0]
     X:    -0.0003      Y:    -2.0124      Z:     0.0032

  Electronic Dipole Moment: [e a0]
     X:     0.0003      Y:     1.7411      Z:    -0.0042

  Dipole Moment: [e a0]
     X:     0.0001      Y:    -0.2714      Z:    -0.0010     Total:     0.2714

  Dipole Moment: [D]
     X:     0.0001      Y:    -0.6898      Z:    -0.0027     Total:     0.6898


*** tstop() called on bp1-compute00066.data.bp.acrc.priv at Tue Apr 27 17:08:31 2021
Module time:
	user time   =     105.71 seconds =       1.76 minutes
	system time =       2.51 seconds =       0.04 minutes
	total time  =          5 seconds =       0.08 minutes
Total time:
	user time   =    4932.72 seconds =      82.21 minutes
	system time =     134.72 seconds =       2.25 minutes
	total time  =        219 seconds =       3.65 minutes

         ----------------------------------------------------------
                                   FINDIF
                     R. A. King and Jonathon Misiewicz
         ---------------------------------------------------------

  Computing second-derivative from energies using projected, 
  symmetry-adapted, cartesian coordinates.

  25 energies passed in, including the reference geometry.
    Using 3-point formula.
    Energy without displacement: -343.1047052786
    Check energies below for precision!
    0: -1        :      -343.1047032073
    0: 1         :      -343.1047032169
    1: -1        :      -343.1047047305
    1: 1         :      -343.1047035644
    2: -1        :      -343.1047037228
    2: 1         :      -343.1047032124
    3: -1        :      -343.1047037257
    3: 1         :      -343.1047032085
    0: 1, 1: 1   :      -343.1047015081
    0: -1, 1: -1 :      -343.1047026498
    0: 1, 2: 1   :      -343.1046996665
    0: -1, 2: -1 :      -343.1047001239
    1: 1, 2: 1   :      -343.1047000290
    1: -1, 2: -1 :      -343.1047016853
    0: 1, 3: 1   :      -343.1047026530
    0: -1, 3: -1 :      -343.1047031649
    1: 1, 3: 1   :      -343.1047000249
    1: -1, 3: -1 :      -343.1047016868
    2: 1, 3: 1   :      -343.1047003524
    2: -1, 3: -1 :      -343.1047013707
    4: -1        :      -343.1047032047
    5: -1        :      -343.1047034746
    4: 1, 5: 1   :      -343.1047035137
    4: -1, 5: -1 :      -343.1047035138

-------------------------------------------------------------


  ==> Harmonic Vibrational Analysis <==

  non-mass-weighted Hessian:       Symmetric? True   Hermitian? True   Lin Dep Dim?  6 (0)
  projection of translations (True) and rotations (True) removed 6 degrees of freedom (6)
  total projector:                 Symmetric? True   Hermitian? True   Lin Dep Dim?  6 (6)
  mass-weighted Hessian:           Symmetric? True   Hermitian? True   Lin Dep Dim?  6 (0)
  pre-proj  low-frequency mode:    0.0000i [cm^-1]
  pre-proj  low-frequency mode:    0.0000i [cm^-1]
  pre-proj  low-frequency mode:    0.0000  [cm^-1]
  pre-proj  low-frequency mode:    0.0000  [cm^-1]
  pre-proj  low-frequency mode:    0.0000  [cm^-1]
  pre-proj  low-frequency mode:    0.0000  [cm^-1]
  pre-proj  all modes:['0.0000i' '0.0000i' '0.0000' '0.0000' '0.0000' '0.0000' '1020.7670'
 '1150.0058' '1359.1407' '2453.1180' '2456.5734' '2520.0047']
  projected mass-weighted Hessian: Symmetric? True   Hermitian? True   Lin Dep Dim?  6 (6)
  post-proj low-frequency mode:    0.0001i [cm^-1] (TR)
  post-proj low-frequency mode:    0.0000i [cm^-1] (TR)
  post-proj low-frequency mode:    0.0000i [cm^-1] (TR)
  post-proj low-frequency mode:    0.0000i [cm^-1] (TR)
  post-proj low-frequency mode:    0.0000  [cm^-1] (TR)
  post-proj low-frequency mode:    0.0000  [cm^-1] (TR)
  post-proj  all modes:['0.0001i' '0.0000i' '0.0000i' '0.0000i' '0.0000' '0.0000' '1020.7670'
 '1150.0058' '1359.1407' '2453.1180' '2456.5734' '2520.0047']

  Vibration                       7                   8                   9           
  Freq [cm^-1]                1020.7670           1150.0058           1359.1407       
  Irrep                           Ap                  Ap                 App          
  Reduced mass [u]              1.0753              1.0257              1.0300        
  Force const [mDyne/A]         0.6601              0.7993              1.1211        
  Turning point v=0 [a0]        0.3312              0.3195              0.2933        
  RMS dev v=0 [a0 u^1/2]        0.2428              0.2288              0.2105        
  Char temp [K]               1468.6564           1654.6023           1955.5009       
  ----------------------------------------------------------------------------------
      1   P                0.00 -0.05  0.00   -0.02 -0.00 -0.00   -0.00 -0.00 -0.03   
      2   H                0.15  0.49  0.27    0.49 -0.16 -0.40   -0.38 -0.31  0.06   
      3   H                0.15  0.49 -0.27    0.49 -0.16  0.40    0.38  0.31  0.06   
      4   H               -0.31  0.48 -0.00   -0.22  0.32 -0.00   -0.00  0.00  0.72   

  Vibration                       10                  11                  12          
  Freq [cm^-1]                2453.1180           2456.5734           2520.0047       
  Irrep                           Ap                  Ap                 App          
  Reduced mass [u]              1.0319              1.0410              1.0367        
  Force const [mDyne/A]         3.6587              3.7015              3.8788        
  Turning point v=0 [a0]        0.2181              0.2170              0.2147        
  RMS dev v=0 [a0 u^1/2]        0.1567              0.1565              0.1546        
  Char temp [K]               3529.4906           3534.4622           3625.7257       
  ----------------------------------------------------------------------------------
      1   P               -0.00 -0.03 -0.00   -0.03  0.00  0.00   -0.00  0.00 -0.03   
      2   H               -0.24  0.28 -0.42    0.18 -0.23  0.32    0.34 -0.35  0.51   
      3   H               -0.24  0.28  0.42    0.18 -0.23 -0.32   -0.34  0.35  0.51   
      4   H                0.53  0.31 -0.00    0.67  0.42  0.00   -0.00 -0.00 -0.07   

  ==> Thermochemistry Components <==

  Entropy, S
    Electronic S            0.000 [cal/(mol K)]        0.000 [J/(mol K)]       0.00000000 [mEh/K] (multiplicity = 1)
    Translational S        36.502 [cal/(mol K)]      152.724 [J/(mol K)]       0.05816968 [mEh/K] (mol. weight = 33.9972 [u], P = 101325.00 [Pa])
    Rotational S           15.671 [cal/(mol K)]       65.566 [J/(mol K)]       0.02497261 [mEh/K] (symmetry no. = 1)
    Vibrational S           0.159 [cal/(mol K)]        0.664 [J/(mol K)]       0.00025282 [mEh/K]
  Total S                  52.331 [cal/(mol K)]      218.954 [J/(mol K)]       0.08339511 [mEh/K]
  Correction S              0.000 [cal/(mol K)]        0.000 [J/(mol K)]       0.00000000 [mEh/K]

  Constant volume heat capacity, Cv
    Electronic Cv           0.000 [cal/(mol K)]        0.000 [J/(mol K)]       0.00000000 [mEh/K]
    Translational Cv        2.981 [cal/(mol K)]       12.472 [J/(mol K)]       0.00475022 [mEh/K]
    Rotational Cv           2.981 [cal/(mol K)]       12.472 [J/(mol K)]       0.00475022 [mEh/K]
    Vibrational Cv          0.722 [cal/(mol K)]        3.021 [J/(mol K)]       0.00115052 [mEh/K]
  Total Cv                  6.684 [cal/(mol K)]       27.964 [J/(mol K)]       0.01065095 [mEh/K]
  Correction Cv             0.000 [cal/(mol K)]        0.000 [J/(mol K)]       0.00000000 [mEh/K]

  Constant pressure heat capacity, Cp
    Electronic Cp           0.000 [cal/(mol K)]        0.000 [J/(mol K)]       0.00000000 [mEh/K]
    Translational Cp        4.968 [cal/(mol K)]       20.786 [J/(mol K)]       0.00791703 [mEh/K]
    Rotational Cp           2.981 [cal/(mol K)]       12.472 [J/(mol K)]       0.00475022 [mEh/K]
    Vibrational Cp          0.722 [cal/(mol K)]        3.021 [J/(mol K)]       0.00115052 [mEh/K]
  Total Cp                  8.671 [cal/(mol K)]       36.279 [J/(mol K)]       0.01381776 [mEh/K]
  Correction Cp             0.000 [cal/(mol K)]        0.000 [J/(mol K)]       0.00000000 [mEh/K]

  ==> Thermochemistry Energy Analysis <==

  Raw electronic energy, E0
  Total E0, Electronic energy at well bottom at 0 [K]                 -343.10470528 [Eh]

  Zero-point energy, ZPE_vib = Sum_i nu_i / 2
    Electronic ZPE          0.000 [kcal/mol]        0.000 [kJ/mol]       0.00000000 [Eh]
    Translational ZPE       0.000 [kcal/mol]        0.000 [kJ/mol]       0.00000000 [Eh]
    Rotational ZPE          0.000 [kcal/mol]        0.000 [kJ/mol]       0.00000000 [Eh]
    Vibrational ZPE        15.668 [kcal/mol]       65.553 [kJ/mol]       0.02496783 [Eh]        5479.805 [cm^-1]
  Correction ZPE           15.668 [kcal/mol]       65.553 [kJ/mol]       0.02496783 [Eh]        5479.805 [cm^-1]
  Total ZPE, Electronic energy at 0 [K]                               -343.07973745 [Eh]

  Thermal Energy, E (includes ZPE)
    Electronic E            0.000 [kcal/mol]        0.000 [kJ/mol]       0.00000000 [Eh]
    Translational E         0.889 [kcal/mol]        3.718 [kJ/mol]       0.00141628 [Eh]
    Rotational E            0.889 [kcal/mol]        3.718 [kJ/mol]       0.00141628 [Eh]
    Vibrational E          15.707 [kcal/mol]       65.720 [kJ/mol]       0.02503129 [Eh]
  Correction E             17.485 [kcal/mol]       73.157 [kJ/mol]       0.02786385 [Eh]
  Total E, Electronic energy at  298.15 [K]                           -343.07684143 [Eh]

  Enthalpy, H_trans = E_trans + k_B * T
    Electronic H            0.000 [kcal/mol]        0.000 [kJ/mol]       0.00000000 [Eh]
    Translational H         1.481 [kcal/mol]        6.197 [kJ/mol]       0.00236046 [Eh]
    Rotational H            0.889 [kcal/mol]        3.718 [kJ/mol]       0.00141628 [Eh]
    Vibrational H          15.707 [kcal/mol]       65.720 [kJ/mol]       0.02503129 [Eh]
  Correction H             18.077 [kcal/mol]       75.635 [kJ/mol]       0.02880803 [Eh]
  Total H, Enthalpy at  298.15 [K]                                    -343.07589725 [Eh]

  Gibbs free energy, G = H - T * S
    Electronic G            0.000 [kcal/mol]        0.000 [kJ/mol]       0.00000000 [Eh]
    Translational G        -9.402 [kcal/mol]      -39.337 [kJ/mol]      -0.01498283 [Eh]
    Rotational G           -3.783 [kcal/mol]      -15.830 [kJ/mol]      -0.00602931 [Eh]
    Vibrational G          15.660 [kcal/mol]       65.522 [kJ/mol]       0.02495591 [Eh]
  Correction G              2.475 [kcal/mol]       10.354 [kJ/mol]       0.00394378 [Eh]
  Total G, Free enthalpy at  298.15 [K]                               -343.10076150 [Eh]

    Psi4 stopped on: Tuesday, 27 April 2021 05:08PM
    Psi4 wall time for execution: 0:03:39.00

*** Psi4 exiting successfully. Buy a developer a beer!
