
    -----------------------------------------------------------------------
          Psi4: An Open-Source Ab Initio Electronic Structure Package
                               Psi4 1.3.2 release

                         Git: Rev {HEAD} ecbda83 


    R. M. Parrish, L. A. Burns, D. G. A. Smith, A. C. Simmonett,
    A. E. DePrince III, E. G. Hohenstein, U. Bozkaya, A. Yu. Sokolov,
    R. Di Remigio, R. M. Richard, J. F. Gonthier, A. M. James,
    H. R. McAlexander, A. Kumar, M. Saitow, X. Wang, B. P. Pritchard,
    P. Verma, H. F. Schaefer III, K. Patkowski, R. A. King, E. F. Valeev,
    F. A. Evangelista, J. M. Turney, T. D. Crawford, and C. D. Sherrill,
    J. Chem. Theory Comput. 13(7) pp 3185--3197 (2017).
    (doi: 10.1021/acs.jctc.7b00174)


                         Additional Contributions by
    P. Kraus, H. Kruse, M. H. Lechner, M. C. Schieber, R. A. Shaw,
    A. Alenaizan, R. Galvelis, Z. L. Glick, S. Lehtola, and J. P. Misiewicz

    -----------------------------------------------------------------------


    Psi4 started on: Tuesday, 27 April 2021 05:06PM

    Process ID: 13201
    Host:       bp1-compute00047.data.bp.acrc.priv
    PSIDATADIR: /work/zw18965/.conda/envs/p4env/share/psi4
    Memory:     500.0 MiB
    Threads:    24
    
  ==> Input File <==

--------------------------------------------------------------------------
memory 144 GB

molecule {
0 1
C -0.0479167327 0.6682939561 0.0000000000
H -1.0907101856 0.9776732069 0.0000000000
H 0.4344161461 1.0815239129 0.8898543791
H 0.4344161461 1.0815239129 -0.8898543791
O -0.0410920225 -0.7509554452 0.0000000000
H 0.8712936485 -1.0420305436 0.0000000000
}

set dynamic_level 1
set basis cc-pV(Q+d)Z
 
optimize("wB97X-V")
frequencies("wB97X-V")
--------------------------------------------------------------------------

  Memory set to 134.110 GiB by Python driver.
gradient() will perform gradient computation by finite difference of analytic energies.

         ----------------------------------------------------------
                                   FINDIF
                     R. A. King and Jonathon Misiewicz
         ---------------------------------------------------------

  Using finite-differences of energies to determine gradients.
    Generating geometries for use with 3-point formula.
    Displacement size will be 5.00e-03.
    Number of atoms is 6.
    Number of symmetric SALCs is 8.
    Translations projected? 1. Rotations projected? 1.
    Number of geometries (including reference) is 17.

  //>>>>>>>>>>>>>>>>>>>>>>>>>>>>>>>>>>>//
  //    Loading displacement 1 of 17   //
  //<<<<<<<<<<<<<<<<<<<<<<<<<<<<<<<<<<<//

*** tstart() called on bp1-compute00047.data.bp.acrc.priv
*** at Tue Apr 27 17:06:04 2021

   => Loading Basis Set <=

    Name: CC-PV(Q+D)Z
    Role: ORBITAL
    Keyword: BASIS
    atoms 1      entry C          line   249 file /work/zw18965/.conda/envs/p4env/share/psi4/basis/cc-pv_qpd_z.gbs 
    atoms 2-4, 6 entry H          line    32 file /work/zw18965/.conda/envs/p4env/share/psi4/basis/cc-pv_qpd_z.gbs 
    atoms 5      entry O          line   349 file /work/zw18965/.conda/envs/p4env/share/psi4/basis/cc-pv_qpd_z.gbs 


         ---------------------------------------------------------
                                   SCF
               by Justin Turney, Rob Parrish, Andy Simmonett
                          and Daniel G. A. Smith
                              RKS Reference
                       24 Threads, 137329 MiB Core
         ---------------------------------------------------------

  ==> Geometry <==

    Molecular point group: cs
    Full point group: Cs

    Geometry (in Angstrom), charge = 0, multiplicity = 1:

       Center              X                  Y                   Z               Mass       
    ------------   -----------------  -----------------  -----------------  -----------------
         C           -0.029876301320     0.726896821309     0.000000000000    12.000000000000
         H           -1.072669754220     1.036276072109     0.000000000000     1.007825032230
         H            0.452456577480     1.140126778109     0.889854379100     1.007825032230
         H            0.452456577480     1.140126778109    -0.889854379100     1.007825032230
         O           -0.023051591120    -0.692352579991     0.000000000000    15.994914619570
         H            0.889334079880    -0.983427678391     0.000000000000     1.007825032230

  Running in cs symmetry.

  Rotational constants: A =      4.29227  B =      0.82887  C =      0.79995 [cm^-1]
  Rotational constants: A = 128678.99499  B =  24848.85742  C =  23981.83297 [MHz]
  Nuclear repulsion =   40.355999452268222

  Charge       = 0
  Multiplicity = 1
  Electrons    = 18
  Nalpha       = 9
  Nbeta        = 9

  ==> Algorithm <==

  SCF Algorithm Type is DF.
  DIIS enabled.
  MOM disabled.
  Fractional occupation disabled.
  Guess Type is SAD.
  Energy threshold   = 1.00e-08
  Density threshold  = 1.00e-08
  Integral threshold = 0.00e+00

  ==> Primary Basis <==

  Basis Set: CC-PV(Q+D)Z
    Blend: CC-PV(Q+D)Z
    Number of shells: 70
    Number of basis function: 230
    Number of Cartesian functions: 280
    Spherical Harmonics?: true
    Max angular momentum: 4

  ==> DFT Potential <==

   => Composite Functional: WB97X-V <= 

    wB97X-V Hyb-GGA Exchange-Correlation Functional

    N. Mardirossian and M. Head-Gordon, Phys. Chem. Chem. Phys. 16, 9904 (2014)

    Deriv               =              1
    GGA                 =           TRUE
    Meta                =          FALSE

    Exchange Hybrid     =           TRUE
    MP2 Hybrid          =          FALSE

   => Exchange-Correlation Functionals <=

    1.0000   wB97X-V range-separated functional

   => Exact (HF) Exchange <=

    0.8330            HF,LR [omega = 0.3000]
    0.1670               HF 

   => VV10 Non-Local Parameters <=

    VV10 B              =     6.0000E+00
    VV10 C              =     1.0000E-02

   => Molecular Quadrature <=

    Radial Scheme          =       TREUTLER
    Pruning Scheme         =           FLAT
    Nuclear Scheme         =       TREUTLER

    BS radius alpha        =              1
    Pruning alpha          =              1
    Radial Points          =             75
    Spherical Points       =            302
    Total Points           =         134462
    Total Blocks           =           1066
    Max Points             =            256
    Max Functions          =            230

   => Loading Basis Set <=

    Name: (CC-PV(Q+D)Z AUX)
    Role: JKFIT
    Keyword: DF_BASIS_SCF
    atoms 1      entry C          line   137 file /work/zw18965/.conda/envs/p4env/share/psi4/basis/cc-pvqz-jkfit.gbs 
    atoms 2-4, 6 entry H          line    51 file /work/zw18965/.conda/envs/p4env/share/psi4/basis/cc-pvqz-jkfit.gbs 
    atoms 5      entry O          line   253 file /work/zw18965/.conda/envs/p4env/share/psi4/basis/cc-pvqz-jkfit.gbs 

  ==> Pre-Iterations <==

   -------------------------------------------------------
    Irrep   Nso     Nmo     Nalpha   Nbeta   Ndocc  Nsocc
   -------------------------------------------------------
     A'       140     140       0       0       0       0
     A"        90      90       0       0       0       0
   -------------------------------------------------------
    Total     230     230       9       9       9       0
   -------------------------------------------------------

  ==> Integral Setup <==

  ==> DiskDFJK: Density-Fitted J/K Matrices <==

    J tasked:                  Yes
    K tasked:                  Yes
    wK tasked:                 Yes
    Omega:               3.000E-01
    OpenMP threads:             24
    Integrals threads:          24
    Memory [MiB]:           102250
    Algorithm:                Core
    Integral Cache:           NONE
    Schwarz Cutoff:          1E-12
    Fitting Condition:       1E-10

   => Auxiliary Basis Set <=

  Basis Set: (CC-PV(Q+D)Z AUX)
    Blend: CC-PVQZ-JKFIT
    Number of shells: 108
    Number of basis function: 416
    Number of Cartesian functions: 548
    Spherical Harmonics?: true
    Max angular momentum: 5

  Cached 100.0% of DFT collocation blocks in 0.729 [GiB].

  Minimum eigenvalue in the overlap matrix is 1.8290424595E-04.
  Using Symmetric Orthogonalization.

  SCF Guess: Superposition of Atomic Densities via on-the-fly atomic UHF.

  ==> Iterations <==

                           Total Energy        Delta E     RMS |[F,P]|

   @DF-RKS iter SAD:  -115.13706268736472   -1.15137e+02   0.00000e+00 
   @DF-RKS iter   1:  -115.61046773790964   -4.73405e-01   3.33305e-03 DIIS
   @DF-RKS iter   2:  -115.64400936390203   -3.35416e-02   3.14975e-03 DIIS
   @DF-RKS iter   3:  -115.73570047807033   -9.16911e-02   3.44205e-04 DIIS
   @DF-RKS iter   4:  -115.73690401034723   -1.20353e-03   1.12026e-04 DIIS
   @DF-RKS iter   5:  -115.73707467181765   -1.70661e-04   2.22700e-05 DIIS
   @DF-RKS iter   6:  -115.73708295649921   -8.28468e-06   2.77412e-06 DIIS
   @DF-RKS iter   7:  -115.73708324780699   -2.91308e-07   5.13211e-07 DIIS
   @DF-RKS iter   8:  -115.73708325979614   -1.19891e-08   1.05064e-07 DIIS
   @DF-RKS iter   9:  -115.73708326019666   -4.00519e-10   2.48368e-08 DIIS
   @DF-RKS iter  10:  -115.73708326022103   -2.43716e-11   5.74398e-09 DIIS
  Energy and wave function converged.


  ==> Post-Iterations <==

    Orbital Energies [Eh]
    ---------------------

    Doubly Occupied:                                                      

       1Ap   -19.207728     2Ap   -10.307174     3Ap    -1.149140  
       4Ap    -0.810102     5Ap    -0.620917     1App   -0.553382  
       6Ap    -0.535429     7Ap    -0.445400     2App   -0.384432  

    Virtual:                                                              

       8Ap     0.094713     9Ap     0.131251     3App    0.172926  
      10Ap     0.174773    11Ap     0.211423    12Ap     0.270035  
       4App    0.282205    13Ap     0.390237    14Ap     0.406624  
      15Ap     0.433938     5App    0.442677    16Ap     0.451430  
      17Ap     0.472790     6App    0.502925    18Ap     0.518988  
      19Ap     0.574366     7App    0.619561    20Ap     0.624589  
       8App    0.647857     9App    0.766106    21Ap     0.792567  
      10App    0.824376    22Ap     0.840973    23Ap     0.847866  
      24Ap     0.880105    25Ap     0.923680    11App    0.927871  
      26Ap     1.030269    12App    1.035800    27Ap     1.062912  
      13App    1.099936    28Ap     1.102212    29Ap     1.113431  
      30Ap     1.156393    14App    1.332830    31Ap     1.340451  
      32Ap     1.377262    33Ap     1.446949    15App    1.455533  
      34Ap     1.523507    35Ap     1.576620    16App    1.620186  
      36Ap     1.720019    17App    1.793433    37Ap     1.793795  
      18App    1.883201    19App    1.903081    38Ap     1.907820  
      39Ap     1.936404    20App    1.979773    40Ap     2.023023  
      41Ap     2.034000    21App    2.097765    42Ap     2.109678  
      22App    2.203174    43Ap     2.204737    23App    2.228606  
      44Ap     2.299224    24App    2.311296    45Ap     2.350050  
      25App    2.369119    46Ap     2.398199    26App    2.455720  
      47Ap     2.467205    48Ap     2.504503    27App    2.530507  
      49Ap     2.545689    50Ap     2.670998    51Ap     2.677998  
      28App    2.685441    52Ap     2.745086    29App    2.779423  
      53Ap     2.830002    30App    2.891505    54Ap     2.915217  
      31App    2.992246    55Ap     3.021883    56Ap     3.060727  
      32App    3.088826    57Ap     3.148003    58Ap     3.212896  
      33App    3.238009    59Ap     3.301159    60Ap     3.351159  
      34App    3.369431    35App    3.423516    61Ap     3.462205  
      62Ap     3.546599    36App    3.575115    63Ap     3.597777  
      64Ap     3.678850    65Ap     3.799116    37App    3.872573  
      66Ap     3.931734    38App    3.972613    67Ap     4.021469  
      39App    4.039201    40App    4.145388    68Ap     4.148058  
      69Ap     4.164150    70Ap     4.255505    71Ap     4.388775  
      41App    4.454661    42App    4.698137    72Ap     4.703218  
      73Ap     4.896828    74Ap     5.107261    43App    5.365454  
      75Ap     5.446651    44App    5.467135    45App    5.560244  
      76Ap     5.577682    77Ap     5.680032    46App    5.701860  
      78Ap     5.819065    47App    5.913657    79Ap     5.914176  
      48App    6.041051    80Ap     6.051920    49App    6.133706  
      50App    6.152009    81Ap     6.159221    82Ap     6.170646  
      83Ap     6.213191    51App    6.226680    52App    6.257801  
      84Ap     6.266394    53App    6.284504    85Ap     6.301820  
      86Ap     6.410057    54App    6.426944    87Ap     6.437711  
      88Ap     6.704284    89Ap     6.764939    55App    6.811542  
      56App    6.843353    57App    6.858131    90Ap     6.876593  
      91Ap     6.923513    92Ap     6.999026    58App    7.129386  
      59App    7.205003    93Ap     7.297501    94Ap     7.312700  
      60App    7.389556    95Ap     7.431941    96Ap     7.476386  
      61App    7.503625    97Ap     7.566791    62App    7.619492  
      98Ap     7.692680    63App    7.718558    99Ap     7.719526  
      64App    7.818780   100Ap     7.879177   101Ap     7.891423  
      65App    7.932496    66App    7.988759   102Ap     8.011365  
     103Ap     8.049949   104Ap     8.063968   105Ap     8.142226  
      67App    8.218403   106Ap     8.289635    68App    8.341966  
     107Ap     8.394736   108Ap     8.422721    69App    8.465128  
      70App    8.488802   109Ap     8.510787   110Ap     8.587641  
      71App    8.601856   111Ap     8.655403    72App    8.685203  
     112Ap     8.709281    73App    8.867048   113Ap     8.904250  
     114Ap     8.949813    74App    9.003233   115Ap     9.007624  
      75App    9.094453   116Ap     9.168339    76App    9.484776  
     117Ap     9.506370   118Ap     9.732188   119Ap     9.768326  
      77App    9.850328   120Ap     9.895516    78App   10.003551  
      79App   10.027870   121Ap    10.061924   122Ap    10.113831  
     123Ap    10.201506    80App   10.223176   124Ap    10.362795  
      81App   10.371172    82App   10.529816    83App   10.675870  
     125Ap    10.676577   126Ap    10.881950    84App   11.048265  
     127Ap    11.120045   128Ap    11.204546   129Ap    11.481584  
      85App   11.520411   130Ap    11.576872   131Ap    11.896701  
      86App   11.907297    87App   12.076474   132Ap    12.231136  
      88App   12.392859   133Ap    12.491423   134Ap    12.515178  
      89App   12.677178   135Ap    12.998296   136Ap    14.004262  
      90App   14.019282   137Ap    14.192476   138Ap    16.217387  
     139Ap    25.862394   140Ap    42.635954  

    Final Occupation by Irrep:
             Ap   App 
    DOCC [     7,    2 ]

  @DF-RKS Final Energy:  -115.73708326022103

   => Energetics <=

    Nuclear Repulsion Energy =             40.3559994522682217
    One-Electron Energy =                -237.0592055416354924
    Two-Electron Energy =                  91.6116527716244349
    DFT Exchange-Correlation Energy =     -10.7191626110549478
    Empirical Dispersion Energy =           0.0000000000000000
    VV10 Nonlocal Energy =                  0.0736326685767305
    Total Energy =                       -115.7370832602210413

Computation Completed


Properties will be evaluated at   0.000000,   0.000000,   0.000000 [a0]

Properties computed using the SCF density matrix

  Nuclear Dipole Moment: [e a0]
     X:     0.6763      Y:     2.1839      Z:     0.0000

  Electronic Dipole Moment: [e a0]
     X:    -0.1405      Y:    -1.8043      Z:     0.0000

  Dipole Moment: [e a0]
     X:     0.5359      Y:     0.3796      Z:     0.0000     Total:     0.6567

  Dipole Moment: [D]
     X:     1.3621      Y:     0.9648      Z:     0.0000     Total:     1.6692


*** tstop() called on bp1-compute00047.data.bp.acrc.priv at Tue Apr 27 17:06:12 2021
Module time:
	user time   =     167.71 seconds =       2.80 minutes
	system time =       9.91 seconds =       0.17 minutes
	total time  =          8 seconds =       0.13 minutes
Total time:
	user time   =     167.71 seconds =       2.80 minutes
	system time =       9.91 seconds =       0.17 minutes
	total time  =          8 seconds =       0.13 minutes

  //>>>>>>>>>>>>>>>>>>>>>>>>>>>>>>>>>>>//
  //    Loading displacement 2 of 17   //
  //<<<<<<<<<<<<<<<<<<<<<<<<<<<<<<<<<<<//

*** tstart() called on bp1-compute00047.data.bp.acrc.priv
*** at Tue Apr 27 17:06:12 2021

   => Loading Basis Set <=

    Name: CC-PV(Q+D)Z
    Role: ORBITAL
    Keyword: BASIS
    atoms 1      entry C          line   249 file /work/zw18965/.conda/envs/p4env/share/psi4/basis/cc-pv_qpd_z.gbs 
    atoms 2-4, 6 entry H          line    32 file /work/zw18965/.conda/envs/p4env/share/psi4/basis/cc-pv_qpd_z.gbs 
    atoms 5      entry O          line   349 file /work/zw18965/.conda/envs/p4env/share/psi4/basis/cc-pv_qpd_z.gbs 


         ---------------------------------------------------------
                                   SCF
               by Justin Turney, Rob Parrish, Andy Simmonett
                          and Daniel G. A. Smith
                              RKS Reference
                       24 Threads, 137329 MiB Core
         ---------------------------------------------------------

  ==> Geometry <==

    Molecular point group: cs
    Full point group: Cs

    Geometry (in Angstrom), charge = 0, multiplicity = 1:

       Center              X                  Y                   Z               Mass       
    ------------   -----------------  -----------------  -----------------  -----------------
         C           -0.030311351757     0.726913404475     0.000000000000    12.000000000000
         H           -1.071592103061     1.036871469113     0.000000000000     1.007825032230
         H            0.453591872101     1.139875637169     0.889854379100     1.007825032230
         H            0.453591872101     1.139875637169    -0.889854379100     1.007825032230
         O           -0.022933434081    -0.692339784955     0.000000000000    15.994914619570
         H            0.889290672523    -0.983921312937     0.000000000000     1.007825032230

  Running in cs symmetry.

  Rotational constants: A =      4.29272  B =      0.82881  C =      0.79991 [cm^-1]
  Rotational constants: A = 128692.58843  B =  24847.16735  C =  23980.73083 [MHz]
  Nuclear repulsion =   40.355686796729060

  Charge       = 0
  Multiplicity = 1
  Electrons    = 18
  Nalpha       = 9
  Nbeta        = 9

  ==> Algorithm <==

  SCF Algorithm Type is DF.
  DIIS enabled.
  MOM disabled.
  Fractional occupation disabled.
  Guess Type is SAD.
  Energy threshold   = 1.00e-08
  Density threshold  = 1.00e-08
  Integral threshold = 0.00e+00

  ==> Primary Basis <==

  Basis Set: CC-PV(Q+D)Z
    Blend: CC-PV(Q+D)Z
    Number of shells: 70
    Number of basis function: 230
    Number of Cartesian functions: 280
    Spherical Harmonics?: true
    Max angular momentum: 4

  ==> DFT Potential <==

   => Composite Functional: WB97X-V <= 

    wB97X-V Hyb-GGA Exchange-Correlation Functional

    N. Mardirossian and M. Head-Gordon, Phys. Chem. Chem. Phys. 16, 9904 (2014)

    Deriv               =              1
    GGA                 =           TRUE
    Meta                =          FALSE

    Exchange Hybrid     =           TRUE
    MP2 Hybrid          =          FALSE

   => Exchange-Correlation Functionals <=

    1.0000   wB97X-V range-separated functional

   => Exact (HF) Exchange <=

    0.8330            HF,LR [omega = 0.3000]
    0.1670               HF 

   => VV10 Non-Local Parameters <=

    VV10 B              =     6.0000E+00
    VV10 C              =     1.0000E-02

   => Molecular Quadrature <=

    Radial Scheme          =       TREUTLER
    Pruning Scheme         =           FLAT
    Nuclear Scheme         =       TREUTLER

    BS radius alpha        =              1
    Pruning alpha          =              1
    Radial Points          =             75
    Spherical Points       =            302
    Total Points           =         134462
    Total Blocks           =           1064
    Max Points             =            256
    Max Functions          =            230

   => Loading Basis Set <=

    Name: (CC-PV(Q+D)Z AUX)
    Role: JKFIT
    Keyword: DF_BASIS_SCF
    atoms 1      entry C          line   137 file /work/zw18965/.conda/envs/p4env/share/psi4/basis/cc-pvqz-jkfit.gbs 
    atoms 2-4, 6 entry H          line    51 file /work/zw18965/.conda/envs/p4env/share/psi4/basis/cc-pvqz-jkfit.gbs 
    atoms 5      entry O          line   253 file /work/zw18965/.conda/envs/p4env/share/psi4/basis/cc-pvqz-jkfit.gbs 

  ==> Pre-Iterations <==

   -------------------------------------------------------
    Irrep   Nso     Nmo     Nalpha   Nbeta   Ndocc  Nsocc
   -------------------------------------------------------
     A'       140     140       0       0       0       0
     A"        90      90       0       0       0       0
   -------------------------------------------------------
    Total     230     230       9       9       9       0
   -------------------------------------------------------

  ==> Integral Setup <==

  ==> DiskDFJK: Density-Fitted J/K Matrices <==

    J tasked:                  Yes
    K tasked:                  Yes
    wK tasked:                 Yes
    Omega:               3.000E-01
    OpenMP threads:             24
    Integrals threads:          24
    Memory [MiB]:           102250
    Algorithm:                Core
    Integral Cache:           NONE
    Schwarz Cutoff:          1E-12
    Fitting Condition:       1E-10

   => Auxiliary Basis Set <=

  Basis Set: (CC-PV(Q+D)Z AUX)
    Blend: CC-PVQZ-JKFIT
    Number of shells: 108
    Number of basis function: 416
    Number of Cartesian functions: 548
    Spherical Harmonics?: true
    Max angular momentum: 5

  Cached 100.0% of DFT collocation blocks in 0.729 [GiB].

  Minimum eigenvalue in the overlap matrix is 1.8285006357E-04.
  Using Symmetric Orthogonalization.

  SCF Guess: Superposition of Atomic Densities via on-the-fly atomic UHF.

  ==> Iterations <==

                           Total Energy        Delta E     RMS |[F,P]|

   @DF-RKS iter SAD:  -115.13697980598361   -1.15137e+02   0.00000e+00 
   @DF-RKS iter   1:  -115.61044176627848   -4.73462e-01   3.33343e-03 DIIS
   @DF-RKS iter   2:  -115.64397092877064   -3.35292e-02   3.15032e-03 DIIS
   @DF-RKS iter   3:  -115.73570117478074   -9.17302e-02   3.44148e-04 DIIS
   @DF-RKS iter   4:  -115.73690435698421   -1.20318e-03   1.12022e-04 DIIS
   @DF-RKS iter   5:  -115.73707502010349   -1.70663e-04   2.22665e-05 DIIS
   @DF-RKS iter   6:  -115.73708330325474   -8.28315e-06   2.77491e-06 DIIS
   @DF-RKS iter   7:  -115.73708359464243   -2.91388e-07   5.13279e-07 DIIS
   @DF-RKS iter   8:  -115.73708360663785   -1.19954e-08   1.05121e-07 DIIS
   @DF-RKS iter   9:  -115.73708360703843   -4.00576e-10   2.48340e-08 DIIS
   @DF-RKS iter  10:  -115.73708360706274   -2.43148e-11   5.73742e-09 DIIS
  Energy and wave function converged.


  ==> Post-Iterations <==

    Orbital Energies [Eh]
    ---------------------

    Doubly Occupied:                                                      

       1Ap   -19.207690     2Ap   -10.307183     3Ap    -1.149094  
       4Ap    -0.810142     5Ap    -0.620900     1App   -0.553164  
       6Ap    -0.535702     7Ap    -0.445434     2App   -0.384326  

    Virtual:                                                              

       8Ap     0.094699     9Ap     0.131251     3App    0.172901  
      10Ap     0.174847    11Ap     0.211417    12Ap     0.270138  
       4App    0.282068    13Ap     0.390355    14Ap     0.406459  
      15Ap     0.434118     5App    0.442495    16Ap     0.451389  
      17Ap     0.472980     6App    0.502959    18Ap     0.519029  
      19Ap     0.574332     7App    0.619551    20Ap     0.624633  
       8App    0.647901     9App    0.766057    21Ap     0.792565  
      10App    0.824366    22Ap     0.840987    23Ap     0.847940  
      24Ap     0.880248    25Ap     0.923643    11App    0.927771  
      26Ap     1.030347    12App    1.035836    27Ap     1.062999  
      13App    1.099887    28Ap     1.101964    29Ap     1.113734  
      30Ap     1.156257    14App    1.332518    31Ap     1.340482  
      32Ap     1.377289    33Ap     1.446907    15App    1.455576  
      34Ap     1.523594    35Ap     1.576400    16App    1.620435  
      36Ap     1.720378    17App    1.793535    37Ap     1.793632  
      18App    1.883042    19App    1.903181    38Ap     1.907796  
      39Ap     1.936702    20App    1.979872    40Ap     2.022958  
      41Ap     2.034610    21App    2.097561    42Ap     2.109310  
      22App    2.202923    43Ap     2.204511    23App    2.228619  
      44Ap     2.299023    24App    2.311358    45Ap     2.349945  
      25App    2.369425    46Ap     2.397919    26App    2.455646  
      47Ap     2.467519    48Ap     2.504489    27App    2.530547  
      49Ap     2.545827    50Ap     2.670965    51Ap     2.678535  
      28App    2.685545    52Ap     2.745108    29App    2.779120  
      53Ap     2.829865    30App    2.891497    54Ap     2.915321  
      31App    2.992135    55Ap     3.022012    56Ap     3.060843  
      32App    3.087975    57Ap     3.148172    58Ap     3.212880  
      33App    3.237997    59Ap     3.301050    60Ap     3.351636  
      34App    3.368222    35App    3.423975    61Ap     3.462106  
      62Ap     3.546784    36App    3.575248    63Ap     3.597555  
      64Ap     3.679985    65Ap     3.799289    37App    3.873105  
      66Ap     3.931498    38App    3.971819    67Ap     4.021047  
      39App    4.039318    40App    4.145420    68Ap     4.148249  
      69Ap     4.163724    70Ap     4.255511    71Ap     4.388779  
      41App    4.454560    42App    4.697947    72Ap     4.702926  
      73Ap     4.897368    74Ap     5.107129    43App    5.365716  
      75Ap     5.446971    44App    5.467332    45App    5.559255  
      76Ap     5.578310    77Ap     5.679812    46App    5.702284  
      78Ap     5.818899    47App    5.913752    79Ap     5.914124  
      48App    6.041029    80Ap     6.052383    49App    6.133524  
      50App    6.152510    81Ap     6.157947    82Ap     6.171388  
      83Ap     6.213313    51App    6.226953    52App    6.256642  
      84Ap     6.266611    53App    6.284714    85Ap     6.302472  
      86Ap     6.410672    54App    6.426808    87Ap     6.436995  
      88Ap     6.704424    89Ap     6.765232    55App    6.811216  
      56App    6.843688    57App    6.858450    90Ap     6.876128  
      91Ap     6.923808    92Ap     6.999366    58App    7.129027  
      59App    7.205017    93Ap     7.297938    94Ap     7.312848  
      60App    7.389292    95Ap     7.432069    96Ap     7.476979  
      61App    7.502778    97Ap     7.567771    62App    7.619355  
      98Ap     7.692438    63App    7.718070    99Ap     7.719669  
      64App    7.817889   100Ap     7.879401   101Ap     7.892080  
      65App    7.932028    66App    7.989307   102Ap     8.011629  
     103Ap     8.050006   104Ap     8.063794   105Ap     8.142041  
      67App    8.218051   106Ap     8.289645    68App    8.342286  
     107Ap     8.395492   108Ap     8.422180    69App    8.464392  
      70App    8.488202   109Ap     8.511523   110Ap     8.587240  
      71App    8.601835   111Ap     8.655618    72App    8.685023  
     112Ap     8.709320    73App    8.867481   113Ap     8.903895  
     114Ap     8.949743    74App    9.002981   115Ap     9.008965  
      75App    9.095019   116Ap     9.168039    76App    9.485413  
     117Ap     9.506480   118Ap     9.732023   119Ap     9.769388  
      77App    9.850873   120Ap     9.894784    78App   10.003491  
      79App   10.026150   121Ap    10.063717   122Ap    10.112571  
     123Ap    10.202627    80App   10.221800   124Ap    10.363230  
      81App   10.370734    82App   10.530937    83App   10.675263  
     125Ap    10.677153   126Ap    10.881591    84App   11.048250  
     127Ap    11.120232   128Ap    11.204851   129Ap    11.482031  
      85App   11.520242   130Ap    11.576833   131Ap    11.896700  
      86App   11.907490    87App   12.075749   132Ap    12.232361  
      88App   12.388557   133Ap    12.492486   134Ap    12.518626  
      89App   12.676316   135Ap    12.998195   136Ap    14.004207  
      90App   14.019314   137Ap    14.192635   138Ap    16.217452  
     139Ap    25.862642   140Ap    42.635296  

    Final Occupation by Irrep:
             Ap   App 
    DOCC [     7,    2 ]

  @DF-RKS Final Energy:  -115.73708360706274

   => Energetics <=

    Nuclear Repulsion Energy =             40.3556867967290600
    One-Electron Energy =                -237.0587084553178556
    Two-Electron Energy =                  91.6114880214588823
    DFT Exchange-Correlation Energy =     -10.7191828705319701
    Empirical Dispersion Energy =           0.0000000000000000
    VV10 Nonlocal Energy =                  0.0736329005991368
    Total Energy =                       -115.7370836070627433

Computation Completed


Properties will be evaluated at   0.000000,   0.000000,   0.000000 [a0]

Properties computed using the SCF density matrix

  Nuclear Dipole Moment: [e a0]
     X:     0.6794      Y:     2.1835      Z:     0.0000

  Electronic Dipole Moment: [e a0]
     X:    -0.1440      Y:    -1.8041      Z:     0.0000

  Dipole Moment: [e a0]
     X:     0.5355      Y:     0.3794      Z:     0.0000     Total:     0.6562

  Dipole Moment: [D]
     X:     1.3610      Y:     0.9643      Z:     0.0000     Total:     1.6680


*** tstop() called on bp1-compute00047.data.bp.acrc.priv at Tue Apr 27 17:06:20 2021
Module time:
	user time   =     174.36 seconds =       2.91 minutes
	system time =       6.86 seconds =       0.11 minutes
	total time  =          8 seconds =       0.13 minutes
Total time:
	user time   =     342.27 seconds =       5.70 minutes
	system time =      16.77 seconds =       0.28 minutes
	total time  =         16 seconds =       0.27 minutes

  //>>>>>>>>>>>>>>>>>>>>>>>>>>>>>>>>>>>//
  //    Loading displacement 3 of 17   //
  //<<<<<<<<<<<<<<<<<<<<<<<<<<<<<<<<<<<//

*** tstart() called on bp1-compute00047.data.bp.acrc.priv
*** at Tue Apr 27 17:06:20 2021

   => Loading Basis Set <=

    Name: CC-PV(Q+D)Z
    Role: ORBITAL
    Keyword: BASIS
    atoms 1      entry C          line   249 file /work/zw18965/.conda/envs/p4env/share/psi4/basis/cc-pv_qpd_z.gbs 
    atoms 2-4, 6 entry H          line    32 file /work/zw18965/.conda/envs/p4env/share/psi4/basis/cc-pv_qpd_z.gbs 
    atoms 5      entry O          line   349 file /work/zw18965/.conda/envs/p4env/share/psi4/basis/cc-pv_qpd_z.gbs 


         ---------------------------------------------------------
                                   SCF
               by Justin Turney, Rob Parrish, Andy Simmonett
                          and Daniel G. A. Smith
                              RKS Reference
                       24 Threads, 137329 MiB Core
         ---------------------------------------------------------

  ==> Geometry <==

    Molecular point group: cs
    Full point group: Cs

    Geometry (in Angstrom), charge = 0, multiplicity = 1:

       Center              X                  Y                   Z               Mass       
    ------------   -----------------  -----------------  -----------------  -----------------
         C           -0.029441250884     0.726880238143     0.000000000000    12.000000000000
         H           -1.073747405379     1.035680675105     0.000000000000     1.007825032230
         H            0.451321282858     1.140377919049     0.889854379100     1.007825032230
         H            0.451321282858     1.140377919049    -0.889854379100     1.007825032230
         O           -0.023169748160    -0.692365375027     0.000000000000    15.994914619570
         H            0.889377487236    -0.982934043845     0.000000000000     1.007825032230

  Running in cs symmetry.

  Rotational constants: A =      4.29180  B =      0.82892  C =      0.79998 [cm^-1]
  Rotational constants: A = 128665.02123  B =  24850.54490  C =  23982.91928 [MHz]
  Nuclear repulsion =   40.356304923243833

  Charge       = 0
  Multiplicity = 1
  Electrons    = 18
  Nalpha       = 9
  Nbeta        = 9

  ==> Algorithm <==

  SCF Algorithm Type is DF.
  DIIS enabled.
  MOM disabled.
  Fractional occupation disabled.
  Guess Type is SAD.
  Energy threshold   = 1.00e-08
  Density threshold  = 1.00e-08
  Integral threshold = 0.00e+00

  ==> Primary Basis <==

  Basis Set: CC-PV(Q+D)Z
    Blend: CC-PV(Q+D)Z
    Number of shells: 70
    Number of basis function: 230
    Number of Cartesian functions: 280
    Spherical Harmonics?: true
    Max angular momentum: 4

  ==> DFT Potential <==

   => Composite Functional: WB97X-V <= 

    wB97X-V Hyb-GGA Exchange-Correlation Functional

    N. Mardirossian and M. Head-Gordon, Phys. Chem. Chem. Phys. 16, 9904 (2014)

    Deriv               =              1
    GGA                 =           TRUE
    Meta                =          FALSE

    Exchange Hybrid     =           TRUE
    MP2 Hybrid          =          FALSE

   => Exchange-Correlation Functionals <=

    1.0000   wB97X-V range-separated functional

   => Exact (HF) Exchange <=

    0.8330            HF,LR [omega = 0.3000]
    0.1670               HF 

   => VV10 Non-Local Parameters <=

    VV10 B              =     6.0000E+00
    VV10 C              =     1.0000E-02

   => Molecular Quadrature <=

    Radial Scheme          =       TREUTLER
    Pruning Scheme         =           FLAT
    Nuclear Scheme         =       TREUTLER

    BS radius alpha        =              1
    Pruning alpha          =              1
    Radial Points          =             75
    Spherical Points       =            302
    Total Points           =         134462
    Total Blocks           =           1064
    Max Points             =            256
    Max Functions          =            230

   => Loading Basis Set <=

    Name: (CC-PV(Q+D)Z AUX)
    Role: JKFIT
    Keyword: DF_BASIS_SCF
    atoms 1      entry C          line   137 file /work/zw18965/.conda/envs/p4env/share/psi4/basis/cc-pvqz-jkfit.gbs 
    atoms 2-4, 6 entry H          line    51 file /work/zw18965/.conda/envs/p4env/share/psi4/basis/cc-pvqz-jkfit.gbs 
    atoms 5      entry O          line   253 file /work/zw18965/.conda/envs/p4env/share/psi4/basis/cc-pvqz-jkfit.gbs 

  ==> Pre-Iterations <==

   -------------------------------------------------------
    Irrep   Nso     Nmo     Nalpha   Nbeta   Ndocc  Nsocc
   -------------------------------------------------------
     A'       140     140       0       0       0       0
     A"        90      90       0       0       0       0
   -------------------------------------------------------
    Total     230     230       9       9       9       0
   -------------------------------------------------------

  ==> Integral Setup <==

  ==> DiskDFJK: Density-Fitted J/K Matrices <==

    J tasked:                  Yes
    K tasked:                  Yes
    wK tasked:                 Yes
    Omega:               3.000E-01
    OpenMP threads:             24
    Integrals threads:          24
    Memory [MiB]:           102250
    Algorithm:                Core
    Integral Cache:           NONE
    Schwarz Cutoff:          1E-12
    Fitting Condition:       1E-10

   => Auxiliary Basis Set <=

  Basis Set: (CC-PV(Q+D)Z AUX)
    Blend: CC-PVQZ-JKFIT
    Number of shells: 108
    Number of basis function: 416
    Number of Cartesian functions: 548
    Spherical Harmonics?: true
    Max angular momentum: 5

  Cached 100.0% of DFT collocation blocks in 0.729 [GiB].

  Minimum eigenvalue in the overlap matrix is 1.8295372096E-04.
  Using Symmetric Orthogonalization.

  SCF Guess: Superposition of Atomic Densities via on-the-fly atomic UHF.

  ==> Iterations <==

                           Total Energy        Delta E     RMS |[F,P]|

   @DF-RKS iter SAD:  -115.13714192541320   -1.15137e+02   0.00000e+00 
   @DF-RKS iter   1:  -115.61048913584234   -4.73347e-01   3.33268e-03 DIIS
   @DF-RKS iter   2:  -115.64404344463378   -3.35543e-02   3.14918e-03 DIIS
   @DF-RKS iter   3:  -115.73569582123555   -9.16524e-02   3.44263e-04 DIIS
   @DF-RKS iter   4:  -115.73689970768164   -1.20389e-03   1.12031e-04 DIIS
   @DF-RKS iter   5:  -115.73707037067609   -1.70663e-04   2.22738e-05 DIIS
   @DF-RKS iter   6:  -115.73707865715984   -8.28648e-06   2.77339e-06 DIIS
   @DF-RKS iter   7:  -115.73707894840855   -2.91249e-07   5.13165e-07 DIIS
   @DF-RKS iter   8:  -115.73707896039281   -1.19843e-08   1.05012e-07 DIIS
   @DF-RKS iter   9:  -115.73707896079297   -4.00163e-10   2.48410e-08 DIIS
   @DF-RKS iter  10:  -115.73707896081736   -2.43858e-11   5.75082e-09 DIIS
  Energy and wave function converged.


  ==> Post-Iterations <==

    Orbital Energies [Eh]
    ---------------------

    Doubly Occupied:                                                      

       1Ap   -19.207767     2Ap   -10.307165     3Ap    -1.149187  
       4Ap    -0.810063     5Ap    -0.620933     1App   -0.553601  
       6Ap    -0.535157     7Ap    -0.445364     2App   -0.384537  

    Virtual:                                                              

       8Ap     0.094727     9Ap     0.131251     3App    0.172950  
      10Ap     0.174699    11Ap     0.211430    12Ap     0.269933  
       4App    0.282343    13Ap     0.390117    14Ap     0.406789  
      15Ap     0.433757     5App    0.442858    16Ap     0.451471  
      17Ap     0.472602     6App    0.502891    18Ap     0.518947  
      19Ap     0.574400     7App    0.619570    20Ap     0.624545  
       8App    0.647813     9App    0.766153    21Ap     0.792569  
      10App    0.824389    22Ap     0.840958    23Ap     0.847790  
      24Ap     0.879963    25Ap     0.923719    11App    0.927969  
      26Ap     1.030188    12App    1.035761    27Ap     1.062826  
      13App    1.099987    28Ap     1.102460    29Ap     1.113127  
      30Ap     1.156530    14App    1.333145    31Ap     1.340421  
      32Ap     1.377238    33Ap     1.446990    15App    1.455490  
      34Ap     1.523420    35Ap     1.576840    16App    1.619938  
      36Ap     1.719658    17App    1.793330    37Ap     1.793960  
      18App    1.883362    19App    1.902975    38Ap     1.907831  
      39Ap     1.936117    20App    1.979676    40Ap     2.023088  
      41Ap     2.033388    21App    2.097967    42Ap     2.110045  
      22App    2.203423    43Ap     2.204964    23App    2.228594  
      44Ap     2.299422    24App    2.311237    45Ap     2.350152  
      25App    2.368809    46Ap     2.398483    26App    2.455793  
      47Ap     2.466878    48Ap     2.504524    27App    2.530467  
      49Ap     2.545554    50Ap     2.671007    51Ap     2.677482  
      28App    2.685337    52Ap     2.745064    29App    2.779724  
      53Ap     2.830141    30App    2.891515    54Ap     2.915112  
      31App    2.992354    55Ap     3.021755    56Ap     3.060610  
      32App    3.089676    57Ap     3.147840    58Ap     3.212908  
      33App    3.238021    59Ap     3.301264    60Ap     3.350681  
      34App    3.370644    35App    3.423050    61Ap     3.462306  
      62Ap     3.546401    36App    3.574990    63Ap     3.597999  
      64Ap     3.677724    65Ap     3.798948    37App    3.872037  
      66Ap     3.931958    38App    3.973395    67Ap     4.021901  
      39App    4.039105    40App    4.145361    68Ap     4.147864  
      69Ap     4.164578    70Ap     4.255494    71Ap     4.388771  
      41App    4.454762    42App    4.698327    72Ap     4.703513  
      73Ap     4.896284    74Ap     5.107396    43App    5.365176  
      75Ap     5.446315    44App    5.466945    45App    5.561239  
      76Ap     5.577041    77Ap     5.680245    46App    5.701431  
      78Ap     5.819228    47App    5.913559    79Ap     5.914223  
      48App    6.041069    80Ap     6.051419    49App    6.133844  
      50App    6.151527    81Ap     6.160448    82Ap     6.169929  
      83Ap     6.213082    51App    6.226385    52App    6.258969  
      84Ap     6.266155    53App    6.284302    85Ap     6.301249  
      86Ap     6.409444    54App    6.427088    87Ap     6.438432  
      88Ap     6.704126    89Ap     6.764637    55App    6.811816  
      56App    6.843035    57App    6.857841    90Ap     6.877072  
      91Ap     6.923232    92Ap     6.998687    58App    7.129732  
      59App    7.204982    93Ap     7.297055    94Ap     7.312543  
      60App    7.389831    95Ap     7.431798    96Ap     7.475810  
      61App    7.504474    97Ap     7.565808    62App    7.619640  
      98Ap     7.692899    63App    7.719040    99Ap     7.719400  
      64App    7.819672   100Ap     7.878817   101Ap     7.890893  
      65App    7.932967    66App    7.988222   102Ap     8.011101  
     103Ap     8.049888   104Ap     8.064140   105Ap     8.142406  
      67App    8.218748   106Ap     8.289618    68App    8.341647  
     107Ap     8.393954   108Ap     8.423255    69App    8.465814  
      70App    8.489421   109Ap     8.510063   110Ap     8.588046  
      71App    8.601897   111Ap     8.655205    72App    8.685382  
     112Ap     8.709242    73App    8.866614   113Ap     8.904570  
     114Ap     8.949880    74App    9.003474   115Ap     9.006299  
      75App    9.093898   116Ap     9.168657    76App    9.484141  
     117Ap     9.506255   118Ap     9.732339   119Ap     9.767238  
      77App    9.849740   120Ap     9.896132    78App   10.003506  
      79App   10.029661   121Ap    10.060036   122Ap    10.115169  
     123Ap    10.200519    80App   10.224552   124Ap    10.362463  
      81App   10.371611    82App   10.528726   125Ap    10.676012  
      83App   10.676545   126Ap    10.882328    84App   11.048287  
     127Ap    11.119845   128Ap    11.204247   129Ap    11.481144  
      85App   11.520583   130Ap    11.576908   131Ap    11.896703  
      86App   11.907101    87App   12.077186   132Ap    12.229880  
      88App   12.397159   133Ap    12.489717   134Ap    12.512385  
      89App   12.678048   135Ap    12.998395   136Ap    14.004317  
      90App   14.019249   137Ap    14.192317   138Ap    16.217322  
     139Ap    25.862141   140Ap    42.636609  

    Final Occupation by Irrep:
             Ap   App 
    DOCC [     7,    2 ]

  @DF-RKS Final Energy:  -115.73707896081736

   => Energetics <=

    Nuclear Repulsion Energy =             40.3563049232438331
    One-Electron Energy =                -237.0596778693142710
    Two-Electron Energy =                  91.6118031989291381
    DFT Exchange-Correlation Energy =     -10.7191416478599955
    Empirical Dispersion Energy =           0.0000000000000000
    VV10 Nonlocal Energy =                  0.0736324341839294
    Total Energy =                       -115.7370789608173567

Computation Completed


Properties will be evaluated at   0.000000,   0.000000,   0.000000 [a0]

Properties computed using the SCF density matrix

  Nuclear Dipole Moment: [e a0]
     X:     0.6732      Y:     2.1843      Z:     0.0000

  Electronic Dipole Moment: [e a0]
     X:    -0.1369      Y:    -1.8044      Z:     0.0000

  Dipole Moment: [e a0]
     X:     0.5363      Y:     0.3798      Z:     0.0000     Total:     0.6572

  Dipole Moment: [D]
     X:     1.3631      Y:     0.9654      Z:     0.0000     Total:     1.6704


*** tstop() called on bp1-compute00047.data.bp.acrc.priv at Tue Apr 27 17:06:28 2021
Module time:
	user time   =     169.50 seconds =       2.83 minutes
	system time =       4.52 seconds =       0.08 minutes
	total time  =          8 seconds =       0.13 minutes
Total time:
	user time   =     511.92 seconds =       8.53 minutes
	system time =      21.30 seconds =       0.35 minutes
	total time  =         24 seconds =       0.40 minutes

  //>>>>>>>>>>>>>>>>>>>>>>>>>>>>>>>>>>>//
  //    Loading displacement 4 of 17   //
  //<<<<<<<<<<<<<<<<<<<<<<<<<<<<<<<<<<<//

*** tstart() called on bp1-compute00047.data.bp.acrc.priv
*** at Tue Apr 27 17:06:28 2021

   => Loading Basis Set <=

    Name: CC-PV(Q+D)Z
    Role: ORBITAL
    Keyword: BASIS
    atoms 1      entry C          line   249 file /work/zw18965/.conda/envs/p4env/share/psi4/basis/cc-pv_qpd_z.gbs 
    atoms 2-4, 6 entry H          line    32 file /work/zw18965/.conda/envs/p4env/share/psi4/basis/cc-pv_qpd_z.gbs 
    atoms 5      entry O          line   349 file /work/zw18965/.conda/envs/p4env/share/psi4/basis/cc-pv_qpd_z.gbs 


         ---------------------------------------------------------
                                   SCF
               by Justin Turney, Rob Parrish, Andy Simmonett
                          and Daniel G. A. Smith
                              RKS Reference
                       24 Threads, 137329 MiB Core
         ---------------------------------------------------------

  ==> Geometry <==

    Molecular point group: cs
    Full point group: Cs

    Geometry (in Angstrom), charge = 0, multiplicity = 1:

       Center              X                  Y                   Z               Mass       
    ------------   -----------------  -----------------  -----------------  -----------------
         C           -0.029876301320     0.726293308246     0.000000000000    12.000000000000
         H           -1.072623100720     1.036672274162     0.000000000000     1.007825032230
         H            0.452506522770     1.140474637730     0.889854379100     1.007825032230
         H            0.452506522770     1.140474637730    -0.889854379100     1.007825032230
         O           -0.023059730532    -0.691989648031     0.000000000000    15.994914619570
         H            0.889316714165    -0.983093666620     0.000000000000     1.007825032230

  Running in cs symmetry.

  Rotational constants: A =      4.29230  B =      0.82955  C =      0.80059 [cm^-1]
  Rotational constants: A = 128679.96076  B =  24869.40166  C =  24001.00162 [MHz]
  Nuclear repulsion =   40.366224870101988

  Charge       = 0
  Multiplicity = 1
  Electrons    = 18
  Nalpha       = 9
  Nbeta        = 9

  ==> Algorithm <==

  SCF Algorithm Type is DF.
  DIIS enabled.
  MOM disabled.
  Fractional occupation disabled.
  Guess Type is SAD.
  Energy threshold   = 1.00e-08
  Density threshold  = 1.00e-08
  Integral threshold = 0.00e+00

  ==> Primary Basis <==

  Basis Set: CC-PV(Q+D)Z
    Blend: CC-PV(Q+D)Z
    Number of shells: 70
    Number of basis function: 230
    Number of Cartesian functions: 280
    Spherical Harmonics?: true
    Max angular momentum: 4

  ==> DFT Potential <==

   => Composite Functional: WB97X-V <= 

    wB97X-V Hyb-GGA Exchange-Correlation Functional

    N. Mardirossian and M. Head-Gordon, Phys. Chem. Chem. Phys. 16, 9904 (2014)

    Deriv               =              1
    GGA                 =           TRUE
    Meta                =          FALSE

    Exchange Hybrid     =           TRUE
    MP2 Hybrid          =          FALSE

   => Exchange-Correlation Functionals <=

    1.0000   wB97X-V range-separated functional

   => Exact (HF) Exchange <=

    0.8330            HF,LR [omega = 0.3000]
    0.1670               HF 

   => VV10 Non-Local Parameters <=

    VV10 B              =     6.0000E+00
    VV10 C              =     1.0000E-02

   => Molecular Quadrature <=

    Radial Scheme          =       TREUTLER
    Pruning Scheme         =           FLAT
    Nuclear Scheme         =       TREUTLER

    BS radius alpha        =              1
    Pruning alpha          =              1
    Radial Points          =             75
    Spherical Points       =            302
    Total Points           =         134462
    Total Blocks           =           1067
    Max Points             =            256
    Max Functions          =            230

   => Loading Basis Set <=

    Name: (CC-PV(Q+D)Z AUX)
    Role: JKFIT
    Keyword: DF_BASIS_SCF
    atoms 1      entry C          line   137 file /work/zw18965/.conda/envs/p4env/share/psi4/basis/cc-pvqz-jkfit.gbs 
    atoms 2-4, 6 entry H          line    51 file /work/zw18965/.conda/envs/p4env/share/psi4/basis/cc-pvqz-jkfit.gbs 
    atoms 5      entry O          line   253 file /work/zw18965/.conda/envs/p4env/share/psi4/basis/cc-pvqz-jkfit.gbs 

  ==> Pre-Iterations <==

   -------------------------------------------------------
    Irrep   Nso     Nmo     Nalpha   Nbeta   Ndocc  Nsocc
   -------------------------------------------------------
     A'       140     140       0       0       0       0
     A"        90      90       0       0       0       0
   -------------------------------------------------------
    Total     230     230       9       9       9       0
   -------------------------------------------------------

  ==> Integral Setup <==

  ==> DiskDFJK: Density-Fitted J/K Matrices <==

    J tasked:                  Yes
    K tasked:                  Yes
    wK tasked:                 Yes
    Omega:               3.000E-01
    OpenMP threads:             24
    Integrals threads:          24
    Memory [MiB]:           102250
    Algorithm:                Core
    Integral Cache:           NONE
    Schwarz Cutoff:          1E-12
    Fitting Condition:       1E-10

   => Auxiliary Basis Set <=

  Basis Set: (CC-PV(Q+D)Z AUX)
    Blend: CC-PVQZ-JKFIT
    Number of shells: 108
    Number of basis function: 416
    Number of Cartesian functions: 548
    Spherical Harmonics?: true
    Max angular momentum: 5

  Cached 100.0% of DFT collocation blocks in 0.729 [GiB].

  Minimum eigenvalue in the overlap matrix is 1.8304540962E-04.
  Using Symmetric Orthogonalization.

  SCF Guess: Superposition of Atomic Densities via on-the-fly atomic UHF.

  ==> Iterations <==

                           Total Energy        Delta E     RMS |[F,P]|

   @DF-RKS iter SAD:  -115.13814740175287   -1.15138e+02   0.00000e+00 
   @DF-RKS iter   1:  -115.61040994559997   -4.72263e-01   3.33380e-03 DIIS
   @DF-RKS iter   2:  -115.64393245603767   -3.35225e-02   3.15091e-03 DIIS
   @DF-RKS iter   3:  -115.73570740733309   -9.17750e-02   3.43714e-04 DIIS
   @DF-RKS iter   4:  -115.73690759056716   -1.20018e-03   1.12046e-04 DIIS
   @DF-RKS iter   5:  -115.73707827266352   -1.70682e-04   2.22746e-05 DIIS
   @DF-RKS iter   6:  -115.73708655966830   -8.28700e-06   2.77541e-06 DIIS
   @DF-RKS iter   7:  -115.73708685153710   -2.91869e-07   5.13767e-07 DIIS
   @DF-RKS iter   8:  -115.73708686355508   -1.20180e-08   1.05257e-07 DIIS
   @DF-RKS iter   9:  -115.73708686395673   -4.01656e-10   2.49114e-08 DIIS
   @DF-RKS iter  10:  -115.73708686398129   -2.45564e-11   5.75440e-09 DIIS
  Energy and wave function converged.


  ==> Post-Iterations <==

    Orbital Energies [Eh]
    ---------------------

    Doubly Occupied:                                                      

       1Ap   -19.207814     2Ap   -10.307202     3Ap    -1.149479  
       4Ap    -0.810020     5Ap    -0.621125     1App   -0.553350  
       6Ap    -0.535574     7Ap    -0.445332     2App   -0.384409  

    Virtual:                                                              

       8Ap     0.094700     9Ap     0.131238     3App    0.172948  
      10Ap     0.174791    11Ap     0.211532    12Ap     0.270100  
       4App    0.282229    13Ap     0.390628    14Ap     0.406588  
      15Ap     0.433868     5App    0.442471    16Ap     0.451414  
      17Ap     0.472745     6App    0.502855    18Ap     0.518975  
      19Ap     0.574281     7App    0.619535    20Ap     0.624604  
       8App    0.647772     9App    0.766199    21Ap     0.792619  
      10App    0.824538    22Ap     0.840999    23Ap     0.848153  
      24Ap     0.880251    25Ap     0.923622    11App    0.927868  
      26Ap     1.030160    12App    1.035524    27Ap     1.062811  
      13App    1.099664    28Ap     1.102042    29Ap     1.113441  
      30Ap     1.156284    14App    1.333448    31Ap     1.340951  
      32Ap     1.377372    33Ap     1.446969    15App    1.455490  
      34Ap     1.523268    35Ap     1.576349    16App    1.620153  
      36Ap     1.720285    17App    1.793501    37Ap     1.793874  
      18App    1.883250    19App    1.903247    38Ap     1.907734  
      39Ap     1.936608    20App    1.979814    40Ap     2.023043  
      41Ap     2.034016    21App    2.097911    42Ap     2.109527  
      22App    2.203231    43Ap     2.205051    23App    2.228542  
      44Ap     2.299505    24App    2.311252    45Ap     2.350066  
      25App    2.368610    46Ap     2.398383    26App    2.455561  
      47Ap     2.467194    48Ap     2.503987    27App    2.530202  
      49Ap     2.545521    50Ap     2.671062    51Ap     2.677775  
      28App    2.685589    52Ap     2.745204    29App    2.779271  
      53Ap     2.830020    30App    2.891412    54Ap     2.915406  
      31App    2.992535    55Ap     3.021775    56Ap     3.060967  
      32App    3.089350    57Ap     3.148449    58Ap     3.213034  
      33App    3.238123    59Ap     3.301418    60Ap     3.351403  
      34App    3.369059    35App    3.422719    61Ap     3.462412  
      62Ap     3.546654    36App    3.575463    63Ap     3.597729  
      64Ap     3.679343    65Ap     3.798666    37App    3.872061  
      66Ap     3.931126    38App    3.972601    67Ap     4.021968  
      39App    4.039442    40App    4.146185    68Ap     4.147881  
      69Ap     4.164802    70Ap     4.255498    71Ap     4.388944  
      41App    4.454765    42App    4.698196    72Ap     4.703660  
      73Ap     4.897218    74Ap     5.107383    43App    5.365007  
      75Ap     5.446062    44App    5.467384    45App    5.561008  
      76Ap     5.578408    77Ap     5.682491    46App    5.701678  
      78Ap     5.819053    47App    5.913821    79Ap     5.913963  
      48App    6.041377    80Ap     6.052278    49App    6.133760  
      50App    6.151956    81Ap     6.158987    82Ap     6.170880  
      83Ap     6.212995    51App    6.227314    52App    6.256716  
      84Ap     6.265941    53App    6.284264    85Ap     6.301412  
      86Ap     6.409773    54App    6.427146    87Ap     6.437599  
      88Ap     6.703493    89Ap     6.763952    55App    6.810358  
      56App    6.843725    57App    6.857928    90Ap     6.877046  
      91Ap     6.923813    92Ap     6.999396    58App    7.127856  
      59App    7.204283    93Ap     7.297883    94Ap     7.312968  
      60App    7.389268    95Ap     7.432227    96Ap     7.476705  
      61App    7.503846    97Ap     7.566926    62App    7.619161  
      98Ap     7.692589    63App    7.718647    99Ap     7.719583  
      64App    7.818169   100Ap     7.878958   101Ap     7.892440  
      65App    7.932971    66App    7.989057   102Ap     8.011774  
     103Ap     8.049666   104Ap     8.064718   105Ap     8.142207  
      67App    8.218939   106Ap     8.289828    68App    8.340877  
     107Ap     8.393485   108Ap     8.421737    69App    8.464823  
      70App    8.488100   109Ap     8.510243   110Ap     8.587897  
      71App    8.601511   111Ap     8.655353    72App    8.685267  
     112Ap     8.709320    73App    8.867230   113Ap     8.903989  
     114Ap     8.949288    74App    9.003111   115Ap     9.007862  
      75App    9.092060   116Ap     9.166617    76App    9.485330  
     117Ap     9.506950   118Ap     9.731388   119Ap     9.767836  
      77App    9.848827   120Ap     9.893381    78App   10.003037  
      79App   10.028928   121Ap    10.061577   122Ap    10.113623  
     123Ap    10.200289    80App   10.221316   124Ap    10.362959  
      81App   10.371398    82App   10.529066    83App   10.675047  
     125Ap    10.677080   126Ap    10.882856    84App   11.048905  
     127Ap    11.120151   128Ap    11.205274   129Ap    11.482673  
      85App   11.520812   130Ap    11.577951   131Ap    11.898882  
      86App   11.907359    87App   12.076472   132Ap    12.230932  
      88App   12.390220   133Ap    12.492348   134Ap    12.514335  
      89App   12.679593   135Ap    13.000036   136Ap    14.004589  
      90App   14.019201   137Ap    14.193186   138Ap    16.217423  
     139Ap    25.858698   140Ap    42.638105  

    Final Occupation by Irrep:
             Ap   App 
    DOCC [     7,    2 ]

  @DF-RKS Final Energy:  -115.73708686398129

   => Energetics <=

    Nuclear Repulsion Energy =             40.3662248701019877
    One-Electron Energy =                -237.0784337266254340
    Two-Electron Energy =                  91.6207140275680700
    DFT Exchange-Correlation Energy =     -10.7192234804551472
    Empirical Dispersion Energy =           0.0000000000000000
    VV10 Nonlocal Energy =                  0.0736314454292212
    Total Energy =                       -115.7370868639812898

Computation Completed


Properties will be evaluated at   0.000000,   0.000000,   0.000000 [a0]

Properties computed using the SCF density matrix

  Nuclear Dipole Moment: [e a0]
     X:     0.6765      Y:     2.1852      Z:     0.0000

  Electronic Dipole Moment: [e a0]
     X:    -0.1406      Y:    -1.8071      Z:     0.0000

  Dipole Moment: [e a0]
     X:     0.5359      Y:     0.3781      Z:     0.0000     Total:     0.6559

  Dipole Moment: [D]
     X:     1.3621      Y:     0.9611      Z:     0.0000     Total:     1.6671


*** tstop() called on bp1-compute00047.data.bp.acrc.priv at Tue Apr 27 17:06:35 2021
Module time:
	user time   =     168.88 seconds =       2.81 minutes
	system time =       4.80 seconds =       0.08 minutes
	total time  =          7 seconds =       0.12 minutes
Total time:
	user time   =     680.95 seconds =      11.35 minutes
	system time =      26.11 seconds =       0.44 minutes
	total time  =         31 seconds =       0.52 minutes

  //>>>>>>>>>>>>>>>>>>>>>>>>>>>>>>>>>>>//
  //    Loading displacement 5 of 17   //
  //<<<<<<<<<<<<<<<<<<<<<<<<<<<<<<<<<<<//

*** tstart() called on bp1-compute00047.data.bp.acrc.priv
*** at Tue Apr 27 17:06:35 2021

   => Loading Basis Set <=

    Name: CC-PV(Q+D)Z
    Role: ORBITAL
    Keyword: BASIS
    atoms 1      entry C          line   249 file /work/zw18965/.conda/envs/p4env/share/psi4/basis/cc-pv_qpd_z.gbs 
    atoms 2-4, 6 entry H          line    32 file /work/zw18965/.conda/envs/p4env/share/psi4/basis/cc-pv_qpd_z.gbs 
    atoms 5      entry O          line   349 file /work/zw18965/.conda/envs/p4env/share/psi4/basis/cc-pv_qpd_z.gbs 


         ---------------------------------------------------------
                                   SCF
               by Justin Turney, Rob Parrish, Andy Simmonett
                          and Daniel G. A. Smith
                              RKS Reference
                       24 Threads, 137329 MiB Core
         ---------------------------------------------------------

  ==> Geometry <==

    Molecular point group: cs
    Full point group: Cs

    Geometry (in Angstrom), charge = 0, multiplicity = 1:

       Center              X                  Y                   Z               Mass       
    ------------   -----------------  -----------------  -----------------  -----------------
         C           -0.029876301320     0.727500334372     0.000000000000    12.000000000000
         H           -1.072716407721     1.035879870056     0.000000000000     1.007825032230
         H            0.452406632189     1.139778918488     0.889854379100     1.007825032230
         H            0.452406632189     1.139778918488    -0.889854379100     1.007825032230
         O           -0.023043451709    -0.692715511951     0.000000000000    15.994914619570
         H            0.889351445594    -0.983761690162     0.000000000000     1.007825032230

  Running in cs symmetry.

  Rotational constants: A =      4.29224  B =      0.82818  C =      0.79931 [cm^-1]
  Rotational constants: A = 128678.02789  B =  24828.33006  C =  23962.67902 [MHz]
  Nuclear repulsion =   40.345786811915787

  Charge       = 0
  Multiplicity = 1
  Electrons    = 18
  Nalpha       = 9
  Nbeta        = 9

  ==> Algorithm <==

  SCF Algorithm Type is DF.
  DIIS enabled.
  MOM disabled.
  Fractional occupation disabled.
  Guess Type is SAD.
  Energy threshold   = 1.00e-08
  Density threshold  = 1.00e-08
  Integral threshold = 0.00e+00

  ==> Primary Basis <==

  Basis Set: CC-PV(Q+D)Z
    Blend: CC-PV(Q+D)Z
    Number of shells: 70
    Number of basis function: 230
    Number of Cartesian functions: 280
    Spherical Harmonics?: true
    Max angular momentum: 4

  ==> DFT Potential <==

   => Composite Functional: WB97X-V <= 

    wB97X-V Hyb-GGA Exchange-Correlation Functional

    N. Mardirossian and M. Head-Gordon, Phys. Chem. Chem. Phys. 16, 9904 (2014)

    Deriv               =              1
    GGA                 =           TRUE
    Meta                =          FALSE

    Exchange Hybrid     =           TRUE
    MP2 Hybrid          =          FALSE

   => Exchange-Correlation Functionals <=

    1.0000   wB97X-V range-separated functional

   => Exact (HF) Exchange <=

    0.8330            HF,LR [omega = 0.3000]
    0.1670               HF 

   => VV10 Non-Local Parameters <=

    VV10 B              =     6.0000E+00
    VV10 C              =     1.0000E-02

   => Molecular Quadrature <=

    Radial Scheme          =       TREUTLER
    Pruning Scheme         =           FLAT
    Nuclear Scheme         =       TREUTLER

    BS radius alpha        =              1
    Pruning alpha          =              1
    Radial Points          =             75
    Spherical Points       =            302
    Total Points           =         134462
    Total Blocks           =           1065
    Max Points             =            254
    Max Functions          =            230

   => Loading Basis Set <=

    Name: (CC-PV(Q+D)Z AUX)
    Role: JKFIT
    Keyword: DF_BASIS_SCF
    atoms 1      entry C          line   137 file /work/zw18965/.conda/envs/p4env/share/psi4/basis/cc-pvqz-jkfit.gbs 
    atoms 2-4, 6 entry H          line    51 file /work/zw18965/.conda/envs/p4env/share/psi4/basis/cc-pvqz-jkfit.gbs 
    atoms 5      entry O          line   253 file /work/zw18965/.conda/envs/p4env/share/psi4/basis/cc-pvqz-jkfit.gbs 

  ==> Pre-Iterations <==

   -------------------------------------------------------
    Irrep   Nso     Nmo     Nalpha   Nbeta   Ndocc  Nsocc
   -------------------------------------------------------
     A'       140     140       0       0       0       0
     A"        90      90       0       0       0       0
   -------------------------------------------------------
    Total     230     230       9       9       9       0
   -------------------------------------------------------

  ==> Integral Setup <==

  ==> DiskDFJK: Density-Fitted J/K Matrices <==

    J tasked:                  Yes
    K tasked:                  Yes
    wK tasked:                 Yes
    Omega:               3.000E-01
    OpenMP threads:             24
    Integrals threads:          24
    Memory [MiB]:           102250
    Algorithm:                Core
    Integral Cache:           NONE
    Schwarz Cutoff:          1E-12
    Fitting Condition:       1E-10

   => Auxiliary Basis Set <=

  Basis Set: (CC-PV(Q+D)Z AUX)
    Blend: CC-PVQZ-JKFIT
    Number of shells: 108
    Number of basis function: 416
    Number of Cartesian functions: 548
    Spherical Harmonics?: true
    Max angular momentum: 5

  Cached 100.0% of DFT collocation blocks in 0.729 [GiB].

  Minimum eigenvalue in the overlap matrix is 1.8276311886E-04.
  Using Symmetric Orthogonalization.

  SCF Guess: Superposition of Atomic Densities via on-the-fly atomic UHF.

  ==> Iterations <==

                           Total Energy        Delta E     RMS |[F,P]|

   @DF-RKS iter SAD:  -115.13597935917265   -1.15136e+02   0.00000e+00 
   @DF-RKS iter   1:  -115.61052365673044   -4.74544e-01   3.33231e-03 DIIS
   @DF-RKS iter   2:  -115.64408410623989   -3.35604e-02   3.14860e-03 DIIS
   @DF-RKS iter   3:  -115.73569191235813   -9.16078e-02   3.44697e-04 DIIS
   @DF-RKS iter   4:  -115.73689880607782   -1.20689e-03   1.12006e-04 DIIS
   @DF-RKS iter   5:  -115.73706944718938   -1.70641e-04   2.22653e-05 DIIS
   @DF-RKS iter   6:  -115.73707772954569   -8.28236e-06   2.77285e-06 DIIS
   @DF-RKS iter   7:  -115.73707802029945   -2.90754e-07   5.12660e-07 DIIS
   @DF-RKS iter   8:  -115.73707803226006   -1.19606e-08   1.04871e-07 DIIS
   @DF-RKS iter   9:  -115.73707803265940   -3.99339e-10   2.47624e-08 DIIS
   @DF-RKS iter  10:  -115.73707803268373   -2.43290e-11   5.73354e-09 DIIS
  Energy and wave function converged.


  ==> Post-Iterations <==

    Orbital Energies [Eh]
    ---------------------

    Doubly Occupied:                                                      

       1Ap   -19.207643     2Ap   -10.307146     3Ap    -1.148803  
       4Ap    -0.810185     5Ap    -0.620709     1App   -0.553415  
       6Ap    -0.535284     7Ap    -0.445468     2App   -0.384454  

    Virtual:                                                              

       8Ap     0.094726     9Ap     0.131263     3App    0.172903  
      10Ap     0.174755    11Ap     0.211314    12Ap     0.269970  
       4App    0.282181    13Ap     0.389841    14Ap     0.406666  
      15Ap     0.434008     5App    0.442884    16Ap     0.451447  
      17Ap     0.472835     6App    0.502995    18Ap     0.519001  
      19Ap     0.574451     7App    0.619586    20Ap     0.624574  
       8App    0.647943     9App    0.766012    21Ap     0.792515  
      10App    0.824214    22Ap     0.840947    23Ap     0.847580  
      24Ap     0.879960    25Ap     0.923739    11App    0.927874  
      26Ap     1.030378    12App    1.036075    27Ap     1.063012  
      13App    1.100210    28Ap     1.102380    29Ap     1.113423  
      30Ap     1.156501    14App    1.332212    31Ap     1.339951  
      32Ap     1.377153    33Ap     1.446930    15App    1.455577  
      34Ap     1.523746    35Ap     1.576892    16App    1.620220  
      36Ap     1.719752    17App    1.793364    37Ap     1.793715  
      18App    1.883149    19App    1.902915    38Ap     1.907903  
      39Ap     1.936201    20App    1.979732    40Ap     2.022988  
      41Ap     2.033995    21App    2.097621    42Ap     2.109832  
      22App    2.203115    43Ap     2.204423    23App    2.228671  
      44Ap     2.298941    24App    2.311340    45Ap     2.350035  
      25App    2.369627    46Ap     2.398012    26App    2.455877  
      47Ap     2.467217    48Ap     2.505021    27App    2.530818  
      49Ap     2.545861    50Ap     2.670929    51Ap     2.678224  
      28App    2.685293    52Ap     2.744967    29App    2.779576  
      53Ap     2.829985    30App    2.891597    54Ap     2.915027  
      31App    2.991955    55Ap     3.021990    56Ap     3.060488  
      32App    3.088299    57Ap     3.147557    58Ap     3.212757  
      33App    3.237894    59Ap     3.300901    60Ap     3.350916  
      34App    3.369798    35App    3.424322    61Ap     3.461997  
      62Ap     3.546545    36App    3.574770    63Ap     3.597825  
      64Ap     3.678358    65Ap     3.799561    37App    3.873079  
      66Ap     3.932338    38App    3.972627    67Ap     4.020972  
      39App    4.038963    40App    4.144598    68Ap     4.148240  
      69Ap     4.163504    70Ap     4.255511    71Ap     4.388604  
      41App    4.454553    42App    4.698078    72Ap     4.702772  
      73Ap     4.896434    74Ap     5.107139    43App    5.365903  
      75Ap     5.447237    44App    5.466888    45App    5.559469  
      76Ap     5.576949    77Ap     5.677576    46App    5.702044  
      78Ap     5.819078    47App    5.913494    79Ap     5.914394  
      48App    6.040725    80Ap     6.051557    49App    6.133586  
      50App    6.152124    81Ap     6.159444    82Ap     6.170417  
      83Ap     6.213384    51App    6.226036    52App    6.258892  
      84Ap     6.266849    53App    6.284755    85Ap     6.302226  
      86Ap     6.410346    54App    6.426740    87Ap     6.437830  
      88Ap     6.705077    89Ap     6.765916    55App    6.812721  
      56App    6.842964    57App    6.858348    90Ap     6.876137  
      91Ap     6.923219    92Ap     6.998659    58App    7.130899  
      59App    7.205747    93Ap     7.297105    94Ap     7.312445  
      60App    7.389846    95Ap     7.431655    96Ap     7.476066  
      61App    7.503402    97Ap     7.566659    62App    7.619824  
      98Ap     7.692762    63App    7.718473    99Ap     7.719472  
      64App    7.819388   100Ap     7.879375   101Ap     7.890418  
      65App    7.932004    66App    7.988478   102Ap     8.010862  
     103Ap     8.050312   104Ap     8.063237   105Ap     8.142246  
      67App    8.217866   106Ap     8.289442    68App    8.343052  
     107Ap     8.395965   108Ap     8.423705    69App    8.465429  
      70App    8.489515   109Ap     8.511341   110Ap     8.587379  
      71App    8.602195   111Ap     8.655461    72App    8.685142  
     112Ap     8.709244    73App    8.866857   113Ap     8.904505  
     114Ap     8.950338    74App    9.003359   115Ap     9.007385  
      75App    9.096857   116Ap     9.170078    76App    9.484223  
     117Ap     9.505790   118Ap     9.732932   119Ap     9.768847  
      77App    9.851802   120Ap     9.897672    78App   10.004048  
      79App   10.026856   121Ap    10.062272   122Ap    10.114030  
     123Ap    10.202730    80App   10.225035   124Ap    10.362666  
      81App   10.370951    82App   10.530535   125Ap    10.676073  
      83App   10.676735   126Ap    10.881039    84App   11.047630  
     127Ap    11.119947   128Ap    11.203818   129Ap    11.480501  
      85App   11.520010   130Ap    11.575791   131Ap    11.894531  
      86App   11.907233    87App   12.076463   132Ap    12.231320  
      88App   12.395498   133Ap    12.490478   134Ap    12.516055  
      89App   12.674782   135Ap    12.996557   136Ap    14.003935  
      90App   14.019364   137Ap    14.191772   138Ap    16.217352  
     139Ap    25.866082   140Ap    42.633804  

    Final Occupation by Irrep:
             Ap   App 
    DOCC [     7,    2 ]

  @DF-RKS Final Energy:  -115.73707803268373

   => Energetics <=

    Nuclear Repulsion Energy =             40.3457868119157865
    One-Electron Energy =                -237.0399956303095621
    Two-Electron Energy =                  91.6025988902319739
    DFT Exchange-Correlation Energy =     -10.7191019961627987
    Empirical Dispersion Energy =           0.0000000000000000
    VV10 Nonlocal Energy =                  0.0736338916408832
    Total Energy =                       -115.7370780326837263

Computation Completed


Properties will be evaluated at   0.000000,   0.000000,   0.000000 [a0]

Properties computed using the SCF density matrix

  Nuclear Dipole Moment: [e a0]
     X:     0.6762      Y:     2.1825      Z:     0.0000

  Electronic Dipole Moment: [e a0]
     X:    -0.1404      Y:    -1.8015      Z:     0.0000

  Dipole Moment: [e a0]
     X:     0.5359      Y:     0.3811      Z:     0.0000     Total:     0.6575

  Dipole Moment: [D]
     X:     1.3620      Y:     0.9686      Z:     0.0000     Total:     1.6713


*** tstop() called on bp1-compute00047.data.bp.acrc.priv at Tue Apr 27 17:06:43 2021
Module time:
	user time   =     167.93 seconds =       2.80 minutes
	system time =       6.46 seconds =       0.11 minutes
	total time  =          8 seconds =       0.13 minutes
Total time:
	user time   =     849.03 seconds =      14.15 minutes
	system time =      32.58 seconds =       0.54 minutes
	total time  =         39 seconds =       0.65 minutes

  //>>>>>>>>>>>>>>>>>>>>>>>>>>>>>>>>>>>//
  //    Loading displacement 6 of 17   //
  //<<<<<<<<<<<<<<<<<<<<<<<<<<<<<<<<<<<//

*** tstart() called on bp1-compute00047.data.bp.acrc.priv
*** at Tue Apr 27 17:06:43 2021

   => Loading Basis Set <=

    Name: CC-PV(Q+D)Z
    Role: ORBITAL
    Keyword: BASIS
    atoms 1      entry C          line   249 file /work/zw18965/.conda/envs/p4env/share/psi4/basis/cc-pv_qpd_z.gbs 
    atoms 2-4, 6 entry H          line    32 file /work/zw18965/.conda/envs/p4env/share/psi4/basis/cc-pv_qpd_z.gbs 
    atoms 5      entry O          line   349 file /work/zw18965/.conda/envs/p4env/share/psi4/basis/cc-pv_qpd_z.gbs 


         ---------------------------------------------------------
                                   SCF
               by Justin Turney, Rob Parrish, Andy Simmonett
                          and Daniel G. A. Smith
                              RKS Reference
                       24 Threads, 137329 MiB Core
         ---------------------------------------------------------

  ==> Geometry <==

    Molecular point group: cs
    Full point group: Cs

    Geometry (in Angstrom), charge = 0, multiplicity = 1:

       Center              X                  Y                   Z               Mass       
    ------------   -----------------  -----------------  -----------------  -----------------
         C           -0.029876301320     0.726896821309     0.000000000000    12.000000000000
         H           -1.074951751230     1.036727163267     0.000000000000     1.007825032230
         H            0.453261517906     1.139947034293     0.889854379100     1.007825032230
         H            0.453261517906     1.139947034293    -0.889854379100     1.007825032230
         O           -0.023004615490    -0.692335640308     0.000000000000    15.994914619570
         H            0.889260658695    -0.983788126980     0.000000000000     1.007825032230

  Running in cs symmetry.

  Rotational constants: A =      4.28573  B =      0.82884  C =      0.79969 [cm^-1]
  Rotational constants: A = 128483.01720  B =  24847.99278  C =  23974.21262 [MHz]
  Nuclear repulsion =   40.345579244221270

  Charge       = 0
  Multiplicity = 1
  Electrons    = 18
  Nalpha       = 9
  Nbeta        = 9

  ==> Algorithm <==

  SCF Algorithm Type is DF.
  DIIS enabled.
  MOM disabled.
  Fractional occupation disabled.
  Guess Type is SAD.
  Energy threshold   = 1.00e-08
  Density threshold  = 1.00e-08
  Integral threshold = 0.00e+00

  ==> Primary Basis <==

  Basis Set: CC-PV(Q+D)Z
    Blend: CC-PV(Q+D)Z
    Number of shells: 70
    Number of basis function: 230
    Number of Cartesian functions: 280
    Spherical Harmonics?: true
    Max angular momentum: 4

  ==> DFT Potential <==

   => Composite Functional: WB97X-V <= 

    wB97X-V Hyb-GGA Exchange-Correlation Functional

    N. Mardirossian and M. Head-Gordon, Phys. Chem. Chem. Phys. 16, 9904 (2014)

    Deriv               =              1
    GGA                 =           TRUE
    Meta                =          FALSE

    Exchange Hybrid     =           TRUE
    MP2 Hybrid          =          FALSE

   => Exchange-Correlation Functionals <=

    1.0000   wB97X-V range-separated functional

   => Exact (HF) Exchange <=

    0.8330            HF,LR [omega = 0.3000]
    0.1670               HF 

   => VV10 Non-Local Parameters <=

    VV10 B              =     6.0000E+00
    VV10 C              =     1.0000E-02

   => Molecular Quadrature <=

    Radial Scheme          =       TREUTLER
    Pruning Scheme         =           FLAT
    Nuclear Scheme         =       TREUTLER

    BS radius alpha        =              1
    Pruning alpha          =              1
    Radial Points          =             75
    Spherical Points       =            302
    Total Points           =         134462
    Total Blocks           =           1068
    Max Points             =            256
    Max Functions          =            230

   => Loading Basis Set <=

    Name: (CC-PV(Q+D)Z AUX)
    Role: JKFIT
    Keyword: DF_BASIS_SCF
    atoms 1      entry C          line   137 file /work/zw18965/.conda/envs/p4env/share/psi4/basis/cc-pvqz-jkfit.gbs 
    atoms 2-4, 6 entry H          line    51 file /work/zw18965/.conda/envs/p4env/share/psi4/basis/cc-pvqz-jkfit.gbs 
    atoms 5      entry O          line   253 file /work/zw18965/.conda/envs/p4env/share/psi4/basis/cc-pvqz-jkfit.gbs 

  ==> Pre-Iterations <==

   -------------------------------------------------------
    Irrep   Nso     Nmo     Nalpha   Nbeta   Ndocc  Nsocc
   -------------------------------------------------------
     A'       140     140       0       0       0       0
     A"        90      90       0       0       0       0
   -------------------------------------------------------
    Total     230     230       9       9       9       0
   -------------------------------------------------------

  ==> Integral Setup <==

  ==> DiskDFJK: Density-Fitted J/K Matrices <==

    J tasked:                  Yes
    K tasked:                  Yes
    wK tasked:                 Yes
    Omega:               3.000E-01
    OpenMP threads:             24
    Integrals threads:          24
    Memory [MiB]:           102250
    Algorithm:                Core
    Integral Cache:           NONE
    Schwarz Cutoff:          1E-12
    Fitting Condition:       1E-10

   => Auxiliary Basis Set <=

  Basis Set: (CC-PV(Q+D)Z AUX)
    Blend: CC-PVQZ-JKFIT
    Number of shells: 108
    Number of basis function: 416
    Number of Cartesian functions: 548
    Spherical Harmonics?: true
    Max angular momentum: 5

  Cached 100.0% of DFT collocation blocks in 0.729 [GiB].

  Minimum eigenvalue in the overlap matrix is 1.8343970168E-04.
  Using Symmetric Orthogonalization.

  SCF Guess: Superposition of Atomic Densities via on-the-fly atomic UHF.

  ==> Iterations <==

                           Total Energy        Delta E     RMS |[F,P]|

   @DF-RKS iter SAD:  -115.13611021976827   -1.15136e+02   0.00000e+00 
   @DF-RKS iter   1:  -115.61052662186836   -4.74416e-01   3.33239e-03 DIIS
   @DF-RKS iter   2:  -115.64392118804230   -3.33946e-02   3.15137e-03 DIIS
   @DF-RKS iter   3:  -115.73571002595887   -9.17888e-02   3.43522e-04 DIIS
   @DF-RKS iter   4:  -115.73690967808471   -1.19965e-03   1.12054e-04 DIIS
   @DF-RKS iter   5:  -115.73708048544341   -1.70807e-04   2.22770e-05 DIIS
   @DF-RKS iter   6:  -115.73708877813094   -8.29269e-06   2.77611e-06 DIIS
   @DF-RKS iter   7:  -115.73708907006794   -2.91937e-07   5.13733e-07 DIIS
   @DF-RKS iter   8:  -115.73708908209338   -1.20254e-08   1.05208e-07 DIIS
   @DF-RKS iter   9:  -115.73708908249620   -4.02821e-10   2.48039e-08 DIIS
   @DF-RKS iter  10:  -115.73708908252071   -2.45137e-11   5.75586e-09 DIIS
  Energy and wave function converged.


  ==> Post-Iterations <==

    Orbital Energies [Eh]
    ---------------------

    Doubly Occupied:                                                      

       1Ap   -19.207738     2Ap   -10.307507     3Ap    -1.149149  
       4Ap    -0.809852     5Ap    -0.620943     1App   -0.553305  
       6Ap    -0.535215     7Ap    -0.445305     2App   -0.384403  

    Virtual:                                                              

       8Ap     0.094681     9Ap     0.131220     3App    0.172908  
      10Ap     0.174604    11Ap     0.211417    12Ap     0.270078  
       4App    0.282107    13Ap     0.390223    14Ap     0.406563  
      15Ap     0.433788     5App    0.442574    16Ap     0.451136  
      17Ap     0.472644     6App    0.502905    18Ap     0.518485  
      19Ap     0.574221     7App    0.619550    20Ap     0.624603  
       8App    0.647899     9App    0.765837    21Ap     0.792572  
      10App    0.824339    22Ap     0.840766    23Ap     0.847928  
      24Ap     0.880229    25Ap     0.923408    11App    0.927708  
      26Ap     1.030158    12App    1.036001    27Ap     1.062724  
      13App    1.099807    28Ap     1.101979    29Ap     1.112681  
      30Ap     1.156306    14App    1.331916    31Ap     1.340794  
      32Ap     1.377064    33Ap     1.446828    15App    1.455564  
      34Ap     1.523541    35Ap     1.576421    16App    1.620270  
      36Ap     1.720052    17App    1.793632    37Ap     1.793826  
[...]
     112A      4.454717   113A      4.698600   114A      4.702787  
     115A      4.900794   116A      5.106314   117A      5.365813  
     118A      5.445792   119A      5.467357   120A      5.560308  
     121A      5.582353   122A      5.686357   123A      5.702408  
     124A      5.814843   125A      5.910931   126A      5.915805  
     127A      6.038864   128A      6.049977   129A      6.128917  
     130A      6.146119   131A      6.155422   132A      6.171511  
     133A      6.208717   134A      6.222331   135A      6.251563  
     136A      6.262608   137A      6.283151   138A      6.298359  
     139A      6.409712   140A      6.425091   141A      6.434784  
     142A      6.697320   143A      6.759169   144A      6.805872  
     145A      6.846166   146A      6.861006   147A      6.876068  
     148A      6.918944   149A      7.001671   150A      7.120469  
     151A      7.201559   152A      7.293072   153A      7.310753  
     154A      7.382319   155A      7.425272   156A      7.470258  
     157A      7.499825   158A      7.567724   159A      7.618388  
     160A      7.691712   161A      7.714945   162A      7.717612  
     163A      7.815704   164A      7.874043   165A      7.888697  
     166A      7.931036   167A      7.986863   168A      8.010715  
     169A      8.044297   170A      8.061300   171A      8.140746  
     172A      8.211151   173A      8.280868   174A      8.339025  
     175A      8.389129   176A      8.419627   177A      8.461936  
     178A      8.483499   179A      8.504558   180A      8.586176  
     181A      8.596954   182A      8.650066   183A      8.681660  
     184A      8.709454   185A      8.864661   186A      8.896432  
     187A      8.943543   188A      8.996287   189A      9.006691  
     190A      9.082623   191A      9.157683   192A      9.475619  
     193A      9.500949   194A      9.723489   195A      9.764391  
     196A      9.836298   197A      9.883434   198A      9.994954  
     199A     10.025947   200A     10.053082   201A     10.103398  
     202A     10.187189   203A     10.210936   204A     10.348810  
     205A     10.367890   206A     10.519436   207A     10.663126  
     208A     10.676324   209A     10.881262   210A     11.049699  
     211A     11.118214   212A     11.208383   213A     11.479512  
     214A     11.515642   215A     11.575262   216A     11.892336  
     217A     11.910787   218A     12.073219   219A     12.228916  
     220A     12.370215   221A     12.483505   222A     12.504570  
     223A     12.677927   224A     12.997394   225A     14.001081  
     226A     14.015548   227A     14.192204   228A     16.214288  
     229A     25.812079   230A     42.637154  

    Final Occupation by Irrep:
              A 
    DOCC [     9 ]

  @DF-RKS Final Energy:  -115.73710230886003

   => Energetics <=

    Nuclear Repulsion Energy =             40.3382542062000624
    One-Electron Energy =                -237.0268800731254828
    Two-Electron Energy =                  91.5949537841804187
    DFT Exchange-Correlation Energy =     -10.7170585583434068
    Empirical Dispersion Energy =           0.0000000000000000
    VV10 Nonlocal Energy =                  0.0736283322283696
    Total Energy =                       -115.7371023088600310

Computation Completed


Properties will be evaluated at   0.000000,   0.000000,   0.000000 [a0]

Properties computed using the SCF density matrix

  Nuclear Dipole Moment: [e a0]
     X:     0.6680      Y:     2.1807      Z:    -0.0030

  Electronic Dipole Moment: [e a0]
     X:    -0.1339      Y:    -1.8081      Z:     0.0032

  Dipole Moment: [e a0]
     X:     0.5341      Y:     0.3726      Z:     0.0002     Total:     0.6512

  Dipole Moment: [D]
     X:     1.3575      Y:     0.9472      Z:     0.0006     Total:     1.6553


*** tstop() called on bp1-compute00047.data.bp.acrc.priv at Tue Apr 27 17:26:03 2021
Module time:
	user time   =     196.02 seconds =       3.27 minutes
	system time =       3.42 seconds =       0.06 minutes
	total time  =          9 seconds =       0.15 minutes
Total time:
	user time   =   26913.69 seconds =     448.56 minutes
	system time =     575.26 seconds =       9.59 minutes
	total time  =       1199 seconds =      19.98 minutes

         ----------------------------------------------------------
                                   FINDIF
                     R. A. King and Jonathon Misiewicz
         ---------------------------------------------------------

  Computing second-derivative from energies using projected, 
  symmetry-adapted, cartesian coordinates.

  89 energies passed in, including the reference geometry.
    Using 3-point formula.
    Energy without displacement: -115.7371075797
    Check energies below for precision!
    0: -1          :      -115.7371058114
    0: 1           :      -115.7371054367
    1: -1          :      -115.7371072877
    1: 1           :      -115.7371062423
    2: -1          :      -115.7371035381
    2: 1           :      -115.7371042123
    3: -1          :      -115.7371061467
    3: 1           :      -115.7371067103
    4: -1          :      -115.7371065396
    4: 1           :      -115.7371062325
    5: -1          :      -115.7371063922
    5: 1           :      -115.7371066337
    6: -1          :      -115.7371049405
    6: 1           :      -115.7371037846
    7: -1          :      -115.7371002660
    7: 1           :      -115.7371005632
    0: 1, 1: 1     :      -115.7371040172
    0: -1, 1: -1   :      -115.7371054465
    0: 1, 2: 1     :      -115.7371046925
    0: -1, 2: -1   :      -115.7371043683
    1: 1, 2: 1     :      -115.7371022066
    1: -1, 2: -1   :      -115.7371025877
    0: 1, 3: 1     :      -115.7371032994
    0: -1, 3: -1   :      -115.7371030948
    1: 1, 3: 1     :      -115.7371055559
    1: -1, 3: -1   :      -115.7371060362
    2: 1, 3: 1     :      -115.7371045537
    2: -1, 3: -1   :      -115.7371032918
    0: 1, 4: 1     :      -115.7371046016
    0: -1, 4: -1   :      -115.7371052860
    1: 1, 4: 1     :      -115.7371054831
    1: -1, 4: -1   :      -115.7371068354
    2: 1, 4: 1     :      -115.7371032823
    2: -1, 4: -1   :      -115.7371029161
    3: 1, 4: 1     :      -115.7371058870
    3: -1, 4: -1   :      -115.7371056304
    0: 1, 5: 1     :      -115.7371052951
    0: -1, 5: -1   :      -115.7371054281
    1: 1, 5: 1     :      -115.7371059136
    1: -1, 5: -1   :      -115.7371067157
    2: 1, 5: 1     :      -115.7371035786
    2: -1, 5: -1   :      -115.7371026628
    3: 1, 5: 1     :      -115.7371058404
    3: -1, 5: -1   :      -115.7371050351
    4: 1, 5: 1     :      -115.7371044581
    4: -1, 5: -1   :      -115.7371045211
    0: 1, 6: 1     :      -115.7371033132
    0: -1, 6: -1   :      -115.7371048611
    1: 1, 6: 1     :      -115.7371033735
    1: -1, 6: -1   :      -115.7371055859
    2: 1, 6: 1     :      -115.7371011987
    2: -1, 6: -1   :      -115.7371016883
    3: 1, 6: 1     :      -115.7371035983
    3: -1, 6: -1   :      -115.7371041972
    4: 1, 6: 1     :      -115.7371008144
    4: -1, 6: -1   :      -115.7371022496
    5: 1, 6: 1     :      -115.7371013626
    5: -1, 6: -1   :      -115.7371022544
    0: 1, 7: 1     :      -115.7370983094
    0: -1, 7: -1   :      -115.7370983861
    1: 1, 7: 1     :      -115.7370991573
    1: -1, 7: -1   :      -115.7370999064
    2: 1, 7: 1     :      -115.7370972118
    2: -1, 7: -1   :      -115.7370962394
    3: 1, 7: 1     :      -115.7370996520
    3: -1, 7: -1   :      -115.7370987908
    4: 1, 7: 1     :      -115.7370990447
    4: -1, 7: -1   :      -115.7370990365
    5: 1, 7: 1     :      -115.7370996540
    5: -1, 7: -1   :      -115.7370991064
    6: 1, 7: 1     :      -115.7370967723
    6: -1, 7: -1   :      -115.7370976311
    8: -1          :      -115.7371056955
    9: -1          :      -115.7371062403
    10: -1         :      -115.7371065955
    11: -1         :      -115.7371055599
    8: 1, 9: 1     :      -115.7371030338
    8: -1, 9: -1   :      -115.7371030340
    8: 1, 10: 1    :      -115.7371065191
    8: -1, 10: -1  :      -115.7371065188
    9: 1, 10: 1    :      -115.7371071208
    9: -1, 10: -1  :      -115.7371071206
    8: 1, 11: 1    :      -115.7371063123
    8: -1, 11: -1  :      -115.7371063124
    9: 1, 11: 1    :      -115.7371054913
    9: -1, 11: -1  :      -115.7371054913
    10: 1, 11: 1   :      -115.7371023091
    10: -1, 11: -1 :      -115.7371023089

-------------------------------------------------------------


  ==> Harmonic Vibrational Analysis <==

  non-mass-weighted Hessian:       Symmetric? True   Hermitian? True   Lin Dep Dim?  6 (0)
  projection of translations (True) and rotations (True) removed 6 degrees of freedom (6)
  total projector:                 Symmetric? True   Hermitian? True   Lin Dep Dim?  6 (6)
  mass-weighted Hessian:           Symmetric? True   Hermitian? True   Lin Dep Dim?  6 (0)
  pre-proj  low-frequency mode:    0.0000i [cm^-1]
  pre-proj  low-frequency mode:    0.0000i [cm^-1]
  pre-proj  low-frequency mode:    0.0000i [cm^-1]
  pre-proj  low-frequency mode:    0.0000i [cm^-1]
  pre-proj  low-frequency mode:    0.0000  [cm^-1]
  pre-proj  low-frequency mode:    0.0000  [cm^-1]
  pre-proj  all modes:['0.0000i' '0.0000i' '0.0000i' '0.0000i' '0.0000' '0.0000' '289.6941'
 '1068.9039' '1100.6793' '1179.6890' '1377.5201' '1486.3639' '1501.4961'
 '1514.2784' '3017.7957' '3071.5753' '3135.9378' '3892.5202']
  projected mass-weighted Hessian: Symmetric? True   Hermitian? True   Lin Dep Dim?  6 (6)
  post-proj low-frequency mode:    0.0000  [cm^-1] (TR)
  post-proj low-frequency mode:    0.0000  [cm^-1] (TR)
  post-proj low-frequency mode:    0.0000  [cm^-1] (TR)
  post-proj low-frequency mode:    0.0000  [cm^-1] (TR)
  post-proj low-frequency mode:    0.0000  [cm^-1] (TR)
  post-proj low-frequency mode:    0.0001  [cm^-1] (TR)
  post-proj  all modes:['0.0000' '0.0000' '0.0000' '0.0000' '0.0000' '0.0001' '289.6941'
 '1068.9039' '1100.6793' '1179.6890' '1377.5201' '1486.3639' '1501.4961'
 '1514.2784' '3017.7957' '3071.5753' '3135.9378' '3892.5202']

  Vibration                       7                   8                   9           
  Freq [cm^-1]                 289.6941           1068.9039           1100.6793       
  Irrep                          App                  Ap                  Ap          
  Reduced mass [u]              1.0704              1.3719              3.0017        
  Force const [mDyne/A]         0.0529              0.9236              2.1426        
  Turning point v=0 [a0]        0.6231              0.2865              0.1909        
  RMS dev v=0 [a0 u^1/2]        0.4559              0.2373              0.2339        
  Char temp [K]                416.8053           1537.9147           1583.6324       
  ----------------------------------------------------------------------------------
      1   C                0.00  0.00  0.00   -0.07  0.09  0.00    0.06  0.31 -0.00   
      2   H                0.00  0.00  0.30    0.09  0.62 -0.00   -0.10 -0.23  0.00   
      3   H                0.22 -0.04 -0.10    0.23 -0.19 -0.04   -0.18  0.45  0.04   
      4   H               -0.22  0.04 -0.10    0.23 -0.19  0.04   -0.18  0.45 -0.04   
      5   O                0.00  0.00 -0.06    0.01 -0.12 -0.00   -0.01 -0.24  0.00   
      6   H                0.00  0.00  0.89    0.24  0.58 -0.00   -0.09 -0.54  0.00   

  Vibration                       10                  11                  12          
  Freq [cm^-1]                1179.6890           1377.5201           1486.3639       
  Irrep                          App                  Ap                  Ap          
  Reduced mass [u]              1.2710              1.2894              1.1442        
  Force const [mDyne/A]         1.0422              1.4416              1.4893        
  Turning point v=0 [a0]        0.2834              0.2604              0.2661        
  RMS dev v=0 [a0 u^1/2]        0.2259              0.2090              0.2012        
  Char temp [K]               1697.3098           1981.9447           2138.5468       
  ----------------------------------------------------------------------------------
      1   C                0.00  0.00  0.14    0.12 -0.02  0.00    0.02 -0.11 -0.00   
      2   H               -0.00 -0.00 -0.28    0.01 -0.42 -0.00    0.22  0.62  0.00   
      3   H                0.05  0.64 -0.19   -0.21  0.14  0.11   -0.26  0.45 -0.09   
      4   H               -0.05 -0.64 -0.19   -0.21  0.14 -0.11   -0.26  0.45  0.09   
      5   O               -0.00 -0.00 -0.06   -0.08 -0.03  0.00    0.00 -0.01 -0.00   
      6   H               -0.00 -0.00 -0.00    0.20  0.78  0.00    0.00 -0.02 -0.00   

  Vibration                       13                  14                  15          
  Freq [cm^-1]                1501.4961           1514.2784           3017.7957       
  Irrep                          App                  Ap                  Ap          
  Reduced mass [u]              1.0460              1.0449              1.0353        
  Force const [mDyne/A]         1.3894              1.4116              5.5552        
  Turning point v=0 [a0]        0.2769              0.2759              0.1963        
  RMS dev v=0 [a0 u^1/2]        0.2002              0.1994              0.1412        
  Char temp [K]               2160.3185           2178.7094           4341.9360       
  ----------------------------------------------------------------------------------
      1   C               -0.00 -0.00 -0.06   -0.04 -0.03  0.00   -0.02 -0.04 -0.00   
      2   H               -0.00 -0.00  0.72   -0.09 -0.27 -0.00   -0.30  0.08  0.00   
      3   H               -0.40  0.28  0.06    0.42  0.34 -0.40    0.29  0.24  0.56   
      4   H                0.40 -0.28  0.06    0.42  0.34  0.40    0.29  0.24 -0.56   
      5   O               -0.00 -0.00 -0.01   -0.02 -0.01  0.00    0.00 -0.00  0.00   
      6   H                0.00  0.00 -0.01    0.02  0.11  0.00    0.00 -0.00 -0.00   

  Vibration                       16                  17                  18          
  Freq [cm^-1]                3071.5753           3135.9378           3892.5202       
  Irrep                          App                  Ap                  Ap          
  Reduced mass [u]              1.1059              1.0993              1.0666        
  Force const [mDyne/A]         6.1473              6.3695              9.5215        
  Turning point v=0 [a0]        0.1883              0.1869              0.1703        
  RMS dev v=0 [a0 u^1/2]        0.1400              0.1386              0.1244        
  Char temp [K]               4419.3129           4511.9163           5600.4700       
  ----------------------------------------------------------------------------------
      1   C                0.00  0.00 -0.09   -0.09  0.01 -0.00   -0.00 -0.00  0.00   
      2   H               -0.00  0.00 -0.02    0.92 -0.26 -0.00    0.01 -0.00  0.00   
      3   H                0.32  0.25  0.57    0.08  0.07  0.18    0.00 -0.00  0.00   
      4   H               -0.32 -0.25  0.57    0.08  0.07 -0.18    0.00 -0.00 -0.00   
      5   O               -0.00 -0.00  0.00    0.00  0.00  0.00   -0.06  0.02 -0.00   
      6   H               -0.00  0.00  0.00   -0.02 -0.00  0.00    0.94 -0.32  0.00   

  ==> Thermochemistry Components <==

  Entropy, S
    Electronic S            0.000 [cal/(mol K)]        0.000 [J/(mol K)]       0.00000000 [mEh/K] (multiplicity = 1)
    Translational S        36.324 [cal/(mol K)]      151.980 [J/(mol K)]       0.05788598 [mEh/K] (mol. weight = 32.0262 [u], P = 101325.00 [Pa])
    Rotational S           18.980 [cal/(mol K)]       79.413 [J/(mol K)]       0.03024672 [mEh/K] (symmetry no. = 1)
    Vibrational S           1.709 [cal/(mol K)]        7.149 [J/(mol K)]       0.00272292 [mEh/K]
  Total S                  57.013 [cal/(mol K)]      238.541 [J/(mol K)]       0.09085563 [mEh/K]
  Correction S              0.000 [cal/(mol K)]        0.000 [J/(mol K)]       0.00000000 [mEh/K]

  Constant volume heat capacity, Cv
    Electronic Cv           0.000 [cal/(mol K)]        0.000 [J/(mol K)]       0.00000000 [mEh/K]
    Translational Cv        2.981 [cal/(mol K)]       12.472 [J/(mol K)]       0.00475022 [mEh/K]
    Rotational Cv           2.981 [cal/(mol K)]       12.472 [J/(mol K)]       0.00475022 [mEh/K]
    Vibrational Cv          2.837 [cal/(mol K)]       11.872 [J/(mol K)]       0.00452182 [mEh/K]
  Total Cv                  8.799 [cal/(mol K)]       36.815 [J/(mol K)]       0.01402225 [mEh/K]
  Correction Cv             0.000 [cal/(mol K)]        0.000 [J/(mol K)]       0.00000000 [mEh/K]

  Constant pressure heat capacity, Cp
    Electronic Cp           0.000 [cal/(mol K)]        0.000 [J/(mol K)]       0.00000000 [mEh/K]
    Translational Cp        4.968 [cal/(mol K)]       20.786 [J/(mol K)]       0.00791703 [mEh/K]
    Rotational Cp           2.981 [cal/(mol K)]       12.472 [J/(mol K)]       0.00475022 [mEh/K]
    Vibrational Cp          2.837 [cal/(mol K)]       11.872 [J/(mol K)]       0.00452182 [mEh/K]
  Total Cp                 10.786 [cal/(mol K)]       45.130 [J/(mol K)]       0.01718906 [mEh/K]
  Correction Cp             0.000 [cal/(mol K)]        0.000 [J/(mol K)]       0.00000000 [mEh/K]

  ==> Thermochemistry Energy Analysis <==

  Raw electronic energy, E0
  Total E0, Electronic energy at well bottom at 0 [K]                 -115.73710758 [Eh]

  Zero-point energy, ZPE_vib = Sum_i nu_i / 2
    Electronic ZPE          0.000 [kcal/mol]        0.000 [kJ/mol]       0.00000000 [Eh]
    Translational ZPE       0.000 [kcal/mol]        0.000 [kJ/mol]       0.00000000 [Eh]
    Rotational ZPE          0.000 [kcal/mol]        0.000 [kJ/mol]       0.00000000 [Eh]
    Vibrational ZPE        32.360 [kcal/mol]      135.396 [kJ/mol]       0.05156964 [Eh]       11318.227 [cm^-1]
  Correction ZPE           32.360 [kcal/mol]      135.396 [kJ/mol]       0.05156964 [Eh]       11318.227 [cm^-1]
  Total ZPE, Electronic energy at 0 [K]                               -115.68553794 [Eh]

  Thermal Energy, E (includes ZPE)
    Electronic E            0.000 [kcal/mol]        0.000 [kJ/mol]       0.00000000 [Eh]
    Translational E         0.889 [kcal/mol]        3.718 [kJ/mol]       0.00141628 [Eh]
    Rotational E            0.889 [kcal/mol]        3.718 [kJ/mol]       0.00141628 [Eh]
    Vibrational E          32.691 [kcal/mol]      136.780 [kJ/mol]       0.05209693 [Eh]
  Correction E             34.469 [kcal/mol]      144.217 [kJ/mol]       0.05492949 [Eh]
  Total E, Electronic energy at  298.15 [K]                           -115.68217809 [Eh]

  Enthalpy, H_trans = E_trans + k_B * T
    Electronic H            0.000 [kcal/mol]        0.000 [kJ/mol]       0.00000000 [Eh]
    Translational H         1.481 [kcal/mol]        6.197 [kJ/mol]       0.00236046 [Eh]
    Rotational H            0.889 [kcal/mol]        3.718 [kJ/mol]       0.00141628 [Eh]
    Vibrational H          32.691 [kcal/mol]      136.780 [kJ/mol]       0.05209693 [Eh]
  Correction H             35.061 [kcal/mol]      146.696 [kJ/mol]       0.05587367 [Eh]
  Total H, Enthalpy at  298.15 [K]                                    -115.68123391 [Eh]

  Gibbs free energy, G = H - T * S
    Electronic G            0.000 [kcal/mol]        0.000 [kJ/mol]       0.00000000 [Eh]
    Translational G        -9.349 [kcal/mol]      -39.115 [kJ/mol]      -0.01489824 [Eh]
    Rotational G           -4.770 [kcal/mol]      -19.958 [kJ/mol]      -0.00760178 [Eh]
    Vibrational G          32.182 [kcal/mol]      134.649 [kJ/mol]       0.05128509 [Eh]
  Correction G             18.063 [kcal/mol]       75.575 [kJ/mol]       0.02878507 [Eh]
  Total G, Free enthalpy at  298.15 [K]                               -115.70832251 [Eh]

    Psi4 stopped on: Tuesday, 27 April 2021 05:26PM
    Psi4 wall time for execution: 0:19:59.64

*** Psi4 exiting successfully. Buy a developer a beer!
