
    -----------------------------------------------------------------------
          Psi4: An Open-Source Ab Initio Electronic Structure Package
                               Psi4 1.3.2 release

                         Git: Rev {HEAD} ecbda83 


    R. M. Parrish, L. A. Burns, D. G. A. Smith, A. C. Simmonett,
    A. E. DePrince III, E. G. Hohenstein, U. Bozkaya, A. Yu. Sokolov,
    R. Di Remigio, R. M. Richard, J. F. Gonthier, A. M. James,
    H. R. McAlexander, A. Kumar, M. Saitow, X. Wang, B. P. Pritchard,
    P. Verma, H. F. Schaefer III, K. Patkowski, R. A. King, E. F. Valeev,
    F. A. Evangelista, J. M. Turney, T. D. Crawford, and C. D. Sherrill,
    J. Chem. Theory Comput. 13(7) pp 3185--3197 (2017).
    (doi: 10.1021/acs.jctc.7b00174)


                         Additional Contributions by
    P. Kraus, H. Kruse, M. H. Lechner, M. C. Schieber, R. A. Shaw,
    A. Alenaizan, R. Galvelis, Z. L. Glick, S. Lehtola, and J. P. Misiewicz

    -----------------------------------------------------------------------


    Psi4 started on: Tuesday, 27 April 2021 05:06PM

    Process ID: 138340
    Host:       bp1-compute00113.data.bp.acrc.priv
    PSIDATADIR: /work/zw18965/.conda/envs/p4env/share/psi4
    Memory:     500.0 MiB
    Threads:    24
    
  ==> Input File <==

--------------------------------------------------------------------------
memory 144 GB

molecule {
0 3
S 0.0000000000 0.0000000000 0.0000000000
S 0.0000000000 0.0000000000 1.8968845900
}

set reference uks
set dynamic_level 1
set basis cc-pV(Q+d)Z
 
optimize("wB97X-V")
frequencies("wB97X-V")
--------------------------------------------------------------------------

  Memory set to 134.110 GiB by Python driver.
gradient() will perform gradient computation by finite difference of analytic energies.

         ----------------------------------------------------------
                                   FINDIF
                     R. A. King and Jonathon Misiewicz
         ---------------------------------------------------------

  Using finite-differences of energies to determine gradients.
    Generating geometries for use with 3-point formula.
    Displacement size will be 5.00e-03.
    Number of atoms is 2.
    Number of symmetric SALCs is 1.
    Translations projected? 1. Rotations projected? 1.
    Number of geometries (including reference) is 3.

  //>>>>>>>>>>>>>>>>>>>>>>>>>>>>>>>>>>>//
  //    Loading displacement 1 of 3    //
  //<<<<<<<<<<<<<<<<<<<<<<<<<<<<<<<<<<<//

*** tstart() called on bp1-compute00113.data.bp.acrc.priv
*** at Tue Apr 27 17:06:25 2021

   => Loading Basis Set <=

    Name: CC-PV(Q+D)Z
    Role: ORBITAL
    Keyword: BASIS
    atoms 1-2 entry S          line   978 file /work/zw18965/.conda/envs/p4env/share/psi4/basis/cc-pv_qpd_z.gbs 


         ---------------------------------------------------------
                                   SCF
               by Justin Turney, Rob Parrish, Andy Simmonett
                          and Daniel G. A. Smith
                              UKS Reference
                       24 Threads, 137329 MiB Core
         ---------------------------------------------------------

  ==> Geometry <==

    Molecular point group: d2h
    Full point group: D_inf_h

    Geometry (in Angstrom), charge = 0, multiplicity = 3:

       Center              X                  Y                   Z               Mass       
    ------------   -----------------  -----------------  -----------------  -----------------
         S            0.000000000000     0.000000000000    -0.948442295000    31.972071174400
         S            0.000000000000     0.000000000000     0.948442295000    31.972071174400

  Running in d2h symmetry.

  Rotational constants: A = ************  B =      0.29307  C =      0.29307 [cm^-1]
  Rotational constants: A = ************  B =   8786.06895  C =   8786.06895 [MHz]
  Nuclear repulsion =   71.416767601828639

  Charge       = 0
  Multiplicity = 3
  Electrons    = 32
  Nalpha       = 17
  Nbeta        = 15

  ==> Algorithm <==

  SCF Algorithm Type is DF.
  DIIS enabled.
  MOM disabled.
  Fractional occupation disabled.
  Guess Type is SAD.
  Energy threshold   = 1.00e-08
  Density threshold  = 1.00e-08
  Integral threshold = 0.00e+00

  ==> Primary Basis <==

  Basis Set: CC-PV(Q+D)Z
    Blend: CC-PV(Q+D)Z
    Number of shells: 36
    Number of basis function: 128
    Number of Cartesian functions: 160
    Spherical Harmonics?: true
    Max angular momentum: 4

  ==> DFT Potential <==

   => Composite Functional: WB97X-V <= 

    wB97X-V Hyb-GGA Exchange-Correlation Functional

    N. Mardirossian and M. Head-Gordon, Phys. Chem. Chem. Phys. 16, 9904 (2014)

    Deriv               =              1
    GGA                 =           TRUE
    Meta                =          FALSE

    Exchange Hybrid     =           TRUE
    MP2 Hybrid          =          FALSE

   => Exchange-Correlation Functionals <=

    1.0000   wB97X-V range-separated functional

   => Exact (HF) Exchange <=

    0.8330            HF,LR [omega = 0.3000]
    0.1670               HF 

   => VV10 Non-Local Parameters <=

    VV10 B              =     6.0000E+00
    VV10 C              =     1.0000E-02

   => Molecular Quadrature <=

    Radial Scheme          =       TREUTLER
    Pruning Scheme         =           FLAT
    Nuclear Scheme         =       TREUTLER

    BS radius alpha        =              1
    Pruning alpha          =              1
    Radial Points          =             75
    Spherical Points       =            302
    Total Points           =          43136
    Total Blocks           =            402
    Max Points             =            256
    Max Functions          =            128

   => Loading Basis Set <=

    Name: (CC-PV(Q+D)Z AUX)
    Role: JKFIT
    Keyword: DF_BASIS_SCF
    atoms 1-2 entry S          line   673 file /work/zw18965/.conda/envs/p4env/share/psi4/basis/cc-pvqz-jkfit.gbs 

  ==> Pre-Iterations <==

   -------------------------------------------------------
    Irrep   Nso     Nmo     Nalpha   Nbeta   Ndocc  Nsocc
   -------------------------------------------------------
     Ag        26      26       0       0       0       0
     B1g        8       8       0       0       0       0
     B2g       15      15       0       0       0       0
     B3g       15      15       0       0       0       0
     Au         8       8       0       0       0       0
     B1u       26      26       0       0       0       0
     B2u       15      15       0       0       0       0
     B3u       15      15       0       0       0       0
   -------------------------------------------------------
    Total     128     128      17      15      15       2
   -------------------------------------------------------

  ==> Integral Setup <==

  ==> DiskDFJK: Density-Fitted J/K Matrices <==

    J tasked:                  Yes
    K tasked:                  Yes
    wK tasked:                 Yes
    Omega:               3.000E-01
    OpenMP threads:             24
    Integrals threads:          24
    Memory [MiB]:           102851
    Algorithm:                Core
    Integral Cache:           NONE
    Schwarz Cutoff:          1E-12
    Fitting Condition:       1E-10

   => Auxiliary Basis Set <=

  Basis Set: (CC-PV(Q+D)Z AUX)
    Blend: CC-PVQZ-JKFIT
    Number of shells: 80
    Number of basis function: 296
    Number of Cartesian functions: 382
    Spherical Harmonics?: true
    Max angular momentum: 5

  Cached 100.0% of DFT collocation blocks in 0.142 [GiB].

  Minimum eigenvalue in the overlap matrix is 3.2253773570E-04.
  Using Symmetric Orthogonalization.

  SCF Guess: Superposition of Atomic Densities via on-the-fly atomic UHF.

  ==> Iterations <==

                           Total Energy        Delta E     RMS |[F,P]|

   @DF-UKS iter SAD:  -795.92329888010352   -7.95923e+02   0.00000e+00 
   @DF-UKS iter   1:  -796.26713423091030   -3.43835e-01   5.16437e-03 DIIS
   @DF-UKS iter   2:  -796.28225326346103   -1.51190e-02   1.77380e-03 DIIS
   @DF-UKS iter   3:  -796.28379372876509   -1.54047e-03   2.43210e-04 DIIS
   @DF-UKS iter   4:  -796.28401695975049   -2.23231e-04   5.74385e-05 DIIS
   @DF-UKS iter   5:  -796.28402844502000   -1.14853e-05   1.85265e-05 DIIS
   @DF-UKS iter   6:  -796.28402896197088   -5.16951e-07   4.66376e-06 DIIS
   @DF-UKS iter   7:  -796.28402900420008   -4.22292e-08   6.68296e-07 DIIS
   @DF-UKS iter   8:  -796.28402900600418   -1.80410e-09   9.42814e-08 DIIS
   @DF-UKS iter   9:  -796.28402900603737   -3.31966e-11   1.21653e-08 DIIS
   @DF-UKS iter  10:  -796.28402900603805   -6.82121e-13   2.26512e-09 DIIS
  Energy and wave function converged.


  ==> Post-Iterations <==

   @Spin Contamination Metric:   1.528882166E-02
   @S^2 Expected:                2.000000000E+00
   @S^2 Observed:                2.015288822E+00
   @S   Expected:                1.000000000E+00
   @S   Observed:                1.000000000E+00

    Orbital Energies [Eh]
    ---------------------

    Alpha Occupied:                                                       

       1B1u  -88.945802     1Ag   -88.945798     2Ag    -8.098244  
       2B1u   -8.098067     1B3u   -6.053319     1B2u   -6.053319  
       1B2g   -6.053273     1B3g   -6.053273     3Ag    -6.052806  
       3B1u   -6.052026     4Ag    -0.970907     4B1u   -0.757487  
       5Ag    -0.500883     2B3u   -0.488982     2B2u   -0.488982  
       2B3g   -0.344360     2B2g   -0.344360  

    Alpha Virtual:                                                        

       5B1u    0.070814     6Ag     0.206809     6B1u    0.219450  
       3B2u    0.235558     3B3u    0.235558     7Ag     0.261456  
       8Ag     0.270410     1B1g    0.270410     3B3g    0.307919  
       3B2g    0.307919     4B2u    0.308101     4B3u    0.308101  
       7B1u    0.403348     1Au     0.403350     8B1u    0.483934  
       9Ag     0.557452     4B3g    0.606222     4B2g    0.606222  
       9B1u    0.731553     5B2u    0.921644     5B3u    0.921644  
      10Ag     0.943704     2B1g    0.976336    11Ag     0.976336  
       6B3u    1.044769     6B2u    1.044769    12Ag     1.048849  
       3B1g    1.048852    10B1u    1.052421     2Au     1.052424  
       5B3g    1.151310     5B2g    1.151310    11B1u    1.188108  
      13Ag     1.198448     6B2g    1.201249     6B3g    1.201249  
       7B2u    1.282550     7B3u    1.282550     7B3g    1.304565  
       7B2g    1.304565     8B3u    1.389201     8B2u    1.389201  
      12B1u    1.463882     3Au     1.463890    13B1u    1.476472  
      14B1u    1.716002    14Ag     1.754015     8B3g    1.886726  
       8B2g    1.886726    15Ag     2.023266    15B1u    2.429241  
      16Ag     2.615346     4B1g    2.615354     9B2u    2.685664  
       9B3u    2.685664    17Ag     2.735592    16B1u    2.737939  
       4Au     2.737954    10B3u    2.812650    10B2u    2.812650  
      18Ag     2.829170     5B1g    2.829172    11B3u    2.850951  
      11B2u    2.850951     9B3g    2.890791     9B2g    2.890791  
      19Ag     2.994580     6B1g    2.994605    17B1u    3.062504  
       5Au     3.062530    20Ag     3.106182    12B3u    3.183138  
      12B2u    3.183138    10B2g    3.194110    10B3g    3.194110  
       7B1g    3.265232    21Ag     3.265234    18B1u    3.297709  
      11B2g    3.316301    11B3g    3.316301     6Au     3.334598  
      19B1u    3.334601    12B3g    3.498316    12B2g    3.498316  
      20B1u    3.557224    13B3u    3.734704    13B2u    3.734704  
       7Au     3.806410    21B1u    3.806412    22Ag     3.918634  
      13B3g    4.544279    13B2g    4.544279    22B1u    4.581255  
      14B2u    5.231600    14B3u    5.231600    14B3g    5.369934  
      14B2g    5.369934    23Ag     5.920895    23B1u    6.597996  
       8B1g    8.662374    24Ag     8.662427     8Au     8.723224  
      24B1u    8.723276    15B2u    8.727048    15B3u    8.727048  
      15B3g    8.970889    15B2g    8.970889    25B1u    9.093658  
      25Ag     9.135868    26Ag    16.874552    26B1u   19.249379  

    Beta Occupied:                                                        

       1B1u  -88.940320     1Ag   -88.940318     2Ag    -8.093014  
       2B1u   -8.092761     3Ag    -6.049358     3B1u   -6.048567  
       1B3u   -6.042137     1B2u   -6.042137     1B2g   -6.042072  
       1B3g   -6.042072     4Ag    -0.941496     4B1u   -0.689568  
       5Ag    -0.476561     2B2u   -0.425814     2B3u   -0.425814  

    Beta Virtual:                                                         

       2B3g   -0.056458     2B2g   -0.056458     5B1u    0.084720  
       6Ag     0.209848     6B1u    0.229816     3B2u    0.241556  
       3B3u    0.241556     7Ag     0.266789     8Ag     0.290498  
       1B1g    0.290498     3B3g    0.322798     3B2g    0.322798  
       4B2u    0.341226     4B3u    0.341226     7B1u    0.442603  
       1Au     0.442605     8B1u    0.495221     9Ag     0.574434  
       4B3g    0.623547     4B2g    0.623547     9B1u    0.738855  
       5B2u    0.931609     5B3u    0.931609    10Ag     0.950014  
       2B1g    0.995570    11Ag     0.995571     6B3u    1.061448  
       6B2u    1.061448    12Ag     1.071666     3B1g    1.071669  
      10B1u    1.081822     2Au     1.081825     5B3g    1.168409  
       5B2g    1.168409    11B1u    1.203894    13Ag     1.208209  
       6B2g    1.224282     6B3g    1.224282     7B2u    1.308459  
       7B3u    1.308459     7B3g    1.329261     7B2g    1.329261  
       8B2u    1.403891     8B3u    1.403891    12B1u    1.480779  
       3Au     1.480787    13B1u    1.486198    14B1u    1.730639  
      14Ag     1.775591     8B3g    1.899922     8B2g    1.899922  
      15Ag     2.032054    15B1u    2.447680    16Ag     2.635790  
       4B1g    2.635799     9B2u    2.697093     9B3u    2.697093  
      17Ag     2.750278    16B1u    2.761564     4Au     2.761581  
      10B2u    2.830807    10B3u    2.830807    18Ag     2.849517  
       5B1g    2.849519    11B3u    2.876957    11B2u    2.876957  
       9B3g    2.905875     9B2g    2.905875    19Ag     3.032574  
       6B1g    3.032601    17B1u    3.101583     5Au     3.101610  
      20Ag     3.121137    10B2g    3.226390    10B3g    3.226390  
      12B3u    3.227681    12B2u    3.227681     7B1g    3.296836  
      21Ag     3.296841    18B1u    3.310442    11B2g    3.356916  
      11B3g    3.356916     6Au     3.362616    19B1u    3.362623  
      12B3g    3.521000    12B2g    3.521000    20B1u    3.576766  
      13B2u    3.757190    13B3u    3.757190     7Au     3.830034  
      21B1u    3.830038    22Ag     3.931134    13B3g    4.559461  
      13B2g    4.559461    22B1u    4.590127    14B2u    5.254576  
      14B3u    5.254576    14B3g    5.392606    14B2g    5.392606  
      23Ag     5.927436    23B1u    6.605457     8B1g    8.676769  
      24Ag     8.676824    15B2u    8.735291    15B3u    8.735291  
       8Au     8.738231    24B1u    8.738285    15B3g    8.981122  
      15B2g    8.981122    25B1u    9.102615    25Ag     9.145307  
      26Ag    16.885263    26B1u   19.259503  

    Final Occupation by Irrep:
             Ag   B1g   B2g   B3g    Au   B1u   B2u   B3u 
    DOCC [     5,    0,    1,    1,    0,    4,    2,    2 ]
    SOCC [     0,    0,    1,    1,    0,    0,    0,    0 ]

  @DF-UKS Final Energy:  -796.28402900603805

   => Energetics <=

    Nuclear Repulsion Energy =             71.4167676018286386
    One-Electron Energy =               -1241.4139788188394959
    Two-Electron Energy =                 412.2911098980544580
    DFT Exchange-Correlation Energy =     -38.7115614195647595
    Empirical Dispersion Energy =           0.0000000000000000
    VV10 Nonlocal Energy =                  0.1336337324830872
    Total Energy =                       -796.2840290060380539

  UHF NO Occupations:
  HONO-2 :    2B3u 1.9968582
  HONO-1 :    2B2g 1.0000000
  HONO-0 :    2B3g 1.0000000
  LUNO+0 :    3B3u 0.0031418
  LUNO+1 :    3B2u 0.0031418
  LUNO+2 :    5B1u 0.0008018
  LUNO+3 :    6 Ag 0.0005342


Computation Completed


Properties will be evaluated at   0.000000,   0.000000,   0.000000 [a0]

Properties computed using the SCF density matrix

  Nuclear Dipole Moment: [e a0]
     X:     0.0000      Y:     0.0000      Z:     0.0000

  Electronic Dipole Moment: [e a0]
     X:     0.0000      Y:     0.0000      Z:     0.0000

  Dipole Moment: [e a0]
     X:     0.0000      Y:     0.0000      Z:     0.0000     Total:     0.0000

  Dipole Moment: [D]
     X:     0.0000      Y:     0.0000      Z:     0.0000     Total:     0.0000


*** tstop() called on bp1-compute00113.data.bp.acrc.priv at Tue Apr 27 17:06:32 2021
Module time:
	user time   =     144.24 seconds =       2.40 minutes
	system time =       8.83 seconds =       0.15 minutes
	total time  =          7 seconds =       0.12 minutes
Total time:
	user time   =     144.24 seconds =       2.40 minutes
	system time =       8.83 seconds =       0.15 minutes
	total time  =          7 seconds =       0.12 minutes

  //>>>>>>>>>>>>>>>>>>>>>>>>>>>>>>>>>>>//
  //    Loading displacement 2 of 3    //
  //<<<<<<<<<<<<<<<<<<<<<<<<<<<<<<<<<<<//

*** tstart() called on bp1-compute00113.data.bp.acrc.priv
*** at Tue Apr 27 17:06:32 2021

   => Loading Basis Set <=

    Name: CC-PV(Q+D)Z
    Role: ORBITAL
    Keyword: BASIS
    atoms 1-2 entry S          line   978 file /work/zw18965/.conda/envs/p4env/share/psi4/basis/cc-pv_qpd_z.gbs 


         ---------------------------------------------------------
                                   SCF
               by Justin Turney, Rob Parrish, Andy Simmonett
                          and Daniel G. A. Smith
                              UKS Reference
                       24 Threads, 137329 MiB Core
         ---------------------------------------------------------

  ==> Geometry <==

    Molecular point group: d2h
    Full point group: D_inf_h

    Geometry (in Angstrom), charge = 0, multiplicity = 3:

       Center              X                  Y                   Z               Mass       
    ------------   -----------------  -----------------  -----------------  -----------------
         S            0.000000000000     0.000000000000    -0.948773175180    31.972071174400
         S            0.000000000000     0.000000000000     0.948773175180    31.972071174400

  Running in d2h symmetry.

  Rotational constants: A = ************  B =      0.29287  C =      0.29287 [cm^-1]
  Rotational constants: A = ************  B =   8779.94182  C =   8779.94182 [MHz]
  Nuclear repulsion =   71.391861340186367

  Charge       = 0
  Multiplicity = 3
  Electrons    = 32
  Nalpha       = 17
  Nbeta        = 15

  ==> Algorithm <==

  SCF Algorithm Type is DF.
  DIIS enabled.
  MOM disabled.
  Fractional occupation disabled.
  Guess Type is SAD.
  Energy threshold   = 1.00e-08
  Density threshold  = 1.00e-08
  Integral threshold = 0.00e+00

  ==> Primary Basis <==

  Basis Set: CC-PV(Q+D)Z
    Blend: CC-PV(Q+D)Z
    Number of shells: 36
    Number of basis function: 128
    Number of Cartesian functions: 160
    Spherical Harmonics?: true
    Max angular momentum: 4

  ==> DFT Potential <==

   => Composite Functional: WB97X-V <= 

    wB97X-V Hyb-GGA Exchange-Correlation Functional

    N. Mardirossian and M. Head-Gordon, Phys. Chem. Chem. Phys. 16, 9904 (2014)

    Deriv               =              1
    GGA                 =           TRUE
    Meta                =          FALSE

    Exchange Hybrid     =           TRUE
    MP2 Hybrid          =          FALSE

   => Exchange-Correlation Functionals <=

    1.0000   wB97X-V range-separated functional

   => Exact (HF) Exchange <=

    0.8330            HF,LR [omega = 0.3000]
    0.1670               HF 

   => VV10 Non-Local Parameters <=

    VV10 B              =     6.0000E+00
    VV10 C              =     1.0000E-02

   => Molecular Quadrature <=

    Radial Scheme          =       TREUTLER
    Pruning Scheme         =           FLAT
    Nuclear Scheme         =       TREUTLER

    BS radius alpha        =              1
    Pruning alpha          =              1
    Radial Points          =             75
    Spherical Points       =            302
    Total Points           =          43136
    Total Blocks           =            402
    Max Points             =            256
    Max Functions          =            128

   => Loading Basis Set <=

    Name: (CC-PV(Q+D)Z AUX)
    Role: JKFIT
    Keyword: DF_BASIS_SCF
    atoms 1-2 entry S          line   673 file /work/zw18965/.conda/envs/p4env/share/psi4/basis/cc-pvqz-jkfit.gbs 

  ==> Pre-Iterations <==

   -------------------------------------------------------
    Irrep   Nso     Nmo     Nalpha   Nbeta   Ndocc  Nsocc
   -------------------------------------------------------
     Ag        26      26       0       0       0       0
     B1g        8       8       0       0       0       0
     B2g       15      15       0       0       0       0
     B3g       15      15       0       0       0       0
     Au         8       8       0       0       0       0
     B1u       26      26       0       0       0       0
     B2u       15      15       0       0       0       0
     B3u       15      15       0       0       0       0
   -------------------------------------------------------
    Total     128     128      17      15      15       2
   -------------------------------------------------------

  ==> Integral Setup <==

  ==> DiskDFJK: Density-Fitted J/K Matrices <==

    J tasked:                  Yes
    K tasked:                  Yes
    wK tasked:                 Yes
    Omega:               3.000E-01
    OpenMP threads:             24
    Integrals threads:          24
    Memory [MiB]:           102851
    Algorithm:                Core
    Integral Cache:           NONE
    Schwarz Cutoff:          1E-12
    Fitting Condition:       1E-10

   => Auxiliary Basis Set <=

  Basis Set: (CC-PV(Q+D)Z AUX)
    Blend: CC-PVQZ-JKFIT
    Number of shells: 80
    Number of basis function: 296
    Number of Cartesian functions: 382
    Spherical Harmonics?: true
    Max angular momentum: 5

  Cached 100.0% of DFT collocation blocks in 0.142 [GiB].

  Minimum eigenvalue in the overlap matrix is 3.2313603889E-04.
  Using Symmetric Orthogonalization.

  SCF Guess: Superposition of Atomic Densities via on-the-fly atomic UHF.

  ==> Iterations <==

                           Total Energy        Delta E     RMS |[F,P]|

   @DF-UKS iter SAD:  -795.92213767989779   -7.95922e+02   0.00000e+00 
   @DF-UKS iter   1:  -796.26712231695979   -3.44985e-01   5.16366e-03 DIIS
   @DF-UKS iter   2:  -796.28223447913274   -1.51122e-02   1.77380e-03 DIIS
   @DF-UKS iter   3:  -796.28377504314346   -1.54056e-03   2.43201e-04 DIIS
   @DF-UKS iter   4:  -796.28399823777454   -2.23195e-04   5.76933e-05 DIIS
   @DF-UKS iter   5:  -796.28400977431625   -1.15365e-05   1.87262e-05 DIIS
   @DF-UKS iter   6:  -796.28401029986696   -5.25551e-07   4.65527e-06 DIIS
   @DF-UKS iter   7:  -796.28401034232809   -4.24611e-08   6.67644e-07 DIIS
   @DF-UKS iter   8:  -796.28401034413287   -1.80478e-09   9.42841e-08 DIIS
   @DF-UKS iter   9:  -796.28401034416584   -3.29692e-11   1.21669e-08 DIIS
   @DF-UKS iter  10:  -796.28401034416606   -2.27374e-13   2.26617e-09 DIIS
  Energy and wave function converged.


  ==> Post-Iterations <==

   @Spin Contamination Metric:   1.529446795E-02
   @S^2 Expected:                2.000000000E+00
   @S^2 Observed:                2.015294468E+00
   @S   Expected:                1.000000000E+00
   @S   Observed:                1.000000000E+00

    Orbital Energies [Eh]
    ---------------------

    Alpha Occupied:                                                       

       1B1u  -88.945864     1Ag   -88.945860     2Ag    -8.098286  
       2B1u   -8.098110     1B3u   -6.053363     1B2u   -6.053363  
       1B2g   -6.053316     1B3g   -6.053316     3Ag    -6.052850  
       3B1u   -6.052074     4Ag    -0.970748     4B1u   -0.757563  
       5Ag    -0.500841     2B2u   -0.488901     2B3u   -0.488901  
       2B2g   -0.344436     2B3g   -0.344436  

    Alpha Virtual:                                                        

       5B1u    0.070656     6Ag     0.206853     6B1u    0.219395  
       3B2u    0.235605     3B3u    0.235605     7Ag     0.261457  
       8Ag     0.270446     1B1g    0.270446     3B3g    0.307906  
       3B2g    0.307906     4B2u    0.308039     4B3u    0.308039  
       7B1u    0.403289     1Au     0.403291     8B1u    0.483844  
       9Ag     0.557376     4B3g    0.606079     4B2g    0.606079  
       9B1u    0.731439     5B2u    0.921713     5B3u    0.921713  
      10Ag     0.943729     2B1g    0.976400    11Ag     0.976401  
       6B3u    1.044831     6B2u    1.044831    12Ag     1.048725  
       3B1g    1.048728    10B1u    1.052380     2Au     1.052383  
       5B3g    1.151235     5B2g    1.151235    11B1u    1.187794  
      13Ag     1.198561     6B2g    1.201169     6B3g    1.201169  
       7B2u    1.282568     7B3u    1.282568     7B3g    1.304515  
       7B2g    1.304515     8B2u    1.388864     8B3u    1.388864  
      12B1u    1.463674     3Au     1.463682    13B1u    1.476069  
      14B1u    1.716284    14Ag     1.754130     8B3g    1.886544  
       8B2g    1.886544    15Ag     2.022694    15B1u    2.429079  
      16Ag     2.615352     4B1g    2.615360     9B2u    2.685354  
       9B3u    2.685354    17Ag     2.735788    16B1u    2.737902  
       4Au     2.737917    10B2u    2.812740    10B3u    2.812740  
      18Ag     2.829213     5B1g    2.829214    11B3u    2.851145  
      11B2u    2.851145     9B3g    2.890533     9B2g    2.890533  
      19Ag     2.994663     6B1g    2.994688    17B1u    3.062425  
       5Au     3.062451    20Ag     3.105414    12B3u    3.183153  
      12B2u    3.183153    10B2g    3.193921    10B3g    3.193921  
       7B1g    3.265019    21Ag     3.265021    18B1u    3.297348  
      11B2g    3.316049    11B3g    3.316049     6Au     3.334319  
      19B1u    3.334322    12B3g    3.498147    12B2g    3.498147  
      20B1u    3.556522    13B2u    3.734127    13B3u    3.734127  
       7Au     3.805694    21B1u    3.805696    22Ag     3.917676  
      13B3g    4.543200    13B2g    4.543200    22B1u    4.582461  
      14B2u    5.231535    14B3u    5.231535    14B3g    5.369712  
      14B2g    5.369712    23Ag     5.921147    23B1u    6.594351  
       8B1g    8.662344    24Ag     8.662397     8Au     8.723158  
      24B1u    8.723210    15B2u    8.726853    15B3u    8.726853  
      15B3g    8.970629    15B2g    8.970629    25B1u    9.094096  
      25Ag     9.135233    26Ag    16.871813    26B1u   19.249171  

    Beta Occupied:                                                        

       1B1u  -88.940381     1Ag   -88.940379     2Ag    -8.093056  
       2B1u   -8.092804     3Ag    -6.049402     3B1u   -6.048615  
       1B3u   -6.042179     1B2u   -6.042179     1B2g   -6.042115  
       1B3g   -6.042115     4Ag    -0.941317     4B1u   -0.689646  
       5Ag    -0.476532     2B3u   -0.425706     2B2u   -0.425706  

    Beta Virtual:                                                         

       2B2g   -0.056541     2B3g   -0.056541     5B1u    0.084574  
       6Ag     0.209893     6B1u    0.229745     3B3u    0.241603  
       3B2u    0.241603     7Ag     0.266789     8Ag     0.290535  
       1B1g    0.290536     3B3g    0.322783     3B2g    0.322783  
       4B2u    0.341154     4B3u    0.341154     7B1u    0.442543  
       1Au     0.442545     8B1u    0.495133     9Ag     0.574360  
       4B3g    0.623409     4B2g    0.623409     9B1u    0.738744  
       5B2u    0.931681     5B3u    0.931681    10Ag     0.950044  
       2B1g    0.995644    11Ag     0.995645     6B3u    1.061513  
       6B2u    1.061513    12Ag     1.071535     3B1g    1.071538  
      10B1u    1.081782     2Au     1.081784     5B3g    1.168330  
       5B2g    1.168330    11B1u    1.203582    13Ag     1.208319  
       6B2g    1.224200     6B3g    1.224200     7B2u    1.308478  
       7B3u    1.308478     7B3g    1.329215     7B2g    1.329215  
       8B2u    1.403556     8B3u    1.403556    12B1u    1.480571  
       3Au     1.480578    13B1u    1.485798    14B1u    1.730922  
      14Ag     1.775711     8B3g    1.899740     8B2g    1.899740  
      15Ag     2.031481    15B1u    2.447514    16Ag     2.635796  
       4B1g    2.635805     9B2u    2.696784     9B3u    2.696784  
      17Ag     2.750476    16B1u    2.761528     4Au     2.761545  
      10B3u    2.830899    10B2u    2.830899    18Ag     2.849568  
       5B1g    2.849569    11B3u    2.877159    11B2u    2.877159  
       9B3g    2.905617     9B2g    2.905617    19Ag     3.032660  
       6B1g    3.032687    17B1u    3.101504     5Au     3.101532  
      20Ag     3.120354    10B2g    3.226181    10B3g    3.226181  
      12B3u    3.227697    12B2u    3.227697     7B1g    3.296623  
      21Ag     3.296628    18B1u    3.310087    11B2g    3.356686  
      11B3g    3.356686     6Au     3.362331    19B1u    3.362339  
      12B2g    3.520833    12B3g    3.520833    20B1u    3.576067  
      13B2u    3.756616    13B3u    3.756616     7Au     3.829323  
      21B1u    3.829328    22Ag     3.930196    13B3g    4.558382  
      13B2g    4.558382    22B1u    4.591326    14B2u    5.254513  
      14B3u    5.254513    14B3g    5.392387    14B2g    5.392387  
      23Ag     5.927689    23B1u    6.601813     8B1g    8.676740  
      24Ag     8.676795    15B2u    8.735095    15B3u    8.735095  
       8Au     8.738166    24B1u    8.738220    15B3g    8.980862  
      15B2g    8.980862    25B1u    9.103057    25Ag     9.144667  
      26Ag    16.882526    26B1u   19.259295  

    Final Occupation by Irrep:
             Ag   B1g   B2g   B3g    Au   B1u   B2u   B3u 
    DOCC [     5,    0,    1,    1,    0,    4,    2,    2 ]
    SOCC [     0,    0,    1,    1,    0,    0,    0,    0 ]

  @DF-UKS Final Energy:  -796.28401034416606

   => Energetics <=

    Nuclear Repulsion Energy =             71.3918613401863666
    One-Electron Energy =               -1241.3638324312196346
    Two-Electron Energy =                 412.2656230514295430
    DFT Exchange-Correlation Energy =     -38.7112969344876703
    Empirical Dispersion Energy =           0.0000000000000000
    VV10 Nonlocal Energy =                  0.1336346299251862
    Total Energy =                       -796.2840103441662905

  UHF NO Occupations:
  HONO-2 :    2B2u 1.9968568
  HONO-1 :    2B2g 1.0000000
  HONO-0 :    2B3g 1.0000000
  LUNO+0 :    3B2u 0.0031432
  LUNO+1 :    3B3u 0.0031432
  LUNO+2 :    5B1u 0.0008016
  LUNO+3 :    6 Ag 0.0005342


Computation Completed


Properties will be evaluated at   0.000000,   0.000000,   0.000000 [a0]

Properties computed using the SCF density matrix

  Nuclear Dipole Moment: [e a0]
     X:     0.0000      Y:     0.0000      Z:     0.0000

  Electronic Dipole Moment: [e a0]
     X:     0.0000      Y:     0.0000      Z:     0.0000

  Dipole Moment: [e a0]
     X:     0.0000      Y:     0.0000      Z:     0.0000     Total:     0.0000

  Dipole Moment: [D]
     X:     0.0000      Y:     0.0000      Z:     0.0000     Total:     0.0000


*** tstop() called on bp1-compute00113.data.bp.acrc.priv at Tue Apr 27 17:06:38 2021
Module time:
	user time   =     142.66 seconds =       2.38 minutes
	system time =       7.08 seconds =       0.12 minutes
	total time  =          6 seconds =       0.10 minutes
Total time:
	user time   =     287.03 seconds =       4.78 minutes
	system time =      15.93 seconds =       0.27 minutes
	total time  =         13 seconds =       0.22 minutes

  //>>>>>>>>>>>>>>>>>>>>>>>>>>>>>>>>>>>//
  //    Loading displacement 3 of 3    //
  //<<<<<<<<<<<<<<<<<<<<<<<<<<<<<<<<<<<//

*** tstart() called on bp1-compute00113.data.bp.acrc.priv
*** at Tue Apr 27 17:06:38 2021

   => Loading Basis Set <=

    Name: CC-PV(Q+D)Z
    Role: ORBITAL
    Keyword: BASIS
    atoms 1-2 entry S          line   978 file /work/zw18965/.conda/envs/p4env/share/psi4/basis/cc-pv_qpd_z.gbs 


         ---------------------------------------------------------
                                   SCF
               by Justin Turney, Rob Parrish, Andy Simmonett
                          and Daniel G. A. Smith
                              UKS Reference
                       24 Threads, 137329 MiB Core
         ---------------------------------------------------------

  ==> Geometry <==

    Molecular point group: d2h
    Full point group: D_inf_h

    Geometry (in Angstrom), charge = 0, multiplicity = 3:

       Center              X                  Y                   Z               Mass       
    ------------   -----------------  -----------------  -----------------  -----------------
         S            0.000000000000     0.000000000000    -0.948111414820    31.972071174400
         S            0.000000000000     0.000000000000     0.948111414820    31.972071174400

  Running in d2h symmetry.

  Rotational constants: A = ************  B =      0.29328  C =      0.29328 [cm^-1]
  Rotational constants: A = ************  B =   8792.20250  C =   8792.20250 [MHz]
  Nuclear repulsion =   71.441691247479170

  Charge       = 0
  Multiplicity = 3
  Electrons    = 32
  Nalpha       = 17
  Nbeta        = 15

  ==> Algorithm <==

  SCF Algorithm Type is DF.
  DIIS enabled.
  MOM disabled.
  Fractional occupation disabled.
  Guess Type is SAD.
  Energy threshold   = 1.00e-08
  Density threshold  = 1.00e-08
  Integral threshold = 0.00e+00

  ==> Primary Basis <==

  Basis Set: CC-PV(Q+D)Z
    Blend: CC-PV(Q+D)Z
    Number of shells: 36
    Number of basis function: 128
    Number of Cartesian functions: 160
    Spherical Harmonics?: true
    Max angular momentum: 4

  ==> DFT Potential <==

   => Composite Functional: WB97X-V <= 

    wB97X-V Hyb-GGA Exchange-Correlation Functional

    N. Mardirossian and M. Head-Gordon, Phys. Chem. Chem. Phys. 16, 9904 (2014)

    Deriv               =              1
    GGA                 =           TRUE
    Meta                =          FALSE

    Exchange Hybrid     =           TRUE
    MP2 Hybrid          =          FALSE

   => Exchange-Correlation Functionals <=

    1.0000   wB97X-V range-separated functional

   => Exact (HF) Exchange <=

    0.8330            HF,LR [omega = 0.3000]
    0.1670               HF 

   => VV10 Non-Local Parameters <=

    VV10 B              =     6.0000E+00
    VV10 C              =     1.0000E-02

   => Molecular Quadrature <=

    Radial Scheme          =       TREUTLER
    Pruning Scheme         =           FLAT
    Nuclear Scheme         =       TREUTLER

    BS radius alpha        =              1
    Pruning alpha          =              1
    Radial Points          =             75
    Spherical Points       =            302
    Total Points           =          43136
    Total Blocks           =            402
    Max Points             =            256
    Max Functions          =            128

   => Loading Basis Set <=

    Name: (CC-PV(Q+D)Z AUX)
    Role: JKFIT
    Keyword: DF_BASIS_SCF
    atoms 1-2 entry S          line   673 file /work/zw18965/.conda/envs/p4env/share/psi4/basis/cc-pvqz-jkfit.gbs 

  ==> Pre-Iterations <==

   -------------------------------------------------------
    Irrep   Nso     Nmo     Nalpha   Nbeta   Ndocc  Nsocc
   -------------------------------------------------------
     Ag        26      26       0       0       0       0
     B1g        8       8       0       0       0       0
     B2g       15      15       0       0       0       0
     B3g       15      15       0       0       0       0
     Au         8       8       0       0       0       0
     B1u       26      26       0       0       0       0
     B2u       15      15       0       0       0       0
     B3u       15      15       0       0       0       0
   -------------------------------------------------------
    Total     128     128      17      15      15       2
   -------------------------------------------------------

  ==> Integral Setup <==

  ==> DiskDFJK: Density-Fitted J/K Matrices <==

    J tasked:                  Yes
    K tasked:                  Yes
    wK tasked:                 Yes
    Omega:               3.000E-01
    OpenMP threads:             24
    Integrals threads:          24
    Memory [MiB]:           102851
    Algorithm:                Core
    Integral Cache:           NONE
    Schwarz Cutoff:          1E-12
    Fitting Condition:       1E-10

   => Auxiliary Basis Set <=

  Basis Set: (CC-PV(Q+D)Z AUX)
    Blend: CC-PVQZ-JKFIT
    Number of shells: 80
    Number of basis function: 296
    Number of Cartesian functions: 382
    Spherical Harmonics?: true
    Max angular momentum: 5

  Cached 100.0% of DFT collocation blocks in 0.142 [GiB].

  Minimum eigenvalue in the overlap matrix is 3.2194010169E-04.
  Using Symmetric Orthogonalization.

  SCF Guess: Superposition of Atomic Densities via on-the-fly atomic UHF.

  ==> Iterations <==

                           Total Energy        Delta E     RMS |[F,P]|

   @DF-UKS iter SAD:  -795.92419415599124   -7.95924e+02   0.00000e+00 
   @DF-UKS iter   1:  -796.26714723406053   -3.42953e-01   5.16527e-03 DIIS
   @DF-UKS iter   2:  -796.28227156911930   -1.51243e-02   1.77395e-03 DIIS
   @DF-UKS iter   3:  -796.28381193418636   -1.54037e-03   2.43198e-04 DIIS
   @DF-UKS iter   4:  -796.28403513488615   -2.23201e-04   5.72651e-05 DIIS
   @DF-UKS iter   5:  -796.28404658767522   -1.14528e-05   1.83814e-05 DIIS
   @DF-UKS iter   6:  -796.28404709829169   -5.10616e-07   4.66890e-06 DIIS
   @DF-UKS iter   7:  -796.28404714033491   -4.20432e-08   6.68778e-07 DIIS
   @DF-UKS iter   8:  -796.28404714213912   -1.80421e-09   9.42803e-08 DIIS
   @DF-UKS iter   9:  -796.28404714217197   -3.28555e-11   1.21645e-08 DIIS
   @DF-UKS iter  10:  -796.28404714217231   -3.41061e-13   2.26440e-09 DIIS
  Energy and wave function converged.


  ==> Post-Iterations <==

   @Spin Contamination Metric:   1.528317163E-02
   @S^2 Expected:                2.000000000E+00
   @S^2 Observed:                2.015283172E+00
   @S   Expected:                1.000000000E+00
   @S   Observed:                1.000000000E+00

    Orbital Energies [Eh]
    ---------------------

    Alpha Occupied:                                                       

       1B1u  -88.945741     1Ag   -88.945737     2Ag    -8.098201  
       2B1u   -8.098024     1B3u   -6.053276     1B2u   -6.053276  
       1B2g   -6.053229     1B3g   -6.053229     3Ag    -6.052762  
       3B1u   -6.051979     4Ag    -0.971067     4B1u   -0.757411  
       5Ag    -0.500925     2B3u   -0.489064     2B2u   -0.489064  
       2B2g   -0.344284     2B3g   -0.344284  

    Alpha Virtual:                                                        

       5B1u    0.070972     6Ag     0.206765     6B1u    0.219505  
       3B3u    0.235510     3B2u    0.235510     7Ag     0.261455  
       8Ag     0.270374     1B1g    0.270374     3B3g    0.307932  
       3B2g    0.307932     4B3u    0.308163     4B2u    0.308163  
       7B1u    0.403408     1Au     0.403409     8B1u    0.484025  
       9Ag     0.557527     4B2g    0.606365     4B3g    0.606365  
       9B1u    0.731666     5B3u    0.921575     5B2u    0.921575  
      10Ag     0.943679     2B1g    0.976272    11Ag     0.976272  
       6B3u    1.044707     6B2u    1.044707    12Ag     1.048973  
       3B1g    1.048976    10B1u    1.052462     2Au     1.052465  
       5B2g    1.151385     5B3g    1.151385    11B1u    1.188422  
      13Ag     1.198336     6B2g    1.201330     6B3g    1.201330  
       7B3u    1.282531     7B2u    1.282531     7B2g    1.304616  
       7B3g    1.304616     8B3u    1.389537     8B2u    1.389537  
      12B1u    1.464090     3Au     1.464098    13B1u    1.476876  
      14B1u    1.715719    14Ag     1.753899     8B2g    1.886908  
       8B3g    1.886908    15Ag     2.023837    15B1u    2.429403  
      16Ag     2.615341     4B1g    2.615349     9B3u    2.685973  
       9B2u    2.685973    17Ag     2.735396    16B1u    2.737976  
       4Au     2.737991    10B3u    2.812562    10B2u    2.812562  
      18Ag     2.829127     5B1g    2.829129    11B2u    2.850757  
      11B3u    2.850757     9B2g    2.891049     9B3g    2.891049  
      19Ag     2.994497     6B1g    2.994522    17B1u    3.062583  
       5Au     3.062609    20Ag     3.106949    12B3u    3.183122  
      12B2u    3.183122    10B2g    3.194300    10B3g    3.194300  
       7B1g    3.265446    21Ag     3.265447    18B1u    3.298069  
      11B2g    3.316554    11B3g    3.316554     6Au     3.334877  
      19B1u    3.334880    12B2g    3.498484    12B3g    3.498484  
      20B1u    3.557926    13B3u    3.735280    13B2u    3.735280  
       7Au     3.807126    21B1u    3.807128    22Ag     3.919596  
      13B2g    4.545357    13B3g    4.545357    22B1u    4.580047  
      14B3u    5.231665    14B2u    5.231665    14B2g    5.370158  
      14B3g    5.370158    23Ag     5.920641    23B1u    6.601648  
       8B1g    8.662405    24Ag     8.662457     8Au     8.723290  
      24B1u    8.723342    15B2u    8.727244    15B3u    8.727244  
      15B2g    8.971150    15B3g    8.971150    25B1u    9.093221  
      25Ag     9.136501    26Ag    16.877299    26B1u   19.249577  

    Beta Occupied:                                                        

       1B1u  -88.940259     1Ag   -88.940257     2Ag    -8.092972  
       2B1u   -8.092718     3Ag    -6.049314     3B1u   -6.048520  
       1B3u   -6.042094     1B2u   -6.042094     1B2g   -6.042030  
       1B3g   -6.042030     4Ag    -0.941675     4B1u   -0.689489  
       5Ag    -0.476590     2B2u   -0.425922     2B3u   -0.425922  

    Beta Virtual:                                                         

       2B3g   -0.056375     2B2g   -0.056375     5B1u    0.084866  
       6Ag     0.209802     6B1u    0.229887     3B2u    0.241509  
       3B3u    0.241509     7Ag     0.266788     8Ag     0.290460  
       1B1g    0.290460     3B3g    0.322813     3B2g    0.322813  
       4B3u    0.341297     4B2u    0.341297     7B1u    0.442664  
       1Au     0.442666     8B1u    0.495309     9Ag     0.574508  
       4B3g    0.623684     4B2g    0.623684     9B1u    0.738965  
       5B2u    0.931536     5B3u    0.931536    10Ag     0.949983  
       2B1g    0.995496    11Ag     0.995497     6B3u    1.061383  
       6B2u    1.061383    12Ag     1.071796     3B1g    1.071799  
      10B1u    1.081863     2Au     1.081866     5B2g    1.168489  
       5B3g    1.168489    11B1u    1.204207    13Ag     1.208099  
       6B2g    1.224365     6B3g    1.224365     7B3u    1.308439  
       7B2u    1.308439     7B3g    1.329308     7B2g    1.329308  
       8B2u    1.404227     8B3u    1.404227    12B1u    1.480988  
       3Au     1.480996    13B1u    1.486598    14B1u    1.730356  
      14Ag     1.775471     8B2g    1.900103     8B3g    1.900103  
      15Ag     2.032627    15B1u    2.447846    16Ag     2.635783  
       4B1g    2.635793     9B3u    2.697400     9B2u    2.697400  
      17Ag     2.750079    16B1u    2.761600     4Au     2.761617  
      10B2u    2.830716    10B3u    2.830716    18Ag     2.849467  
       5B1g    2.849469    11B2u    2.876754    11B3u    2.876754  
       9B2g    2.906134     9B3g    2.906134    19Ag     3.032488  
       6B1g    3.032514    17B1u    3.101662     5Au     3.101689  
      20Ag     3.121919    10B3g    3.226599    10B2g    3.226599  
      12B3u    3.227665    12B2u    3.227665     7B1g    3.297049  
      21Ag     3.297054    18B1u    3.310796    11B2g    3.357147  
      11B3g    3.357147     6Au     3.362900    19B1u    3.362907  
      12B2g    3.521167    12B3g    3.521167    20B1u    3.577466  
      13B3u    3.757764    13B2u    3.757764     7Au     3.830745  
      21B1u    3.830749    22Ag     3.932077    13B2g    4.560540  
      13B3g    4.560540    22B1u    4.588925    14B3u    5.254639  
      14B2u    5.254639    14B2g    5.392827    14B3g    5.392827  
      23Ag     5.927181    23B1u    6.609108     8B1g    8.676798  
      24Ag     8.676853    15B2u    8.735486    15B3u    8.735486  
       8Au     8.738297    24B1u    8.738351    15B3g    8.981383  
      15B2g    8.981383    25B1u    9.102174    25Ag     9.145945  
      26Ag    16.888007    26B1u   19.259700  

    Final Occupation by Irrep:
             Ag   B1g   B2g   B3g    Au   B1u   B2u   B3u 
    DOCC [     5,    0,    1,    1,    0,    4,    2,    2 ]
    SOCC [     0,    0,    1,    1,    0,    0,    0,    0 ]

  @DF-UKS Final Energy:  -796.28404714217231

   => Energetics <=

    Nuclear Repulsion Energy =             71.4416912474791701
    One-Electron Energy =               -1241.4641591009381045
    Two-Electron Energy =                 412.3166140985129573
    DFT Exchange-Correlation Energy =     -38.7118262223882894
    Empirical Dispersion Energy =           0.0000000000000000
    VV10 Nonlocal Energy =                  0.1336328351619216
    Total Energy =                       -796.2840471421723123

  UHF NO Occupations:
  HONO-2 :    2B3u 1.9968597
  HONO-1 :    2B2g 1.0000000
  HONO-0 :    2B3g 1.0000000
  LUNO+0 :    3B3u 0.0031403
  LUNO+1 :    3B2u 0.0031403
  LUNO+2 :    5B1u 0.0008019
  LUNO+3 :    6 Ag 0.0005341


Computation Completed


Properties will be evaluated at   0.000000,   0.000000,   0.000000 [a0]

Properties computed using the SCF density matrix

  Nuclear Dipole Moment: [e a0]
     X:     0.0000      Y:     0.0000      Z:     0.0000

  Electronic Dipole Moment: [e a0]
     X:     0.0000      Y:     0.0000      Z:     0.0000

  Dipole Moment: [e a0]
     X:     0.0000      Y:     0.0000      Z:     0.0000     Total:     0.0000

  Dipole Moment: [D]
     X:     0.0000      Y:     0.0000      Z:     0.0000     Total:     0.0000


*** tstop() called on bp1-compute00113.data.bp.acrc.priv at Tue Apr 27 17:06:45 2021
Module time:
	user time   =     144.66 seconds =       2.41 minutes
	system time =       6.97 seconds =       0.12 minutes
	total time  =          7 seconds =       0.12 minutes
Total time:
	user time   =     431.84 seconds =       7.20 minutes
	system time =      22.91 seconds =       0.38 minutes
	total time  =         20 seconds =       0.33 minutes

         ----------------------------------------------------------
                                   FINDIF
                     R. A. King and Jonathon Misiewicz
         ---------------------------------------------------------

  Computing gradient from energies.
    Using 3-point formula.
    Energy without displacement: -796.2840290060
    Check energies below for precision!
    Forces are for mass-weighted, symmetry-adapted cartesians (in au).

     Coord      Energy(-1)        Energy(+1)            Force
        0   -796.2840103442   -796.2840471422     -0.0036798006


-------------------------------------------------------------
  ## New Matrix (Symmetry 0) ##
  Irrep: 1 Size: 2 x 3

                 1                   2                   3

    1     0.00000000000000     0.00000000000000    -0.01471277781569
    2     0.00000000000000     0.00000000000000     0.01471277781569




			-----------------------------------------
			 OPTKING 2.0: for geometry optimizations 
			  - R.A. King,  Bethel University        
			-----------------------------------------
	At level 1: Red. Int., RFO, no backsteps, dynamic trust

	Internal coordinates to be generated automatically.
	Detected frag 1 with atoms:  1 2
	---Fragment 1 Bond Connectivity---
	 1 : 2
	 2 : 1

	---Fragment 1 Geometry and Gradient---
	 S           0.0000000000        0.0000000000       -1.7922961834
	 S           0.0000000000        0.0000000000        1.7922961834
	             0.0000000000        0.0000000000       -0.0147127778
	             0.0000000000        0.0000000000        0.0147127778

	Previous optimization step data not found.  Starting new optimization.

	---Fragment 1 Intrafragment Coordinates---
	 - Coordinate -           - BOHR/RAD -       - ANG/DEG -
	 R(1,2)           =         3.584592	       1.896885

	Current energy   :      -796.2840290060

	Generating empirical Hessian (Schlegel '84) for each fragment.
	Taking RFO optimization step.
	Going to follow RFO solution 1.
	Using RFO vector 1.
	Norm of target step-size    0.02957
	Projected energy change by RFO approximation:         0.0000021549

	Back-transformation to cartesian coordinates...
	Successfully converged to displaced geometry.

	--- Internal Coordinate Step in ANG or DEG, aJ/ANG or AJ/DEG ---
	 ---------------------------------------------------------------------------
	   Coordinate                Previous        Force       Change         New 
	   ----------                --------       ------       ------       ------
	    1 R(1,2)          =      1.896885    -0.121214    -0.015649     1.881236
	 ---------------------------------------------------------------------------
	Successfully symmetrized geometry.

  ==> Convergence Check <==

  Measures of convergence in internal coordinates in au.
  Criteria marked as inactive (o), active & met (*), and active & unmet ( ).
  --------------------------------------------------------------------------------------------- ~
   Step     Total Energy     Delta E     MAX Force     RMS Force      MAX Disp      RMS Disp    ~
  --------------------------------------------------------------------------------------------- ~
    Convergence Criteria    1.00e-06 *    3.00e-04 *             o    1.20e-03 *             o  ~
  --------------------------------------------------------------------------------------------- ~
      1    -796.28402901   -7.96e+02      1.47e-02      1.47e-02 o    2.96e-02      2.96e-02 o  ~
  ---------------------------------------------------------------------------------------------

	Writing optimization data to binary file.
	Structure for next step:
	Cartesian Geometry (in Angstrom)
	    S     0.0000000000   0.0000000000  -0.9406180295
	    S     0.0000000000   0.0000000000   0.9406180295
			--------------------------
			 OPTKING Finished Execution 
			--------------------------

    Structure for next step:
    Molecular point group: d2h
    Full point group: D_inf_h

    Geometry (in Angstrom), charge = 0, multiplicity = 3:

    S            0.000000000000     0.000000000000    -0.940618033181
    S            0.000000000000     0.000000000000     0.940618033181

gradient() will perform gradient computation by finite difference of analytic energies.

         ----------------------------------------------------------
                                   FINDIF
                     R. A. King and Jonathon Misiewicz
         ---------------------------------------------------------

  Using finite-differences of energies to determine gradients.
    Generating geometries for use with 3-point formula.
    Displacement size will be 5.00e-03.
    Number of atoms is 2.
    Number of symmetric SALCs is 1.
    Translations projected? 1. Rotations projected? 1.
    Number of geometries (including reference) is 3.

  //>>>>>>>>>>>>>>>>>>>>>>>>>>>>>>>>>>>//
  //    Loading displacement 1 of 3    //
  //<<<<<<<<<<<<<<<<<<<<<<<<<<<<<<<<<<<//

*** tstart() called on bp1-compute00113.data.bp.acrc.priv
*** at Tue Apr 27 17:06:45 2021

   => Loading Basis Set <=

    Name: CC-PV(Q+D)Z
    Role: ORBITAL
    Keyword: BASIS
    atoms 1-2 entry S          line   978 file /work/zw18965/.conda/envs/p4env/share/psi4/basis/cc-pv_qpd_z.gbs 


         ---------------------------------------------------------
                                   SCF
               by Justin Turney, Rob Parrish, Andy Simmonett
                          and Daniel G. A. Smith
                              UKS Reference
                       24 Threads, 137329 MiB Core
         ---------------------------------------------------------

  ==> Geometry <==

    Molecular point group: d2h
    Full point group: D_inf_h

    Geometry (in Angstrom), charge = 0, multiplicity = 3:

       Center              X                  Y                   Z               Mass       
    ------------   -----------------  -----------------  -----------------  -----------------
         S            0.000000000000     0.000000000000    -0.940618033181    31.972071174400
         S            0.000000000000     0.000000000000     0.940618033181    31.972071174400

  Running in d2h symmetry.

  Rotational constants: A = ************  B =      0.29797  C =      0.29797 [cm^-1]
  Rotational constants: A = ************  B =   8932.84568  C =   8932.84568 [MHz]
  Nuclear repulsion =   72.010827537146668

  Charge       = 0
  Multiplicity = 3
  Electrons    = 32
  Nalpha       = 17
  Nbeta        = 15

  ==> Algorithm <==

  SCF Algorithm Type is DF.
  DIIS enabled.
  MOM disabled.
  Fractional occupation disabled.
  Guess Type is READ.
  Energy threshold   = 1.00e-08
  Density threshold  = 1.00e-08
  Integral threshold = 0.00e+00

  ==> Primary Basis <==

  Basis Set: CC-PV(Q+D)Z
    Blend: CC-PV(Q+D)Z
    Number of shells: 36
    Number of basis function: 128
    Number of Cartesian functions: 160
    Spherical Harmonics?: true
    Max angular momentum: 4

  ==> DFT Potential <==

   => Composite Functional: WB97X-V <= 

    wB97X-V Hyb-GGA Exchange-Correlation Functional

    N. Mardirossian and M. Head-Gordon, Phys. Chem. Chem. Phys. 16, 9904 (2014)

    Deriv               =              1
    GGA                 =           TRUE
    Meta                =          FALSE

    Exchange Hybrid     =           TRUE
    MP2 Hybrid          =          FALSE

   => Exchange-Correlation Functionals <=

    1.0000   wB97X-V range-separated functional

   => Exact (HF) Exchange <=

    0.8330            HF,LR [omega = 0.3000]
    0.1670               HF 

   => VV10 Non-Local Parameters <=

    VV10 B              =     6.0000E+00
    VV10 C              =     1.0000E-02

   => Molecular Quadrature <=

    Radial Scheme          =       TREUTLER
    Pruning Scheme         =           FLAT
    Nuclear Scheme         =       TREUTLER

    BS radius alpha        =              1
    Pruning alpha          =              1
    Radial Points          =             75
    Spherical Points       =            302
    Total Points           =          43136
    Total Blocks           =            406
    Max Points             =            256
    Max Functions          =            128

   => Loading Basis Set <=

    Name: (CC-PV(Q+D)Z AUX)
    Role: JKFIT
    Keyword: DF_BASIS_SCF
    atoms 1-2 entry S          line   673 file /work/zw18965/.conda/envs/p4env/share/psi4/basis/cc-pvqz-jkfit.gbs 

   => Loading Basis Set <=

    Name: CC-PV(Q+D)Z
    Role: ORBITAL
    Keyword: BASIS
    atoms 1-2 entry S          line   978 file /work/zw18965/.conda/envs/p4env/share/psi4/basis/cc-pv_qpd_z.gbs 

  Reading orbitals from file 180, no projection.

  ==> Pre-Iterations <==

   -------------------------------------------------------
    Irrep   Nso     Nmo     Nalpha   Nbeta   Ndocc  Nsocc
   -------------------------------------------------------
     Ag        26      26       0       0       0       0
     B1g        8       8       0       0       0       0
     B2g       15      15       0       0       0       0
     B3g       15      15       0       0       0       0
     Au         8       8       0       0       0       0
     B1u       26      26       0       0       0       0
     B2u       15      15       0       0       0       0
     B3u       15      15       0       0       0       0
   -------------------------------------------------------
    Total     128     128      17      15      15       2
   -------------------------------------------------------

  ==> Integral Setup <==

  ==> DiskDFJK: Density-Fitted J/K Matrices <==

    J tasked:                  Yes
    K tasked:                  Yes
    wK tasked:                 Yes
    Omega:               3.000E-01
    OpenMP threads:             24
    Integrals threads:          24
    Memory [MiB]:           102850
    Algorithm:                Core
    Integral Cache:           NONE
    Schwarz Cutoff:          1E-12
    Fitting Condition:       1E-10

   => Auxiliary Basis Set <=

  Basis Set: (CC-PV(Q+D)Z AUX)
    Blend: CC-PVQZ-JKFIT
    Number of shells: 80
    Number of basis function: 296
    Number of Cartesian functions: 382
    Spherical Harmonics?: true
    Max angular momentum: 5

  Cached 100.0% of DFT collocation blocks in 0.142 [GiB].

  Minimum eigenvalue in the overlap matrix is 3.0858836126E-04.
  Using Symmetric Orthogonalization.

  SCF Guess: Orbitals guess was supplied from a previous computation.

  ==> Iterations <==

                           Total Energy        Delta E     RMS |[F,P]|

   @DF-UKS iter   0:  -796.29580543863517   -7.96296e+02   9.09712e-04 
   @DF-UKS iter   1:  -796.28429273350571    1.15127e-02   1.24524e-04 DIIS
   @DF-UKS iter   2:  -796.28430739352984   -1.46600e-05   8.76132e-05 DIIS
   @DF-UKS iter   3:  -796.28431339799295   -6.00446e-06   7.55918e-06 DIIS
   @DF-UKS iter   4:  -796.28431348898403   -9.09911e-08   1.36143e-06 DIIS
   @DF-UKS iter   5:  -796.28431349551192   -6.52790e-09   3.54460e-07 DIIS
   @DF-UKS iter   6:  -796.28431349581365   -3.01725e-10   8.43780e-08 DIIS
   @DF-UKS iter   7:  -796.28431349584230   -2.86491e-11   1.92495e-08 DIIS
   @DF-UKS iter   8:  -796.28431349584366   -1.36424e-12   2.18662e-09 DIIS
  Energy and wave function converged.


  ==> Post-Iterations <==

   @Spin Contamination Metric:   1.515423143E-02
   @S^2 Expected:                2.000000000E+00
   @S^2 Observed:                2.015154231E+00
   @S   Expected:                1.000000000E+00
   @S   Observed:                1.000000000E+00

    Orbital Energies [Eh]
    ---------------------

    Alpha Occupied:                                                       

       1B1u  -88.944325     1Ag   -88.944321     2Ag    -8.097233  
       2B1u   -8.097036     1B2u   -6.052286     1B3u   -6.052286  
       1B3g   -6.052233     1B2g   -6.052233     3Ag    -6.051757  
       3B1u   -6.050892     4Ag    -0.974721     4B1u   -0.755675  
       5Ag    -0.501862     2B3u   -0.490928     2B2u   -0.490928  
       2B3g   -0.342544     2B2g   -0.342544  

    Alpha Virtual:                                                        

       5B1u    0.074515     6Ag     0.205766     6B1u    0.220808  
       3B3u    0.234419     3B2u    0.234419     7Ag     0.261436  
       8Ag     0.269548     1B1g    0.269549     3B2g    0.308220  
       3B3g    0.308220     4B2u    0.309582     4B3u    0.309582  
       7B1u    0.404755     1Au     0.404757     8B1u    0.486058  
       9Ag     0.559184     4B2g    0.609622     4B3g    0.609622  
       9B1u    0.734292     5B2u    0.919994     5B3u    0.919994  
      10Ag     0.943125     2B1g    0.974796    11Ag     0.974796  
       6B3u    1.043299     6B2u    1.043299    12Ag     1.051827  
       3B1g    1.051830    10B1u    1.053398     2Au     1.053401  
       5B3g    1.153046     5B2g    1.153046    11B1u    1.195675  
      13Ag     1.195820     6B2g    1.203170     6B3g    1.203170  
       7B3u    1.282083     7B2u    1.282083     7B2g    1.305859  
       7B3g    1.305859     8B2u    1.397189     8B3u    1.397189  
      12B1u    1.468808     3Au     1.468816    13B1u    1.486164  
      14B1u    1.709345    14Ag     1.751148     8B2g    1.890941  
       8B3g    1.890941    15Ag     2.036804    15B1u    2.433047  
      16Ag     2.615329     4B1g    2.615338     9B2u    2.692604  
       9B3u    2.692604    17Ag     2.731031    16B1u    2.738826  
       4Au     2.738843    10B2u    2.811094    10B3u    2.811094  
      18Ag     2.828134     5B1g    2.828136    11B3u    2.846391  
      11B2u    2.846391     9B3g    2.897032     9B2g    2.897032  
      19Ag     2.992573     6B1g    2.992597    17B1u    3.064416  
       5Au     3.064440    20Ag     3.124002    12B2u    3.182757  
      12B3u    3.182757    10B3g    3.198538    10B2g    3.198538  
       7B1g    3.270408    21Ag     3.270410    18B1u    3.306054  
      11B3g    3.322438    11B2g    3.322438     6Au     3.341180  
      19B1u    3.341183    12B2g    3.502180    12B3g    3.502180  
      20B1u    3.574170    13B3u    3.748381    13B2u    3.748381  
       7Au     3.823505    21B1u    3.823507    22Ag     3.942509  
      22B1u    4.552281    13B2g    4.569487    13B3g    4.569487  
      14B3u    5.233136    14B2u    5.233136    14B2g    5.375738  
      14B3g    5.375738    23Ag     5.914266    23B1u    6.686176  
       8B1g    8.663106    24Ag     8.663156     8Au     8.724792  
      24B1u    8.724842    15B2u    8.731709    15B3u    8.731709  
      15B2g    8.976967    15B3g    8.976967    25B1u    9.083455  
      25Ag     9.150236    26Ag    16.941419    26B1u   19.251469  

    Beta Occupied:                                                        

       1B1u  -88.938855     1Ag   -88.938852     2Ag    -8.092015  
       2B1u   -8.091741     3Ag    -6.048319     3B1u   -6.047442  
       1B2u   -6.041128     1B3u   -6.041128     1B3g   -6.041056  
       1B2g   -6.041056     4Ag    -0.945771     4B1u   -0.687698  
       5Ag    -0.477228     2B3u   -0.428391     2B2u   -0.428391  

    Beta Virtual:                                                         

       2B3g   -0.054480     2B2g   -0.054480     5B1u    0.088141  
       6Ag     0.208767     6B1u    0.231556     3B3u    0.240433  
       3B2u    0.240433     7Ag     0.266771     8Ag     0.289597  
       1B1g    0.289597     3B2g    0.323147     3B3g    0.323147  
       4B2u    0.342921     4B3u    0.342921     7B1u    0.444040  
       1Au     0.444042     8B1u    0.497286     9Ag     0.576131  
       4B2g    0.626808     4B3g    0.626808     9B1u    0.741524  
       5B2u    0.929878     5B3u    0.929878    10Ag     0.949309  
       2B1g    0.993802    11Ag     0.993802     6B3u    1.059904  
       6B2u    1.059904    12Ag     1.074789     3B1g    1.074792  
      10B1u    1.082797     2Au     1.082799     5B3g    1.170258  
       5B2g    1.170258    13Ag     1.205633    11B1u    1.211432  
       6B2g    1.226257     6B3g    1.226257     7B3u    1.307965  
       7B2u    1.307965     7B2g    1.330448     7B3g    1.330448  
       8B2u    1.411868     8B3u    1.411868    12B1u    1.485718  
       3Au     1.485726    13B1u    1.495812    14B1u    1.723977  
      14Ag     1.772620     8B2g    1.904124     8B3g    1.904124  
      15Ag     2.045628    15B1u    2.451593    16Ag     2.635750  
       4B1g    2.635760     9B2u    2.704017     9B3u    2.704017  
      17Ag     2.745655    16B1u    2.762413     4Au     2.762431  
      10B2u    2.829197    10B3u    2.829197    18Ag     2.848295  
       5B1g    2.848297    11B3u    2.872193    11B2u    2.872193  
       9B3g    2.912138     9B2g    2.912138    19Ag     3.030483  
       6B1g    3.030508    17B1u    3.103481     5Au     3.103506  
      20Ag     3.139315    12B2u    3.227293    12B3u    3.227293  
      10B3g    3.231288    10B2g    3.231288     7B1g    3.302011  
      21Ag     3.302016    18B1u    3.318644    11B3g    3.362530  
      11B2g    3.362530     6Au     3.369312    19B1u    3.369319  
      12B2g    3.524825    12B3g    3.524825    20B1u    3.593655  
      13B3u    3.770801    13B2u    3.770801     7Au     3.847010  
      21B1u    3.847013    22Ag     3.954542    22B1u    4.561321  
      13B2g    4.584696    13B3g    4.584696    14B3u    5.256058  
      14B2u    5.256058    14B2g    5.398335    14B3g    5.398335  
      23Ag     5.920783    23B1u    6.693607     8B1g    8.677468  
      24Ag     8.677521     8Au     8.739784    24B1u    8.739836  
      15B2u    8.739947    15B3u    8.739947    15B2g    8.987203  
      15B3g    8.987203    25B1u    9.092313    25Ag     9.159773  
      26Ag    16.952067    26B1u   19.261578  

    Final Occupation by Irrep:
             Ag   B1g   B2g   B3g    Au   B1u   B2u   B3u 
    DOCC [     5,    0,    1,    1,    0,    4,    2,    2 ]
    SOCC [     0,    0,    1,    1,    0,    0,    0,    0 ]

  @DF-UKS Final Energy:  -796.28431349584366

   => Energetics <=

    Nuclear Repulsion Energy =             72.0108275371466675
    One-Electron Energy =               -1242.6097287398374647
    Two-Electron Energy =                 412.8988841867545148
    DFT Exchange-Correlation Energy =     -38.7179090279942386
    Empirical Dispersion Energy =           0.0000000000000000
    VV10 Nonlocal Energy =                  0.1336125480867349
    Total Energy =                       -796.2843134958437759

  UHF NO Occupations:
  HONO-2 :    2B2u 1.9968925
  HONO-1 :    2B2g 1.0000000
  HONO-0 :    2B3g 1.0000000
  LUNO+0 :    3B2u 0.0031075
  LUNO+1 :    3B3u 0.0031075
  LUNO+2 :    5B1u 0.0008050
  LUNO+3 :    6 Ag 0.0005331


Computation Completed


Properties will be evaluated at   0.000000,   0.000000,   0.000000 [a0]

Properties computed using the SCF density matrix

  Nuclear Dipole Moment: [e a0]
     X:     0.0000      Y:     0.0000      Z:     0.0000

  Electronic Dipole Moment: [e a0]
     X:     0.0000      Y:     0.0000      Z:     0.0000

  Dipole Moment: [e a0]
     X:     0.0000      Y:     0.0000      Z:     0.0000     Total:     0.0000

  Dipole Moment: [D]
     X:     0.0000      Y:     0.0000      Z:     0.0000     Total:     0.0000


*** tstop() called on bp1-compute00113.data.bp.acrc.priv at Tue Apr 27 17:06:50 2021
Module time:
	user time   =     116.60 seconds =       1.94 minutes
	system time =       5.51 seconds =       0.09 minutes
	total time  =          5 seconds =       0.08 minutes
Total time:
	user time   =     548.81 seconds =       9.15 minutes
	system time =      28.43 seconds =       0.47 minutes
	total time  =         25 seconds =       0.42 minutes

  //>>>>>>>>>>>>>>>>>>>>>>>>>>>>>>>>>>>//
  //    Loading displacement 2 of 3    //
  //<<<<<<<<<<<<<<<<<<<<<<<<<<<<<<<<<<<//

*** tstart() called on bp1-compute00113.data.bp.acrc.priv
*** at Tue Apr 27 17:06:50 2021

   => Loading Basis Set <=

    Name: CC-PV(Q+D)Z
    Role: ORBITAL
    Keyword: BASIS
    atoms 1-2 entry S          line   978 file /work/zw18965/.conda/envs/p4env/share/psi4/basis/cc-pv_qpd_z.gbs 


         ---------------------------------------------------------
                                   SCF
               by Justin Turney, Rob Parrish, Andy Simmonett
                          and Daniel G. A. Smith
                              UKS Reference
                       24 Threads, 137329 MiB Core
         ---------------------------------------------------------

  ==> Geometry <==

    Molecular point group: d2h
    Full point group: D_inf_h

    Geometry (in Angstrom), charge = 0, multiplicity = 3:

       Center              X                  Y                   Z               Mass       
    ------------   -----------------  -----------------  -----------------  -----------------
         S            0.000000000000     0.000000000000    -0.940948913362    31.972071174400
         S            0.000000000000     0.000000000000     0.940948913362    31.972071174400

  Running in d2h symmetry.

  Rotational constants: A = ************  B =      0.29776  C =      0.29776 [cm^-1]
  Rotational constants: A = ************  B =   8926.56440  C =   8926.56440 [MHz]
  Nuclear repulsion =   71.985505274417676

  Charge       = 0
  Multiplicity = 3
  Electrons    = 32
  Nalpha       = 17
  Nbeta        = 15

  ==> Algorithm <==

  SCF Algorithm Type is DF.
  DIIS enabled.
  MOM disabled.
  Fractional occupation disabled.
  Guess Type is READ.
  Energy threshold   = 1.00e-08
  Density threshold  = 1.00e-08
  Integral threshold = 0.00e+00

  ==> Primary Basis <==

  Basis Set: CC-PV(Q+D)Z
    Blend: CC-PV(Q+D)Z
    Number of shells: 36
    Number of basis function: 128
    Number of Cartesian functions: 160
    Spherical Harmonics?: true
    Max angular momentum: 4

  ==> DFT Potential <==

   => Composite Functional: WB97X-V <= 

    wB97X-V Hyb-GGA Exchange-Correlation Functional

    N. Mardirossian and M. Head-Gordon, Phys. Chem. Chem. Phys. 16, 9904 (2014)

    Deriv               =              1
    GGA                 =           TRUE
    Meta                =          FALSE

    Exchange Hybrid     =           TRUE
    MP2 Hybrid          =          FALSE

   => Exchange-Correlation Functionals <=

    1.0000   wB97X-V range-separated functional

   => Exact (HF) Exchange <=

    0.8330            HF,LR [omega = 0.3000]
    0.1670               HF 

   => VV10 Non-Local Parameters <=

    VV10 B              =     6.0000E+00
    VV10 C              =     1.0000E-02

   => Molecular Quadrature <=

    Radial Scheme          =       TREUTLER
    Pruning Scheme         =           FLAT
    Nuclear Scheme         =       TREUTLER

    BS radius alpha        =              1
    Pruning alpha          =              1
    Radial Points          =             75
    Spherical Points       =            302
    Total Points           =          43136
    Total Blocks           =            406
    Max Points             =            256
    Max Functions          =            128

   => Loading Basis Set <=

    Name: (CC-PV(Q+D)Z AUX)
    Role: JKFIT
    Keyword: DF_BASIS_SCF
    atoms 1-2 entry S          line   673 file /work/zw18965/.conda/envs/p4env/share/psi4/basis/cc-pvqz-jkfit.gbs 

   => Loading Basis Set <=

    Name: CC-PV(Q+D)Z
    Role: ORBITAL
    Keyword: BASIS
    atoms 1-2 entry S          line   978 file /work/zw18965/.conda/envs/p4env/share/psi4/basis/cc-pv_qpd_z.gbs 

  Reading orbitals from file 180, no projection.

  ==> Pre-Iterations <==

   -------------------------------------------------------
    Irrep   Nso     Nmo     Nalpha   Nbeta   Ndocc  Nsocc
   -------------------------------------------------------
     Ag        26      26       0       0       0       0
     B1g        8       8       0       0       0       0
     B2g       15      15       0       0       0       0
     B3g       15      15       0       0       0       0
     Au         8       8       0       0       0       0
     B1u       26      26       0       0       0       0
     B2u       15      15       0       0       0       0
     B3u       15      15       0       0       0       0
   -------------------------------------------------------
    Total     128     128      17      15      15       2
   -------------------------------------------------------

  ==> Integral Setup <==

  ==> DiskDFJK: Density-Fitted J/K Matrices <==

    J tasked:                  Yes
    K tasked:                  Yes
    wK tasked:                 Yes
    Omega:               3.000E-01
    OpenMP threads:             24
    Integrals threads:          24
    Memory [MiB]:           102850
    Algorithm:                Core
    Integral Cache:           NONE
    Schwarz Cutoff:          1E-12
    Fitting Condition:       1E-10

   => Auxiliary Basis Set <=

  Basis Set: (CC-PV(Q+D)Z AUX)
    Blend: CC-PVQZ-JKFIT
    Number of shells: 80
    Number of basis function: 296
    Number of Cartesian functions: 382
    Spherical Harmonics?: true
    Max angular momentum: 5

  Cached 100.0% of DFT collocation blocks in 0.142 [GiB].

  Minimum eigenvalue in the overlap matrix is 3.0917040888E-04.
  Using Symmetric Orthogonalization.

  SCF Guess: Orbitals guess was supplied from a previous computation.

  ==> Iterations <==

                           Total Energy        Delta E     RMS |[F,P]|

   @DF-UKS iter   0:  -796.28382274424018   -7.96284e+02   3.89684e-05 
   @DF-UKS iter   1:  -796.28430767352734   -4.84929e-04   5.26304e-06 DIIS
   @DF-UKS iter   2:  -796.28430769976842   -2.62411e-08   3.69863e-06 DIIS
   @DF-UKS iter   3:  -796.28430771046305   -1.06946e-08   3.20217e-07 DIIS
   @DF-UKS iter   4:  -796.28430771062699   -1.63936e-10   5.83279e-08 DIIS
   @DF-UKS iter   5:  -796.28430771063893   -1.19371e-11   1.53005e-08 DIIS
   @DF-UKS iter   6:  -796.28430771063904   -1.13687e-13   3.61406e-09 DIIS
  Energy and wave function converged.


  ==> Post-Iterations <==

   @Spin Contamination Metric:   1.515996946E-02
   @S^2 Expected:                2.000000000E+00
   @S^2 Observed:                2.015159969E+00
   @S   Expected:                1.000000000E+00
   @S   Observed:                1.000000000E+00

    Orbital Energies [Eh]
    ---------------------

    Alpha Occupied:                                                       

       1B1u  -88.944389     1Ag   -88.944384     2Ag    -8.097276  
       2B1u   -8.097080     1B2u   -6.052330     1B3u   -6.052330  
       1B3g   -6.052277     1B2g   -6.052277     3Ag    -6.051801  
       3B1u   -6.050940     4Ag    -0.974558     4B1u   -0.755752  
       5Ag    -0.501821     2B2u   -0.490845     2B3u   -0.490845  
       2B3g   -0.342621     2B2g   -0.342621  

    Alpha Virtual:                                                        

       5B1u    0.074360     6Ag     0.205811     6B1u    0.220748  
       3B2u    0.234467     3B3u    0.234467     7Ag     0.261437  
       8Ag     0.269585     1B1g    0.269585     3B3g    0.308208  
       3B2g    0.308208     4B2u    0.309519     4B3u    0.309519  
       7B1u    0.404695     1Au     0.404697     8B1u    0.485969  
       9Ag     0.559113     4B2g    0.609477     4B3g    0.609477  
       9B1u    0.734174     5B2u    0.920064     5B3u    0.920064  
      10Ag     0.943150     2B1g    0.974862    11Ag     0.974862  
       6B2u    1.043361     6B3u    1.043361    12Ag     1.051700  
       3B1g    1.051703    10B1u    1.053356     2Au     1.053359  
       5B2g    1.152975     5B3g    1.152975    11B1u    1.195349  
      13Ag     1.195930     6B3g    1.203088     6B2g    1.203088  
       7B3u    1.282104     7B2u    1.282104     7B2g    1.305800  
       7B3g    1.305800     8B3u    1.396850     8B2u    1.396850  
      12B1u    1.468599     3Au     1.468608    13B1u    1.485748  
      14B1u    1.709625    14Ag     1.751275     8B2g    1.890766  
       8B3g    1.890766    15Ag     2.036231    15B1u    2.432887  
      16Ag     2.615326     4B1g    2.615335     9B3u    2.692328  
       9B2u    2.692328    17Ag     2.731221    16B1u    2.738789  
       4Au     2.738805    10B3u    2.811135    10B2u    2.811135  
      18Ag     2.828179     5B1g    2.828181    11B2u    2.846583  
      11B3u    2.846583     9B2g    2.896762     9B3g    2.896762  
      19Ag     2.992660     6B1g    2.992684    17B1u    3.064333  
       5Au     3.064358    20Ag     3.123262    12B3u    3.182774  
      12B2u    3.182774    10B2g    3.198353    10B3g    3.198353  
       7B1g    3.270184    21Ag     3.270185    18B1u    3.305708  
      11B2g    3.322172    11B3g    3.322172     6Au     3.340903  
      19B1u    3.340906    12B2g    3.502021    12B3g    3.502021  
      20B1u    3.573440    13B2u    3.747800    13B3u    3.747800  
       7Au     3.822775    21B1u    3.822777    22Ag     3.941451  
      22B1u    4.553522    13B2g    4.568435    13B3g    4.568435  
      14B3u    5.233072    14B2u    5.233072    14B2g    5.375469  
      14B3g    5.375469    23Ag     5.914572    23B1u    6.682371  
       8B1g    8.663074    24Ag     8.663125     8Au     8.724726  
      24B1u    8.724776    15B3u    8.731510    15B2u    8.731510  
      15B2g    8.976713    15B3g    8.976713    25B1u    9.083880  
      25Ag     9.149656    26Ag    16.938510    26B1u   19.251489  

    Beta Occupied:                                                        

       1B1u  -88.938917     1Ag   -88.938915     2Ag    -8.092057  
       2B1u   -8.091785     3Ag    -6.048363     3B1u   -6.047490  
       1B2u   -6.041171     1B3u   -6.041171     1B2g   -6.041099  
       1B3g   -6.041099     4Ag    -0.945589     4B1u   -0.687777  
       5Ag    -0.477201     2B2u   -0.428281     2B3u   -0.428281  

    Beta Virtual:                                                         

       2B2g   -0.054564     2B3g   -0.054564     5B1u    0.087998  
       6Ag     0.208812     6B1u    0.231480     3B2u    0.240480  
       3B3u    0.240480     7Ag     0.266771     8Ag     0.289635  
       1B1g    0.289635     3B3g    0.323133     3B2g    0.323133  
       4B3u    0.342849     4B2u    0.342849     7B1u    0.443979  
       1Au     0.443981     8B1u    0.497199     9Ag     0.576061  
       4B2g    0.626670     4B3g    0.626670     9B1u    0.741409  
       5B2u    0.929952     5B3u    0.929952    10Ag     0.949338  
       2B1g    0.993877    11Ag     0.993878     6B2u    1.059969  
       6B3u    1.059969    12Ag     1.074655     3B1g    1.074658  
      10B1u    1.082755     2Au     1.082758     5B2g    1.170181  
       5B3g    1.170181    13Ag     1.205741    11B1u    1.211107  
       6B3g    1.226173     6B2g    1.226173     7B3u    1.307987  
       7B2u    1.307987     7B2g    1.330394     7B3g    1.330394  
       8B3u    1.411530     8B2u    1.411530    12B1u    1.485509  
       3Au     1.485517    13B1u    1.495399    14B1u    1.724257  
      14Ag     1.772752     8B2g    1.903950     8B3g    1.903950  
      15Ag     2.045053    15B1u    2.451428    16Ag     2.635747  
       4B1g    2.635757     9B3u    2.703741     9B2u    2.703741  
      17Ag     2.745848    16B1u    2.762377     4Au     2.762394  
      10B3u    2.829241    10B2u    2.829241    18Ag     2.848348  
       5B1g    2.848350    11B2u    2.872394    11B3u    2.872394  
       9B2g    2.911867     9B3g    2.911867    19Ag     3.030574  
       6B1g    3.030598    17B1u    3.103399     5Au     3.103424  
      20Ag     3.138560    12B3u    3.227309    12B2u    3.227309  
      10B2g    3.231083    10B3g    3.231083     7B1g    3.301787  
      21Ag     3.301792    18B1u    3.318304    11B2g    3.362286  
      11B3g    3.362286     6Au     3.369030    19B1u    3.369037  
      12B2g    3.524669    12B3g    3.524669    20B1u    3.592927  
      13B2u    3.770223    13B3u    3.770223     7Au     3.846285  
      21B1u    3.846288    22Ag     3.953504    22B1u    4.562554  
      13B2g    4.583641    13B3g    4.583641    14B3u    5.255996  
      14B2u    5.255996    14B2g    5.398070    14B3g    5.398070  
      23Ag     5.921089    23B1u    6.689804     8B1g    8.677438  
      24Ag     8.677491     8Au     8.739718    15B3u    8.739749  
      15B2u    8.739749    24B1u    8.739770    15B2g    8.986949  
      15B3g    8.986949    25B1u    9.092742    25Ag     9.159188  
      26Ag    16.949161    26B1u   19.261599  

    Final Occupation by Irrep:
             Ag   B1g   B2g   B3g    Au   B1u   B2u   B3u 
    DOCC [     5,    0,    1,    1,    0,    4,    2,    2 ]
    SOCC [     0,    0,    1,    1,    0,    0,    0,    0 ]

  @DF-UKS Final Energy:  -796.28430771063904

   => Energetics <=

    Nuclear Repulsion Energy =             71.9855052744176760
    One-Electron Energy =               -1242.5587710493498435
    Two-Electron Energy =                 412.8729814851423043
    DFT Exchange-Correlation Energy =     -38.7176368631877921
    Empirical Dispersion Energy =           0.0000000000000000
    VV10 Nonlocal Energy =                  0.1336134423386309
    Total Energy =                       -796.2843077106390410

  UHF NO Occupations:
  HONO-2 :    2B3u 1.9968911
  HONO-1 :    2B3g 1.0000000
  HONO-0 :    2B2g 1.0000000
  LUNO+0 :    3B3u 0.0031089
  LUNO+1 :    3B2u 0.0031089
  LUNO+2 :    5B1u 0.0008049
  LUNO+3 :    6 Ag 0.0005331


Computation Completed


Properties will be evaluated at   0.000000,   0.000000,   0.000000 [a0]

Properties computed using the SCF density matrix

  Nuclear Dipole Moment: [e a0]
     X:     0.0000      Y:     0.0000      Z:     0.0000

  Electronic Dipole Moment: [e a0]
[...]

  ==> Primary Basis <==

  Basis Set: CC-PV(Q+D)Z
    Blend: CC-PV(Q+D)Z
    Number of shells: 36
    Number of basis function: 128
    Number of Cartesian functions: 160
    Spherical Harmonics?: true
    Max angular momentum: 4

  ==> DFT Potential <==

   => Composite Functional: WB97X-V <= 

    wB97X-V Hyb-GGA Exchange-Correlation Functional

    N. Mardirossian and M. Head-Gordon, Phys. Chem. Chem. Phys. 16, 9904 (2014)

    Deriv               =              1
    GGA                 =           TRUE
    Meta                =          FALSE

    Exchange Hybrid     =           TRUE
    MP2 Hybrid          =          FALSE

   => Exchange-Correlation Functionals <=

    1.0000   wB97X-V range-separated functional

   => Exact (HF) Exchange <=

    0.8330            HF,LR [omega = 0.3000]
    0.1670               HF 

   => VV10 Non-Local Parameters <=

    VV10 B              =     6.0000E+00
    VV10 C              =     1.0000E-02

   => Molecular Quadrature <=

    Radial Scheme          =       TREUTLER
    Pruning Scheme         =           FLAT
    Nuclear Scheme         =       TREUTLER

    BS radius alpha        =              1
    Pruning alpha          =              1
    Radial Points          =             75
    Spherical Points       =            302
    Total Points           =          43136
    Total Blocks           =            406
    Max Points             =            256
    Max Functions          =            128

   => Loading Basis Set <=

    Name: (CC-PV(Q+D)Z AUX)
    Role: JKFIT
    Keyword: DF_BASIS_SCF
    atoms 1-2 entry S          line   673 file /work/zw18965/.conda/envs/p4env/share/psi4/basis/cc-pvqz-jkfit.gbs 

  ==> Pre-Iterations <==

   -------------------------------------------------------
    Irrep   Nso     Nmo     Nalpha   Nbeta   Ndocc  Nsocc
   -------------------------------------------------------
     Ag        26      26       0       0       0       0
     B1g        8       8       0       0       0       0
     B2g       15      15       0       0       0       0
     B3g       15      15       0       0       0       0
     Au         8       8       0       0       0       0
     B1u       26      26       0       0       0       0
     B2u       15      15       0       0       0       0
     B3u       15      15       0       0       0       0
   -------------------------------------------------------
    Total     128     128      17      15      15       2
   -------------------------------------------------------

  ==> Integral Setup <==

  ==> DiskDFJK: Density-Fitted J/K Matrices <==

    J tasked:                  Yes
    K tasked:                  Yes
    wK tasked:                 Yes
    Omega:               3.000E-01
    OpenMP threads:             24
    Integrals threads:          24
    Memory [MiB]:           102850
    Algorithm:                Core
    Integral Cache:           NONE
    Schwarz Cutoff:          1E-12
    Fitting Condition:       1E-10

   => Auxiliary Basis Set <=

  Basis Set: (CC-PV(Q+D)Z AUX)
    Blend: CC-PVQZ-JKFIT
    Number of shells: 80
    Number of basis function: 296
    Number of Cartesian functions: 382
    Spherical Harmonics?: true
    Max angular momentum: 5

  Cached 100.0% of DFT collocation blocks in 0.142 [GiB].

  Minimum eigenvalue in the overlap matrix is 3.0218219447E-04.
  Using Symmetric Orthogonalization.

  SCF Guess: Superposition of Atomic Densities via on-the-fly atomic UHF.

  ==> Iterations <==

                           Total Energy        Delta E     RMS |[F,P]|

   @DF-UKS iter SAD:  -795.95981607866941   -7.95960e+02   0.00000e+00 
   @DF-UKS iter   1:  -796.26722737525768   -3.07411e-01   5.19397e-03 DIIS
   @DF-UKS iter   2:  -796.28256631480633   -1.53389e-02   1.77693e-03 DIIS
   @DF-UKS iter   3:  -796.28410558180394   -1.53927e-03   2.43592e-04 DIIS
   @DF-UKS iter   4:  -796.28432883696985   -2.23255e-04   5.10686e-05 DIIS
   @DF-UKS iter   5:  -796.28433902838196   -1.01914e-05   1.06902e-05 DIIS
   @DF-UKS iter   6:  -796.28433930749043   -2.79108e-07   3.96158e-06 DIIS
   @DF-UKS iter   7:  -796.28433932965197   -2.21615e-08   7.59674e-07 DIIS
   @DF-UKS iter   8:  -796.28433933138183   -1.72986e-09   9.53522e-08 DIIS
   @DF-UKS iter   9:  -796.28433933141525   -3.34239e-11   1.23401e-08 DIIS
   @DF-UKS iter  10:  -796.28433933141571   -4.54747e-13   2.34472e-09 DIIS
   @DF-UKS iter  11:  -796.28433933141582   -1.13687e-13   4.36646e-10 DIIS
   @DF-UKS iter  12:  -796.28433933141582    0.00000e+00   9.01440e-11 DIIS
  Energy and wave function converged.


  ==> Post-Iterations <==

   @Spin Contamination Metric:   1.509041723E-02
   @S^2 Expected:                2.000000000E+00
   @S^2 Observed:                2.015090417E+00
   @S   Expected:                1.000000000E+00
   @S   Observed:                1.000000000E+00

    Orbital Energies [Eh]
    ---------------------

    Alpha Occupied:                                                       

       1B1u  -88.943619     1Ag   -88.943614     2Ag    -8.096753  
       2B1u   -8.096547     1B3u   -6.051795     1B2u   -6.051795  
       1B2g   -6.051738     1B3g   -6.051738     3Ag    -6.051261  
       3B1u   -6.050353     4Ag    -0.976539     4B1u   -0.754819  
       5Ag    -0.502310     2B3u   -0.491860     2B2u   -0.491860  
       2B2g   -0.341681     2B3g   -0.341681  

    Alpha Virtual:                                                        

       5B1u    0.076226     6Ag     0.205277     6B1u    0.221483  
       3B3u    0.233879     3B2u    0.233879     7Ag     0.261425  
       8Ag     0.269139     1B1g    0.269140     3B2g    0.308360  
       3B3g    0.308360     4B3u    0.310283     4B2u    0.310283  
       7B1u    0.405421     1Au     0.405423     8B1u    0.487040  
       9Ag     0.559965     4B2g    0.611224     4B3g    0.611224  
       9B1u    0.735611     5B2u    0.919212     5B3u    0.919212  
      10Ag     0.942861     2B1g    0.974058    11Ag     0.974058  
       6B2u    1.042608     6B3u    1.042608    12Ag     1.053250  
       3B1g    1.053253    10B1u    1.053863     2Au     1.053865  
       5B3g    1.153834     5B2g    1.153834    13Ag     1.194608  
      11B1u    1.199325     6B3g    1.204078     6B2g    1.204078  
       7B2u    1.281843     7B3u    1.281843     7B3g    1.306530  
       7B2g    1.306530     8B2u    1.400956     8B3u    1.400956  
      12B1u    1.471119     3Au     1.471128    13B1u    1.490816  
      14B1u    1.706250    14Ag     1.749714     8B3g    1.892854  
       8B2g    1.892854    15Ag     2.043161    15B1u    2.434822  
      16Ag     2.615395     4B1g    2.615404     9B2u    2.695541  
       9B3u    2.695541    17Ag     2.728944    16B1u    2.739247  
       4Au     2.739264    10B2u    2.810804    10B3u    2.810804  
      18Ag     2.827628     5B1g    2.827630    11B3u    2.844275  
      11B2u    2.844275     9B2g    2.900063     9B3g    2.900063  
      19Ag     2.991599     6B1g    2.991622    17B1u    3.065338  
       5Au     3.065362    20Ag     3.132113    12B3u    3.182569  
      12B2u    3.182569    10B2g    3.200579    10B3g    3.200579  
       7B1g    3.272929    21Ag     3.272930    18B1u    3.309850  
      11B2g    3.325435    11B3g    3.325435     6Au     3.344248  
      19B1u    3.344251    12B2g    3.503905    12B3g    3.503905  
      20B1u    3.582344    13B2u    3.754826    13B3u    3.754826  
       7Au     3.831638    21B1u    3.831639    22Ag     3.954528  
      22B1u    4.538453    13B3g    4.581073    13B2g    4.581073  
      14B2u    5.233850    14B3u    5.233850    14B3g    5.378862  
      14B2g    5.378862    23Ag     5.910725    23B1u    6.728795  
       8B1g    8.663456    24Ag     8.663505     8Au     8.725533  
      24B1u    8.725582    15B3u    8.733915    15B2u    8.733915  
      15B2g    8.979761    15B3g    8.979761    25B1u    9.078794  
      25Ag     9.156510    26Ag    16.974154    26B1u   19.250617  

    Beta Occupied:                                                        

       1B1u  -88.938153     1Ag   -88.938151     2Ag    -8.091541  
       2B1u   -8.091257     3Ag    -6.047828     3B1u   -6.046908  
       1B3u   -6.040649     1B2u   -6.040649     1B2g   -6.040573  
       1B3g   -6.040573     4Ag    -0.947806     4B1u   -0.686815  
       5Ag    -0.477530     2B3u   -0.429620     2B2u   -0.429620  

    Beta Virtual:                                                         

       2B3g   -0.053545     2B2g   -0.053545     5B1u    0.089716  
       6Ag     0.208259     6B1u    0.232416     3B3u    0.239901  
       3B2u    0.239901     7Ag     0.266761     8Ag     0.289170  
       1B1g    0.289171     3B2g    0.323310     3B3g    0.323310  
       4B3u    0.343723     4B2u    0.343723     7B1u    0.444719  
       1Au     0.444721     8B1u    0.498239     9Ag     0.576892  
       4B3g    0.628344     4B2g    0.628344     9B1u    0.742814  
       5B2u    0.929059     5B3u    0.929059    10Ag     0.948985  
       2B1g    0.992961    11Ag     0.992961     6B2u    1.059179  
       6B3u    1.059179    12Ag     1.076275     3B1g    1.076278  
      10B1u    1.083260     2Au     1.083262     5B3g    1.171102  
       5B2g    1.171102    13Ag     1.204447    11B1u    1.215065  
       6B3g    1.227191     6B2g    1.227191     7B2u    1.307712  
       7B3u    1.307712     7B3g    1.331066     7B2g    1.331066  
       8B2u    1.415632     8B3u    1.415632    12B1u    1.488035  
       3Au     1.488044    13B1u    1.500424    14B1u    1.720884  
      14Ag     1.771137     8B3g    1.906032     8B2g    1.906032  
      15Ag     2.052004    15B1u    2.453416    16Ag     2.635808  
       4B1g    2.635818     9B2u    2.706959     9B3u    2.706959  
      17Ag     2.743534    16B1u    2.762815     4Au     2.762833  
      10B2u    2.828872    10B3u    2.828872    18Ag     2.847699  
       5B1g    2.847701    11B3u    2.869980    11B2u    2.869980  
       9B2g    2.915179     9B3g    2.915179    19Ag     3.029469  
       6B1g    3.029492    17B1u    3.104397     5Au     3.104421  
      20Ag     3.147600    12B3u    3.227101    12B2u    3.227101  
      10B2g    3.233556    10B3g    3.233556     7B1g    3.304530  
      21Ag     3.304535    18B1u    3.322367    11B2g    3.365276  
      11B3g    3.365276     6Au     3.372433    19B1u    3.372440  
      12B2g    3.526530    12B3g    3.526530    20B1u    3.601806  
      13B2u    3.777213    13B3u    3.777213     7Au     3.855088  
      21B1u    3.855091    22Ag     3.966341    22B1u    4.547573  
      13B3g    4.596301    13B2g    4.596301    14B2u    5.256746  
      14B3u    5.256746    14B3g    5.401419    14B2g    5.401419  
      23Ag     5.917231    23B1u    6.736213     8B1g    8.677803  
      24Ag     8.677855     8Au     8.740517    24B1u    8.740568  
      15B3u    8.742152    15B2u    8.742152    15B2g    8.989998  
      15B3g    8.989998    25B1u    9.087605    25Ag     9.166091  
      26Ag    16.984773    26B1u   19.260721  

    Final Occupation by Irrep:
             Ag   B1g   B2g   B3g    Au   B1u   B2u   B3u 
    DOCC [     5,    0,    1,    1,    0,    4,    2,    2 ]
    SOCC [     0,    0,    1,    1,    0,    0,    0,    0 ]

  @DF-UKS Final Energy:  -796.28433933141582

   => Energetics <=

    Nuclear Repulsion Energy =             72.2928030531809611
    One-Electron Energy =               -1243.1770733478156217
    Two-Electron Energy =                 413.1872764036156696
    DFT Exchange-Correlation Energy =     -38.7209480816661085
    Empirical Dispersion Energy =           0.0000000000000000
    VV10 Nonlocal Energy =                  0.1336026412692931
    Total Energy =                       -796.2843393314159357

  UHF NO Occupations:
  HONO-2 :    2B2u 1.9969087
  HONO-1 :    2B3g 1.0000000
  HONO-0 :    2B2g 1.0000000
  LUNO+0 :    3B2u 0.0030913
  LUNO+1 :    3B3u 0.0030913
  LUNO+2 :    5B1u 0.0008064
  LUNO+3 :    6 Ag 0.0005325


Computation Completed


Properties will be evaluated at   0.000000,   0.000000,   0.000000 [a0]

Properties computed using the SCF density matrix

  Nuclear Dipole Moment: [e a0]
     X:     0.0000      Y:     0.0000      Z:     0.0000

  Electronic Dipole Moment: [e a0]
     X:     0.0000      Y:     0.0000      Z:     0.0000

  Dipole Moment: [e a0]
     X:     0.0000      Y:     0.0000      Z:     0.0000     Total:     0.0000

  Dipole Moment: [D]
     X:     0.0000      Y:     0.0000      Z:     0.0000     Total:     0.0000


*** tstop() called on bp1-compute00113.data.bp.acrc.priv at Tue Apr 27 17:07:56 2021
Module time:
	user time   =     166.82 seconds =       2.78 minutes
	system time =       9.96 seconds =       0.17 minutes
	total time  =          8 seconds =       0.13 minutes
Total time:
	user time   =    2002.17 seconds =      33.37 minutes
	system time =      99.15 seconds =       1.65 minutes
	total time  =         91 seconds =       1.52 minutes

         ----------------------------------------------------------
                                   FINDIF
                     R. A. King and Jonathon Misiewicz
         ---------------------------------------------------------

  Computing second-derivative from energies using projected, 
  symmetry-adapted, cartesian coordinates.

  3 energies passed in, including the reference geometry.
    Using 3-point formula.
    Energy without displacement: -796.2843399177
    Check energies below for precision!
    0: -1 :      -796.2843399216
    0: 1  :      -796.2843393314

-------------------------------------------------------------


  ==> Harmonic Vibrational Analysis <==

  non-mass-weighted Hessian:       Symmetric? True   Hermitian? True   Lin Dep Dim?  5 (0)
  projection of translations (True) and rotations (True) removed 5 degrees of freedom (5)
  total projector:                 Symmetric? True   Hermitian? True   Lin Dep Dim?  5 (5)
  mass-weighted Hessian:           Symmetric? True   Hermitian? True   Lin Dep Dim?  5 (0)
  pre-proj  low-frequency mode:    0.0000  [cm^-1]
  pre-proj  low-frequency mode:    0.0000  [cm^-1]
  pre-proj  low-frequency mode:    0.0000  [cm^-1]
  pre-proj  low-frequency mode:    0.0000  [cm^-1]
  pre-proj  low-frequency mode:    0.0000  [cm^-1]
  pre-proj  all modes:['0.0000' '0.0000' '0.0000' '0.0000' '0.0000' '784.6751']
  projected mass-weighted Hessian: Symmetric? True   Hermitian? True   Lin Dep Dim?  5 (5)
  post-proj low-frequency mode:    0.0000i [cm^-1] (TR)
  post-proj low-frequency mode:    0.0000  [cm^-1] (TR)
  post-proj low-frequency mode:    0.0000  [cm^-1] (TR)
  post-proj low-frequency mode:    0.0000  [cm^-1] (TR)
  post-proj low-frequency mode:    0.0000  [cm^-1] (TR)
  post-proj  all modes:['0.0000i' '0.0000' '0.0000' '0.0000' '0.0000' '784.6751']

  Vibration                       6           
  Freq [cm^-1]                 784.6751       
  Irrep                           Ag          
  Reduced mass [u]             31.9721        
  Force const [mDyne/A]        11.5985        
  Turning point v=0 [a0]        0.0693        
  RMS dev v=0 [a0 u^1/2]        0.2770        
  Char temp [K]               1128.9727       
  ----------------------------------------------------------------------------------
      1   S                0.00  0.00  0.71   
      2   S                0.00  0.00 -0.71   

  ==> Thermochemistry Components <==

  Entropy, S
    Electronic S            2.183 [cal/(mol K)]        9.134 [J/(mol K)]       0.00347910 [mEh/K] (multiplicity = 3)
    Translational S        38.385 [cal/(mol K)]      160.603 [J/(mol K)]       0.06117054 [mEh/K] (mol. weight = 63.9441 [u], P = 101325.00 [Pa])
    Rotational S           13.601 [cal/(mol K)]       56.907 [J/(mol K)]       0.02167465 [mEh/K] (symmetry no. = 2)
    Vibrational S           0.220 [cal/(mol K)]        0.921 [J/(mol K)]       0.00035081 [mEh/K]
  Total S                  54.389 [cal/(mol K)]      227.565 [J/(mol K)]       0.08667510 [mEh/K]
  Correction S              0.000 [cal/(mol K)]        0.000 [J/(mol K)]       0.00000000 [mEh/K]

  Constant volume heat capacity, Cv
    Electronic Cv           0.000 [cal/(mol K)]        0.000 [J/(mol K)]       0.00000000 [mEh/K]
    Translational Cv        2.981 [cal/(mol K)]       12.472 [J/(mol K)]       0.00475022 [mEh/K]
    Rotational Cv           1.987 [cal/(mol K)]        8.314 [J/(mol K)]       0.00316681 [mEh/K]
    Vibrational Cv          0.676 [cal/(mol K)]        2.830 [J/(mol K)]       0.00107781 [mEh/K]
  Total Cv                  5.644 [cal/(mol K)]       23.616 [J/(mol K)]       0.00899484 [mEh/K]
  Correction Cv             0.000 [cal/(mol K)]        0.000 [J/(mol K)]       0.00000000 [mEh/K]

  Constant pressure heat capacity, Cp
    Electronic Cp           0.000 [cal/(mol K)]        0.000 [J/(mol K)]       0.00000000 [mEh/K]
    Translational Cp        4.968 [cal/(mol K)]       20.786 [J/(mol K)]       0.00791703 [mEh/K]
    Rotational Cp           1.987 [cal/(mol K)]        8.314 [J/(mol K)]       0.00316681 [mEh/K]
    Vibrational Cp          0.676 [cal/(mol K)]        2.830 [J/(mol K)]       0.00107781 [mEh/K]
  Total Cp                  7.632 [cal/(mol K)]       31.930 [J/(mol K)]       0.01216165 [mEh/K]
  Correction Cp             0.000 [cal/(mol K)]        0.000 [J/(mol K)]       0.00000000 [mEh/K]

  ==> Thermochemistry Energy Analysis <==

  Raw electronic energy, E0
  Total E0, Electronic energy at well bottom at 0 [K]                 -796.28433992 [Eh]

  Zero-point energy, ZPE_vib = Sum_i nu_i / 2
    Electronic ZPE          0.000 [kcal/mol]        0.000 [kJ/mol]       0.00000000 [Eh]
    Translational ZPE       0.000 [kcal/mol]        0.000 [kJ/mol]       0.00000000 [Eh]
    Rotational ZPE          0.000 [kcal/mol]        0.000 [kJ/mol]       0.00000000 [Eh]
    Vibrational ZPE         1.122 [kcal/mol]        4.693 [kJ/mol]       0.00178762 [Eh]         392.338 [cm^-1]
  Correction ZPE            1.122 [kcal/mol]        4.693 [kJ/mol]       0.00178762 [Eh]         392.338 [cm^-1]
  Total ZPE, Electronic energy at 0 [K]                               -796.28255230 [Eh]

  Thermal Energy, E (includes ZPE)
    Electronic E            0.000 [kcal/mol]        0.000 [kJ/mol]       0.00000000 [Eh]
    Translational E         0.889 [kcal/mol]        3.718 [kJ/mol]       0.00141628 [Eh]
    Rotational E            0.592 [kcal/mol]        2.479 [kJ/mol]       0.00094418 [Eh]
    Vibrational E           1.174 [kcal/mol]        4.911 [kJ/mol]       0.00187056 [Eh]
  Correction E              2.655 [kcal/mol]       11.109 [kJ/mol]       0.00423102 [Eh]
  Total E, Electronic energy at  298.15 [K]                           -796.28010889 [Eh]

  Enthalpy, H_trans = E_trans + k_B * T
    Electronic H            0.000 [kcal/mol]        0.000 [kJ/mol]       0.00000000 [Eh]
    Translational H         1.481 [kcal/mol]        6.197 [kJ/mol]       0.00236046 [Eh]
    Rotational H            0.592 [kcal/mol]        2.479 [kJ/mol]       0.00094418 [Eh]
    Vibrational H           1.174 [kcal/mol]        4.911 [kJ/mol]       0.00187056 [Eh]
  Correction H              3.247 [kcal/mol]       13.588 [kJ/mol]       0.00517521 [Eh]
  Total H, Enthalpy at  298.15 [K]                                    -796.27916471 [Eh]

  Gibbs free energy, G = H - T * S
    Electronic G           -0.651 [kcal/mol]       -2.723 [kJ/mol]      -0.00103729 [Eh]
    Translational G        -9.963 [kcal/mol]      -41.686 [kJ/mol]      -0.01587754 [Eh]
    Rotational G           -3.463 [kcal/mol]      -14.488 [kJ/mol]      -0.00551811 [Eh]
    Vibrational G           1.108 [kcal/mol]        4.637 [kJ/mol]       0.00176597 [Eh]
  Correction G            -12.969 [kcal/mol]      -54.261 [kJ/mol]      -0.02066697 [Eh]
  Total G, Free enthalpy at  298.15 [K]                               -796.30500689 [Eh]

    Psi4 stopped on: Tuesday, 27 April 2021 05:07PM
    Psi4 wall time for execution: 0:01:30.80

*** Psi4 exiting successfully. Buy a developer a beer!
