
    -----------------------------------------------------------------------
          Psi4: An Open-Source Ab Initio Electronic Structure Package
                               Psi4 1.3.2 release

                         Git: Rev {HEAD} ecbda83 


    R. M. Parrish, L. A. Burns, D. G. A. Smith, A. C. Simmonett,
    A. E. DePrince III, E. G. Hohenstein, U. Bozkaya, A. Yu. Sokolov,
    R. Di Remigio, R. M. Richard, J. F. Gonthier, A. M. James,
    H. R. McAlexander, A. Kumar, M. Saitow, X. Wang, B. P. Pritchard,
    P. Verma, H. F. Schaefer III, K. Patkowski, R. A. King, E. F. Valeev,
    F. A. Evangelista, J. M. Turney, T. D. Crawford, and C. D. Sherrill,
    J. Chem. Theory Comput. 13(7) pp 3185--3197 (2017).
    (doi: 10.1021/acs.jctc.7b00174)


                         Additional Contributions by
    P. Kraus, H. Kruse, M. H. Lechner, M. C. Schieber, R. A. Shaw,
    A. Alenaizan, R. Galvelis, Z. L. Glick, S. Lehtola, and J. P. Misiewicz

    -----------------------------------------------------------------------


    Psi4 started on: Tuesday, 27 April 2021 05:07PM

    Process ID: 182857
    Host:       bp1-compute00140.data.bp.acrc.priv
    PSIDATADIR: /work/zw18965/.conda/envs/p4env/share/psi4
    Memory:     500.0 MiB
    Threads:    24
    
  ==> Input File <==

--------------------------------------------------------------------------
memory 144 GB

molecule {
0 3
S 0.0000000000 0.0000000000 0.0000000000
O 0.0000000000 0.0000000000 1.4862145500
}

set reference uks
set dynamic_level 1
set basis cc-pV(Q+d)Z
 
optimize("wB97X-V")
frequencies("wB97X-V")
--------------------------------------------------------------------------

  Memory set to 134.110 GiB by Python driver.
gradient() will perform gradient computation by finite difference of analytic energies.

         ----------------------------------------------------------
                                   FINDIF
                     R. A. King and Jonathon Misiewicz
         ---------------------------------------------------------

  Using finite-differences of energies to determine gradients.
    Generating geometries for use with 3-point formula.
    Displacement size will be 5.00e-03.
    Number of atoms is 2.
    Number of symmetric SALCs is 1.
    Translations projected? 1. Rotations projected? 1.
    Number of geometries (including reference) is 3.

  //>>>>>>>>>>>>>>>>>>>>>>>>>>>>>>>>>>>//
  //    Loading displacement 1 of 3    //
  //<<<<<<<<<<<<<<<<<<<<<<<<<<<<<<<<<<<//

*** tstart() called on bp1-compute00140.data.bp.acrc.priv
*** at Tue Apr 27 17:07:48 2021

   => Loading Basis Set <=

    Name: CC-PV(Q+D)Z
    Role: ORBITAL
    Keyword: BASIS
    atoms 1 entry S          line   978 file /work/zw18965/.conda/envs/p4env/share/psi4/basis/cc-pv_qpd_z.gbs 
    atoms 2 entry O          line   349 file /work/zw18965/.conda/envs/p4env/share/psi4/basis/cc-pv_qpd_z.gbs 


         ---------------------------------------------------------
                                   SCF
               by Justin Turney, Rob Parrish, Andy Simmonett
                          and Daniel G. A. Smith
                              UKS Reference
                       24 Threads, 137329 MiB Core
         ---------------------------------------------------------

  ==> Geometry <==

    Molecular point group: c2v
    Full point group: C_inf_v

    Geometry (in Angstrom), charge = 0, multiplicity = 3:

       Center              X                  Y                   Z               Mass       
    ------------   -----------------  -----------------  -----------------  -----------------
         S            0.000000000000     0.000000000000    -0.495588255967    31.972071174400
         O            0.000000000000     0.000000000000     0.990626294033    15.994914619570

  Running in c2v symmetry.

  Rotational constants: A = ************  B =      0.71585  C =      0.71585 [cm^-1]
  Rotational constants: A = ************  B =  21460.70147  C =  21460.70147 [MHz]
  Nuclear repulsion =   45.575306045658088

  Charge       = 0
  Multiplicity = 3
  Electrons    = 24
  Nalpha       = 13
  Nbeta        = 11

  ==> Algorithm <==

  SCF Algorithm Type is DF.
  DIIS enabled.
  MOM disabled.
  Fractional occupation disabled.
  Guess Type is SAD.
  Energy threshold   = 1.00e-08
  Density threshold  = 1.00e-08
  Integral threshold = 0.00e+00

  ==> Primary Basis <==

  Basis Set: CC-PV(Q+D)Z
    Blend: CC-PV(Q+D)Z
    Number of shells: 33
    Number of basis function: 119
    Number of Cartesian functions: 150
    Spherical Harmonics?: true
    Max angular momentum: 4

  ==> DFT Potential <==

   => Composite Functional: WB97X-V <= 

    wB97X-V Hyb-GGA Exchange-Correlation Functional

    N. Mardirossian and M. Head-Gordon, Phys. Chem. Chem. Phys. 16, 9904 (2014)

    Deriv               =              1
    GGA                 =           TRUE
    Meta                =          FALSE

    Exchange Hybrid     =           TRUE
    MP2 Hybrid          =          FALSE

   => Exchange-Correlation Functionals <=

    1.0000   wB97X-V range-separated functional

   => Exact (HF) Exchange <=

    0.8330            HF,LR [omega = 0.3000]
    0.1670               HF 

   => VV10 Non-Local Parameters <=

    VV10 B              =     6.0000E+00
    VV10 C              =     1.0000E-02

   => Molecular Quadrature <=

    Radial Scheme          =       TREUTLER
    Pruning Scheme         =           FLAT
    Nuclear Scheme         =       TREUTLER

    BS radius alpha        =              1
    Pruning alpha          =              1
    Radial Points          =             75
    Spherical Points       =            302
    Total Points           =          43670
    Total Blocks           =            402
    Max Points             =            256
    Max Functions          =            119

   => Loading Basis Set <=

    Name: (CC-PV(Q+D)Z AUX)
    Role: JKFIT
    Keyword: DF_BASIS_SCF
    atoms 1 entry S          line   673 file /work/zw18965/.conda/envs/p4env/share/psi4/basis/cc-pvqz-jkfit.gbs 
    atoms 2 entry O          line   253 file /work/zw18965/.conda/envs/p4env/share/psi4/basis/cc-pvqz-jkfit.gbs 

  ==> Pre-Iterations <==

   -------------------------------------------------------
    Irrep   Nso     Nmo     Nalpha   Nbeta   Ndocc  Nsocc
   -------------------------------------------------------
     A1        48      48       0       0       0       0
     A2        15      15       0       0       0       0
     B1        28      28       0       0       0       0
     B2        28      28       0       0       0       0
   -------------------------------------------------------
    Total     119     119      13      11      11       2
   -------------------------------------------------------

  ==> Integral Setup <==

  ==> DiskDFJK: Density-Fitted J/K Matrices <==

    J tasked:                  Yes
    K tasked:                  Yes
    wK tasked:                 Yes
    Omega:               3.000E-01
    OpenMP threads:             24
    Integrals threads:          24
    Memory [MiB]:           102861
    Algorithm:                Core
    Integral Cache:           NONE
    Schwarz Cutoff:          1E-12
    Fitting Condition:       1E-10

   => Auxiliary Basis Set <=

  Basis Set: (CC-PV(Q+D)Z AUX)
    Blend: CC-PVQZ-JKFIT
    Number of shells: 68
    Number of basis function: 254
    Number of Cartesian functions: 333
    Spherical Harmonics?: true
    Max angular momentum: 5

  Cached 100.0% of DFT collocation blocks in 0.132 [GiB].

  Minimum eigenvalue in the overlap matrix is 6.3061915798E-04.
  Using Symmetric Orthogonalization.

  SCF Guess: Superposition of Atomic Densities via on-the-fly atomic UHF.

  ==> Iterations <==

                           Total Energy        Delta E     RMS |[F,P]|

   @DF-UKS iter SAD:  -472.87607506345512   -4.72876e+02   0.00000e+00 
   @DF-UKS iter   1:  -473.24948147307589   -3.73406e-01   7.39824e-03 DIIS
   @DF-UKS iter   2:  -473.15937288753554    9.01086e-02   1.07701e-02 DIIS
   @DF-UKS iter   3:  -473.33099114698223   -1.71618e-01   9.21198e-04 DIIS
   @DF-UKS iter   4:  -473.33232222063111   -1.33107e-03   2.26805e-04 DIIS
   @DF-UKS iter   5:  -473.33252995561179   -2.07735e-04   6.63252e-05 DIIS
   @DF-UKS iter   6:  -473.33255521000206   -2.52544e-05   2.40610e-05 DIIS
   @DF-UKS iter   7:  -473.33255992119769   -4.71120e-06   1.06345e-05 DIIS
   @DF-UKS iter   8:  -473.33256051915322   -5.97956e-07   3.98798e-06 DIIS
   @DF-UKS iter   9:  -473.33256059605390   -7.69007e-08   5.88823e-07 DIIS
   @DF-UKS iter  10:  -473.33256059807957   -2.02567e-09   1.40362e-07 DIIS
   @DF-UKS iter  11:  -473.33256059821491   -1.35344e-10   5.25744e-08 DIIS
   @DF-UKS iter  12:  -473.33256059822611   -1.11982e-11   9.84794e-09 DIIS
  Energy and wave function converged.


  ==> Post-Iterations <==

   @Spin Contamination Metric:   1.171301696E-02
   @S^2 Expected:                2.000000000E+00
   @S^2 Observed:                2.011713017E+00
   @S   Expected:                1.000000000E+00
   @S   Observed:                1.000000000E+00

    Orbital Energies [Eh]
    ---------------------

    Alpha Occupied:                                                       

       1A1   -88.984738     2A1   -19.284651     3A1    -8.133854  
       1B2    -6.089789     1B1    -6.089789     4A1    -6.088124  
       5A1    -1.220454     6A1    -0.811994     2B1    -0.573126  
       2B2    -0.573126     7A1    -0.565308     3B2    -0.366482  
       3B1    -0.366482  

    Alpha Virtual:                                                        

       8A1     0.085157     9A1     0.255897     4B2     0.257399  
       4B1     0.257399    10A1     0.297410     1A2     0.305032  
      11A1     0.305032     5B2     0.408280     5B1     0.408280  
      12A1     0.437786     6B1     0.566773     6B2     0.566773  
      13A1     0.672383    14A1     0.919461     2A2     0.976773  
      15A1     0.976775    16A1     0.988922     3A2     0.988923  
       7B2     1.004427     7B1     1.004427    17A1     1.087431  
       8B2     1.096206     8B1     1.096206     9B2     1.247658  
       9B1     1.247658    10B2     1.284333    10B1     1.284333  
      18A1     1.305209     4A2     1.406245    19A1     1.406250  
      20A1     1.453864    21A1     1.728027    11B1     1.745172  
      11B2     1.745172    22A1     2.058335    12B1     2.497044  
      12B2     2.497044     5A2     2.648396    23A1     2.648405  
      24A1     2.680460    13B2     2.780675    13B1     2.780675  
       6A2     2.856900    25A1     2.856900    14B2     2.867625  
      14B1     2.867625    15B2     2.951755    15B1     2.951755  
       7A2     2.999419    26A1     2.999425    27A1     3.166085  
      16B1     3.171151    16B2     3.171151     8A2     3.230489  
      28A1     3.230491    17B2     3.376943    17B1     3.376943  
      29A1     3.421536    18B2     3.574373    18B1     3.574373  
      30A1     3.608433    31A1     3.832599     9A2     3.832600  
      32A1     3.865854    10A2     4.070959    33A1     4.070965  
      19B1     4.307129    19B2     4.307129    34A1     4.575560  
      20B2     4.714148    20B1     4.714148    35A1     4.823222  
      21B2     5.420872    21B1     5.420872    36A1     7.131271  
      37A1     8.597703    22B2     8.604862    22B1     8.604862  
      38A1     8.650706    11A2     8.650742    12A2     8.901034  
      39A1     8.901271    23B1     8.922402    23B2     8.922402  
      40A1     9.096817    13A2     9.096819    24B1     9.436256  
      24B2     9.436256    41A1     9.731776    25B1     9.999006  
      25B2     9.999006    42A1    10.743014    26B2    10.964440  
      26B1    10.964440    14A2    11.194202    43A1    11.194204  
      27B1    11.765513    27B2    11.765513    44A1    11.865975  
      45A1    11.995662    15A2    11.995798    28B1    12.268771  
      28B2    12.268771    46A1    13.010471    47A1    18.069377  
      48A1    40.673492  

    Beta Occupied:                                                        

       1A1   -88.978403     2A1   -19.266179     3A1    -8.127678  
       4A1    -6.084349     1B2    -6.076569     1B1    -6.076569  
       5A1    -1.179962     6A1    -0.738104     7A1    -0.531592  
       2B2    -0.496975     2B1    -0.496975  

    Beta Virtual:                                                         

       3B2    -0.037131     3B1    -0.037131     8A1     0.100932  
       9A1     0.264738     4B1     0.271274     4B2     0.271274  
      10A1     0.310083     1A2     0.340096    11A1     0.340096  
       5B2     0.443229     5B1     0.443229    12A1     0.443833  
       6B2     0.581804     6B1     0.581804    13A1     0.685201  
      14A1     0.929597     2A2     0.997418    15A1     0.997418  
      16A1     1.021584     3A2     1.021584     7B2     1.021755  
       7B1     1.021755    17A1     1.107706     8B2     1.121278  
       8B1     1.121278     9B2     1.271717     9B1     1.271717  
      10B1     1.311010    10B2     1.311010    18A1     1.319918  
       4A2     1.428579    19A1     1.428585    20A1     1.466157  
      21A1     1.743970    11B2     1.761767    11B1     1.761767  
      22A1     2.074755    12B2     2.534048    12B1     2.534048  
       5A2     2.675918    23A1     2.675924    24A1     2.695942  
      13B2     2.802686    13B1     2.802686     6A2     2.875090  
      25A1     2.875091    14B2     2.895676    14B1     2.895676  
      15B1     2.972037    15B2     2.972037     7A2     3.048105  
      26A1     3.048110    27A1     3.188025    16B1     3.223473  
      16B2     3.223473     8A2     3.269693    28A1     3.269695  
      17B2     3.408420    17B1     3.408420    29A1     3.448436  
      18B2     3.601018    18B1     3.601018    30A1     3.629809  
      31A1     3.879248     9A2     3.879250    32A1     3.889717  
      10A2     4.099841    33A1     4.099844    19B2     4.335457  
      19B1     4.335457    34A1     4.592245    20B2     4.737773  
      20B1     4.737773    35A1     4.838403    21B2     5.446265  
      21B1     5.446265    36A1     7.152686    37A1     8.612211  
      22B2     8.618483    22B1     8.618483    38A1     8.668646  
      11A2     8.668683    12A2     8.946924    39A1     8.947151  
      23B2     8.955891    23B1     8.955891    40A1     9.123693  
      13A2     9.123698    24B2     9.459603    24B1     9.459603  
      41A1     9.750724    25B2    10.050875    25B1    10.050875  
      42A1    10.773747    26B2    11.034253    26B1    11.034253  
      14A2    11.244103    43A1    11.244105    27B2    11.800206  
      27B1    11.800206    44A1    11.888827    45A1    12.082013  
      15A2    12.082138    28B2    12.321908    28B1    12.321908  
      46A1    13.045201    47A1    18.081807    48A1    40.700662  

    Final Occupation by Irrep:
             A1    A2    B1    B2 
    DOCC [     7,    0,    2,    2 ]
    SOCC [     0,    0,    1,    1 ]

  @DF-UKS Final Energy:  -473.33256059822611

   => Energetics <=

    Nuclear Repulsion Energy =             45.5753060456580883
    One-Electron Energy =                -743.2943591474711411
    Two-Electron Energy =                 249.7665711863579645
    DFT Exchange-Correlation Energy =     -25.4809100624396550
    Empirical Dispersion Energy =           0.0000000000000000
    VV10 Nonlocal Energy =                  0.1008313796686598
    Total Energy =                       -473.3325605982261095

  UHF NO Occupations:
  HONO-2 :    2 B1 1.9977896
  HONO-1 :    3 B1 1.0000000
  HONO-0 :    3 B2 1.0000000
  LUNO+0 :    4 B1 0.0022104
  LUNO+1 :    4 B2 0.0022104
  LUNO+2 :    8 A1 0.0011086
  LUNO+3 :    9 A1 0.0002464


Computation Completed


Properties will be evaluated at   0.000000,   0.000000,   0.000000 [a0]

Properties computed using the SCF density matrix

  Nuclear Dipole Moment: [e a0]
     X:     0.0000      Y:     0.0000      Z:    -0.0083

  Electronic Dipole Moment: [e a0]
     X:     0.0000      Y:     0.0000      Z:    -0.6144

  Dipole Moment: [e a0]
     X:     0.0000      Y:     0.0000      Z:    -0.6227     Total:     0.6227

  Dipole Moment: [D]
     X:     0.0000      Y:     0.0000      Z:    -1.5828     Total:     1.5828


*** tstop() called on bp1-compute00140.data.bp.acrc.priv at Tue Apr 27 17:07:55 2021
Module time:
	user time   =     152.54 seconds =       2.54 minutes
	system time =       9.07 seconds =       0.15 minutes
	total time  =          7 seconds =       0.12 minutes
Total time:
	user time   =     152.54 seconds =       2.54 minutes
	system time =       9.07 seconds =       0.15 minutes
	total time  =          7 seconds =       0.12 minutes

  //>>>>>>>>>>>>>>>>>>>>>>>>>>>>>>>>>>>//
  //    Loading displacement 2 of 3    //
  //<<<<<<<<<<<<<<<<<<<<<<<<<<<<<<<<<<<//

*** tstart() called on bp1-compute00140.data.bp.acrc.priv
*** at Tue Apr 27 17:07:55 2021

   => Loading Basis Set <=

    Name: CC-PV(Q+D)Z
    Role: ORBITAL
    Keyword: BASIS
    atoms 1 entry S          line   978 file /work/zw18965/.conda/envs/p4env/share/psi4/basis/cc-pv_qpd_z.gbs 
    atoms 2 entry O          line   349 file /work/zw18965/.conda/envs/p4env/share/psi4/basis/cc-pv_qpd_z.gbs 


         ---------------------------------------------------------
                                   SCF
               by Justin Turney, Rob Parrish, Andy Simmonett
                          and Daniel G. A. Smith
                              UKS Reference
                       24 Threads, 137329 MiB Core
         ---------------------------------------------------------

  ==> Geometry <==

    Molecular point group: c2v
    Full point group: C_inf_v

    Geometry (in Angstrom), charge = 0, multiplicity = 3:

       Center              X                  Y                   Z               Mass       
    ------------   -----------------  -----------------  -----------------  -----------------
         S            0.000000000000     0.000000000000    -0.495858468507    31.972071174400
         O            0.000000000000     0.000000000000     0.991166419115    15.994914619570

  Running in c2v symmetry.

  Rotational constants: A = ************  B =      0.71507  C =      0.71507 [cm^-1]
  Rotational constants: A = ************  B =  21437.31830  C =  21437.31830 [MHz]
  Nuclear repulsion =   45.550470291095749

  Charge       = 0
  Multiplicity = 3
  Electrons    = 24
  Nalpha       = 13
  Nbeta        = 11

  ==> Algorithm <==

  SCF Algorithm Type is DF.
  DIIS enabled.
  MOM disabled.
  Fractional occupation disabled.
  Guess Type is SAD.
  Energy threshold   = 1.00e-08
  Density threshold  = 1.00e-08
  Integral threshold = 0.00e+00

  ==> Primary Basis <==

  Basis Set: CC-PV(Q+D)Z
    Blend: CC-PV(Q+D)Z
    Number of shells: 33
    Number of basis function: 119
    Number of Cartesian functions: 150
    Spherical Harmonics?: true
    Max angular momentum: 4

  ==> DFT Potential <==

   => Composite Functional: WB97X-V <= 

    wB97X-V Hyb-GGA Exchange-Correlation Functional

    N. Mardirossian and M. Head-Gordon, Phys. Chem. Chem. Phys. 16, 9904 (2014)

    Deriv               =              1
    GGA                 =           TRUE
    Meta                =          FALSE

    Exchange Hybrid     =           TRUE
    MP2 Hybrid          =          FALSE

   => Exchange-Correlation Functionals <=

    1.0000   wB97X-V range-separated functional

   => Exact (HF) Exchange <=

    0.8330            HF,LR [omega = 0.3000]
    0.1670               HF 

   => VV10 Non-Local Parameters <=

    VV10 B              =     6.0000E+00
    VV10 C              =     1.0000E-02

   => Molecular Quadrature <=

    Radial Scheme          =       TREUTLER
    Pruning Scheme         =           FLAT
    Nuclear Scheme         =       TREUTLER

    BS radius alpha        =              1
    Pruning alpha          =              1
    Radial Points          =             75
    Spherical Points       =            302
    Total Points           =          43670
    Total Blocks           =            402
    Max Points             =            256
    Max Functions          =            119

   => Loading Basis Set <=

    Name: (CC-PV(Q+D)Z AUX)
    Role: JKFIT
    Keyword: DF_BASIS_SCF
    atoms 1 entry S          line   673 file /work/zw18965/.conda/envs/p4env/share/psi4/basis/cc-pvqz-jkfit.gbs 
    atoms 2 entry O          line   253 file /work/zw18965/.conda/envs/p4env/share/psi4/basis/cc-pvqz-jkfit.gbs 

  ==> Pre-Iterations <==

   -------------------------------------------------------
    Irrep   Nso     Nmo     Nalpha   Nbeta   Ndocc  Nsocc
   -------------------------------------------------------
     A1        48      48       0       0       0       0
     A2        15      15       0       0       0       0
     B1        28      28       0       0       0       0
     B2        28      28       0       0       0       0
   -------------------------------------------------------
    Total     119     119      13      11      11       2
   -------------------------------------------------------

  ==> Integral Setup <==

  ==> DiskDFJK: Density-Fitted J/K Matrices <==

    J tasked:                  Yes
    K tasked:                  Yes
    wK tasked:                 Yes
    Omega:               3.000E-01
    OpenMP threads:             24
    Integrals threads:          24
    Memory [MiB]:           102861
    Algorithm:                Core
    Integral Cache:           NONE
    Schwarz Cutoff:          1E-12
    Fitting Condition:       1E-10

   => Auxiliary Basis Set <=

  Basis Set: (CC-PV(Q+D)Z AUX)
    Blend: CC-PVQZ-JKFIT
    Number of shells: 68
    Number of basis function: 254
    Number of Cartesian functions: 333
    Spherical Harmonics?: true
    Max angular momentum: 5

  Cached 100.0% of DFT collocation blocks in 0.132 [GiB].

  Minimum eigenvalue in the overlap matrix is 6.3125533362E-04.
  Using Symmetric Orthogonalization.

  SCF Guess: Superposition of Atomic Densities via on-the-fly atomic UHF.

  ==> Iterations <==

                           Total Energy        Delta E     RMS |[F,P]|

   @DF-UKS iter SAD:  -472.87453076756850   -4.72875e+02   0.00000e+00 
   @DF-UKS iter   1:  -473.24942700309430   -3.74896e-01   7.39820e-03 DIIS
   @DF-UKS iter   2:  -473.15891305147107    9.05140e-02   1.07815e-02 DIIS
   @DF-UKS iter   3:  -473.33097107169806   -1.72058e-01   9.21348e-04 DIIS
   @DF-UKS iter   4:  -473.33230328470228   -1.33221e-03   2.27279e-04 DIIS
   @DF-UKS iter   5:  -473.33251178419249   -2.08499e-04   6.65832e-05 DIIS
   @DF-UKS iter   6:  -473.33253724369268   -2.54595e-05   2.41969e-05 DIIS
   @DF-UKS iter   7:  -473.33254201064176   -4.76695e-06   1.06949e-05 DIIS
   @DF-UKS iter   8:  -473.33254261635369   -6.05712e-07   4.00765e-06 DIIS
   @DF-UKS iter   9:  -473.33254269396264   -7.76089e-08   5.90068e-07 DIIS
   @DF-UKS iter  10:  -473.33254269599615   -2.03352e-09   1.40775e-07 DIIS
   @DF-UKS iter  11:  -473.33254269613252   -1.36367e-10   5.28311e-08 DIIS
   @DF-UKS iter  12:  -473.33254269614383   -1.13118e-11   9.89440e-09 DIIS
  Energy and wave function converged.


  ==> Post-Iterations <==

   @Spin Contamination Metric:   1.172959678E-02
   @S^2 Expected:                2.000000000E+00
   @S^2 Observed:                2.011729597E+00
   @S   Expected:                1.000000000E+00
   @S   Observed:                1.000000000E+00

    Orbital Energies [Eh]
    ---------------------

    Alpha Occupied:                                                       

       1A1   -88.984819     2A1   -19.284748     3A1    -8.133912  
       1B2    -6.089848     1B1    -6.089848     4A1    -6.088185  
       5A1    -1.220122     6A1    -0.812118     2B1    -0.572955  
       2B2    -0.572955     7A1    -0.565231     3B2    -0.366614  
       3B1    -0.366614  

    Alpha Virtual:                                                        

       8A1     0.085002     9A1     0.255911     4B2     0.257407  
       4B1     0.257407    10A1     0.297325     1A2     0.305038  
      11A1     0.305039     5B2     0.408104     5B1     0.408104  
      12A1     0.437642     6B1     0.566842     6B2     0.566842  
      13A1     0.672123    14A1     0.919306     2A2     0.976726  
      15A1     0.976728    16A1     0.988963     3A2     0.988964  
       7B2     1.004365     7B1     1.004365    17A1     1.087167  
       8B1     1.096210     8B2     1.096210     9B2     1.247523  
       9B1     1.247523    10B2     1.284142    10B1     1.284142  
      18A1     1.305262     4A2     1.405990    19A1     1.405996  
      20A1     1.453644    21A1     1.728265    11B1     1.745209  
      11B2     1.745209    22A1     2.057662    12B1     2.496703  
      12B2     2.496703     5A2     2.648359    23A1     2.648368  
      24A1     2.680398    13B2     2.780541    13B1     2.780541  
       6A2     2.856787    25A1     2.856787    14B2     2.867864  
      14B1     2.867864    15B2     2.951257    15B1     2.951257  
       7A2     2.999419    26A1     2.999425    27A1     3.165832  
      16B2     3.171124    16B1     3.171124     8A2     3.230342  
      28A1     3.230345    17B2     3.376513    17B1     3.376513  
      29A1     3.421701    18B2     3.574107    18B1     3.574107  
      30A1     3.607633    31A1     3.831994     9A2     3.831996  
      32A1     3.864875    10A2     4.070233    33A1     4.070239  
      19B1     4.306502    19B2     4.306502    34A1     4.573399  
      20B2     4.713956    20B1     4.713956    35A1     4.824142  
      21B2     5.419343    21B1     5.419343    36A1     7.128507  
      37A1     8.597038    22B2     8.605776    22B1     8.605776  
      38A1     8.650659    11A2     8.650695    12A2     8.901087  
      39A1     8.901326    23B1     8.922303    23B2     8.922303  
      40A1     9.096220    13A2     9.096223    24B1     9.434412  
      24B2     9.434412    41A1     9.730464    25B1     9.998375  
      25B2     9.998375    42A1    10.742882    26B2    10.964344  
      26B1    10.964344    14A2    11.193646    43A1    11.193648  
      27B1    11.764276    27B2    11.764276    44A1    11.866351  
      45A1    11.995533    15A2    11.995669    28B1    12.268203  
      28B2    12.268203    46A1    13.008062    47A1    18.063131  
      48A1    40.670363  

    Beta Occupied:                                                        

       1A1   -88.978483     2A1   -19.266265     3A1    -8.127735  
       4A1    -6.084411     1B2    -6.076627     1B1    -6.076627  
       5A1    -1.179587     6A1    -0.738233     7A1    -0.531531  
       2B2    -0.496746     2B1    -0.496746  

    Beta Virtual:                                                         

       3B2    -0.037263     3B1    -0.037263     8A1     0.100796  
       9A1     0.264745     4B1     0.271273     4B2     0.271273  
      10A1     0.309988     1A2     0.340096    11A1     0.340096  
       5B2     0.443049     5B1     0.443049    12A1     0.443690  
       6B2     0.581886     6B1     0.581886    13A1     0.684947  
      14A1     0.929449     2A2     0.997426    15A1     0.997426  
      16A1     1.021559     3A2     1.021560     7B2     1.021685  
       7B1     1.021685    17A1     1.107432     8B2     1.121276  
       8B1     1.121276     9B2     1.271512     9B1     1.271512  
      10B1     1.310881    10B2     1.310881    18A1     1.319968  
       4A2     1.428330    19A1     1.428336    20A1     1.465931  
      21A1     1.744204    11B2     1.761801    11B1     1.761801  
      22A1     2.074083    12B2     2.533762    12B1     2.533762  
       5A2     2.675871    23A1     2.675878    24A1     2.695879  
      13B2     2.802527    13B1     2.802527     6A2     2.874986  
      25A1     2.874986    14B2     2.895926    14B1     2.895926  
      15B1     2.971524    15B2     2.971524     7A2     3.048096  
      26A1     3.048100    27A1     3.187776    16B2     3.223430  
      16B1     3.223430     8A2     3.269531    28A1     3.269533  
      17B2     3.408000    17B1     3.408000    29A1     3.448621  
      18B2     3.600752    18B1     3.600752    30A1     3.629025  
      31A1     3.878607     9A2     3.878608    32A1     3.888736  
      10A2     4.099189    33A1     4.099192    19B2     4.334878  
      19B1     4.334878    34A1     4.590052    20B2     4.737547  
      20B1     4.737547    35A1     4.839360    21B2     5.444740  
      21B1     5.444740    36A1     7.149924    37A1     8.611542  
      22B2     8.619391    22B1     8.619391    38A1     8.668596  
      11A2     8.668633    12A2     8.947009    39A1     8.947237  
      23B2     8.955820    23B1     8.955820    40A1     9.123116  
      13A2     9.123121    24B2     9.457773    24B1     9.457773  
      41A1     9.749414    25B2    10.050282    25B1    10.050282  
      42A1    10.773647    26B2    11.034200    26B1    11.034200  
      14A2    11.243582    43A1    11.243584    27B2    11.799014  
      27B1    11.799014    44A1    11.889214    45A1    12.081937  
      15A2    12.082062    28B2    12.321368    28B1    12.321368  
      46A1    13.042827    47A1    18.075564    48A1    40.697547  

    Final Occupation by Irrep:
             A1    A2    B1    B2 
    DOCC [     7,    0,    2,    2 ]
    SOCC [     0,    0,    1,    1 ]

  @DF-UKS Final Energy:  -473.33254269614383

   => Energetics <=

    Nuclear Repulsion Energy =             45.5504702910957491
    One-Electron Energy =                -743.2452535632072568
    Two-Electron Energy =                 249.7418555775581979
    DFT Exchange-Correlation Energy =     -25.4804471895259823
    Empirical Dispersion Energy =           0.0000000000000000
    VV10 Nonlocal Energy =                  0.1008321879354833
    Total Energy =                       -473.3325426961437756

  UHF NO Occupations:
  HONO-2 :    2 B1 1.9977857
  HONO-1 :    3 B1 1.0000000
  HONO-0 :    3 B2 1.0000000
  LUNO+0 :    4 B1 0.0022143
  LUNO+1 :    4 B2 0.0022143
  LUNO+2 :    8 A1 0.0011088
  LUNO+3 :    9 A1 0.0002466


Computation Completed


Properties will be evaluated at   0.000000,   0.000000,   0.000000 [a0]

Properties computed using the SCF density matrix

  Nuclear Dipole Moment: [e a0]
     X:     0.0000      Y:     0.0000      Z:    -0.0083

  Electronic Dipole Moment: [e a0]
     X:     0.0000      Y:     0.0000      Z:    -0.6151

  Dipole Moment: [e a0]
     X:     0.0000      Y:     0.0000      Z:    -0.6234     Total:     0.6234

  Dipole Moment: [D]
     X:     0.0000      Y:     0.0000      Z:    -1.5845     Total:     1.5845


*** tstop() called on bp1-compute00140.data.bp.acrc.priv at Tue Apr 27 17:08:02 2021
Module time:
	user time   =     152.05 seconds =       2.53 minutes
	system time =       8.08 seconds =       0.13 minutes
	total time  =          7 seconds =       0.12 minutes
Total time:
	user time   =     304.72 seconds =       5.08 minutes
	system time =      17.15 seconds =       0.29 minutes
	total time  =         14 seconds =       0.23 minutes

  //>>>>>>>>>>>>>>>>>>>>>>>>>>>>>>>>>>>//
  //    Loading displacement 3 of 3    //
  //<<<<<<<<<<<<<<<<<<<<<<<<<<<<<<<<<<<//

*** tstart() called on bp1-compute00140.data.bp.acrc.priv
*** at Tue Apr 27 17:08:02 2021

   => Loading Basis Set <=

    Name: CC-PV(Q+D)Z
    Role: ORBITAL
    Keyword: BASIS
    atoms 1 entry S          line   978 file /work/zw18965/.conda/envs/p4env/share/psi4/basis/cc-pv_qpd_z.gbs 
    atoms 2 entry O          line   349 file /work/zw18965/.conda/envs/p4env/share/psi4/basis/cc-pv_qpd_z.gbs 


         ---------------------------------------------------------
                                   SCF
               by Justin Turney, Rob Parrish, Andy Simmonett
                          and Daniel G. A. Smith
                              UKS Reference
                       24 Threads, 137329 MiB Core
         ---------------------------------------------------------

  ==> Geometry <==

    Molecular point group: c2v
    Full point group: C_inf_v

    Geometry (in Angstrom), charge = 0, multiplicity = 3:

       Center              X                  Y                   Z               Mass       
    ------------   -----------------  -----------------  -----------------  -----------------
         S            0.000000000000     0.000000000000    -0.495318043426    31.972071174400
         O            0.000000000000     0.000000000000     0.990086168951    15.994914619570

  Running in c2v symmetry.

  Rotational constants: A = ************  B =      0.71663  C =      0.71663 [cm^-1]
  Rotational constants: A = ************  B =  21484.12291  C =  21484.12291 [MHz]
  Nuclear repulsion =   45.600168897688086

  Charge       = 0
  Multiplicity = 3
  Electrons    = 24
  Nalpha       = 13
  Nbeta        = 11

  ==> Algorithm <==

  SCF Algorithm Type is DF.
  DIIS enabled.
  MOM disabled.
  Fractional occupation disabled.
  Guess Type is SAD.
  Energy threshold   = 1.00e-08
  Density threshold  = 1.00e-08
  Integral threshold = 0.00e+00

  ==> Primary Basis <==

  Basis Set: CC-PV(Q+D)Z
    Blend: CC-PV(Q+D)Z
    Number of shells: 33
    Number of basis function: 119
    Number of Cartesian functions: 150
    Spherical Harmonics?: true
    Max angular momentum: 4

  ==> DFT Potential <==

   => Composite Functional: WB97X-V <= 

    wB97X-V Hyb-GGA Exchange-Correlation Functional

    N. Mardirossian and M. Head-Gordon, Phys. Chem. Chem. Phys. 16, 9904 (2014)

    Deriv               =              1
    GGA                 =           TRUE
    Meta                =          FALSE

    Exchange Hybrid     =           TRUE
    MP2 Hybrid          =          FALSE

   => Exchange-Correlation Functionals <=

    1.0000   wB97X-V range-separated functional

   => Exact (HF) Exchange <=

    0.8330            HF,LR [omega = 0.3000]
    0.1670               HF 

   => VV10 Non-Local Parameters <=

    VV10 B              =     6.0000E+00
    VV10 C              =     1.0000E-02

   => Molecular Quadrature <=

    Radial Scheme          =       TREUTLER
    Pruning Scheme         =           FLAT
    Nuclear Scheme         =       TREUTLER

    BS radius alpha        =              1
    Pruning alpha          =              1
    Radial Points          =             75
    Spherical Points       =            302
    Total Points           =          43670
    Total Blocks           =            402
    Max Points             =            256
    Max Functions          =            119

   => Loading Basis Set <=

    Name: (CC-PV(Q+D)Z AUX)
    Role: JKFIT
    Keyword: DF_BASIS_SCF
    atoms 1 entry S          line   673 file /work/zw18965/.conda/envs/p4env/share/psi4/basis/cc-pvqz-jkfit.gbs 
    atoms 2 entry O          line   253 file /work/zw18965/.conda/envs/p4env/share/psi4/basis/cc-pvqz-jkfit.gbs 

  ==> Pre-Iterations <==

   -------------------------------------------------------
    Irrep   Nso     Nmo     Nalpha   Nbeta   Ndocc  Nsocc
   -------------------------------------------------------
     A1        48      48       0       0       0       0
     A2        15      15       0       0       0       0
     B1        28      28       0       0       0       0
     B2        28      28       0       0       0       0
   -------------------------------------------------------
    Total     119     119      13      11      11       2
   -------------------------------------------------------

  ==> Integral Setup <==

  ==> DiskDFJK: Density-Fitted J/K Matrices <==

    J tasked:                  Yes
    K tasked:                  Yes
    wK tasked:                 Yes
    Omega:               3.000E-01
    OpenMP threads:             24
    Integrals threads:          24
    Memory [MiB]:           102861
    Algorithm:                Core
    Integral Cache:           NONE
    Schwarz Cutoff:          1E-12
    Fitting Condition:       1E-10

   => Auxiliary Basis Set <=

  Basis Set: (CC-PV(Q+D)Z AUX)
    Blend: CC-PVQZ-JKFIT
    Number of shells: 68
    Number of basis function: 254
    Number of Cartesian functions: 333
    Spherical Harmonics?: true
    Max angular momentum: 5

  Cached 100.0% of DFT collocation blocks in 0.133 [GiB].

  Minimum eigenvalue in the overlap matrix is 6.2997925780E-04.
  Using Symmetric Orthogonalization.

  SCF Guess: Superposition of Atomic Densities via on-the-fly atomic UHF.

  ==> Iterations <==

                           Total Energy        Delta E     RMS |[F,P]|

   @DF-UKS iter SAD:  -472.87764680651355   -4.72878e+02   0.00000e+00 
   @DF-UKS iter   1:  -473.24953852805589   -3.71892e-01   7.39815e-03 DIIS
   @DF-UKS iter   2:  -473.15983813440914    8.97004e-02   1.07585e-02 DIIS
   @DF-UKS iter   3:  -473.33101005097626   -1.71172e-01   9.21018e-04 DIIS
   @DF-UKS iter   4:  -473.33233988130195   -1.32983e-03   2.26305e-04 DIIS
   @DF-UKS iter   5:  -473.33254680600817   -2.06925e-04   6.60527e-05 DIIS
   @DF-UKS iter   6:  -473.33257184724937   -2.50412e-05   2.39192e-05 DIIS
   @DF-UKS iter   7:  -473.33257650136193   -4.65411e-06   1.05712e-05 DIIS
   @DF-UKS iter   8:  -473.33257709119914   -5.89837e-07   3.96720e-06 DIIS
   @DF-UKS iter   9:  -473.33257716735119   -7.61520e-08   5.87600e-07 DIIS
   @DF-UKS iter  10:  -473.33257716936953   -2.01834e-09   1.39959e-07 DIIS
   @DF-UKS iter  11:  -473.33257716950425   -1.34719e-10   5.23206e-08 DIIS
   @DF-UKS iter  12:  -473.33257716951556   -1.13118e-11   9.80239e-09 DIIS
  Energy and wave function converged.


  ==> Post-Iterations <==

   @Spin Contamination Metric:   1.169643474E-02
   @S^2 Expected:                2.000000000E+00
   @S^2 Observed:                2.011696435E+00
   @S   Expected:                1.000000000E+00
   @S   Observed:                1.000000000E+00

    Orbital Energies [Eh]
    ---------------------

    Alpha Occupied:                                                       

       1A1   -88.984657     2A1   -19.284553     3A1    -8.133796  
       1B1    -6.089731     1B2    -6.089731     4A1    -6.088063  
       5A1    -1.220786     6A1    -0.811869     2B2    -0.573298  
       2B1    -0.573298     7A1    -0.565384     3B1    -0.366350  
       3B2    -0.366350  

    Alpha Virtual:                                                        

       8A1     0.085312     9A1     0.255883     4B1     0.257391  
       4B2     0.257391    10A1     0.297496     1A2     0.305025  
      11A1     0.305025     5B1     0.408457     5B2     0.408457  
      12A1     0.437931     6B2     0.566704     6B1     0.566704  
      13A1     0.672643    14A1     0.919617     2A2     0.976821  
      15A1     0.976822    16A1     0.988882     3A2     0.988883  
       7B1     1.004490     7B2     1.004490    17A1     1.087697  
       8B2     1.096201     8B1     1.096201     9B1     1.247792  
       9B2     1.247792    10B1     1.284525    10B2     1.284525  
      18A1     1.305155     4A2     1.406499    19A1     1.406505  
      20A1     1.454087    21A1     1.727790    11B2     1.745135  
      11B1     1.745135    22A1     2.059008    12B2     2.497384  
      12B1     2.497384     5A2     2.648434    23A1     2.648443  
      24A1     2.680523    13B1     2.780810    13B2     2.780810  
       6A2     2.857013    25A1     2.857013    14B2     2.867385  
      14B1     2.867385    15B1     2.952254    15B2     2.952254  
       7A2     2.999419    26A1     2.999424    27A1     3.166334  
      16B2     3.171177    16B1     3.171177     8A2     3.230635  
      28A1     3.230638    17B2     3.377374    17B1     3.377374  
      29A1     3.421371    18B1     3.574639    18B2     3.574639  
      30A1     3.609233    31A1     3.833203     9A2     3.833204  
      32A1     3.866834    10A2     4.071687    33A1     4.071693  
      19B2     4.307754    19B1     4.307754    34A1     4.577728  
      20B1     4.714339    20B2     4.714339    35A1     4.822303  
      21B1     5.422406    21B2     5.422406    36A1     7.134021  
      37A1     8.598384    22B1     8.603946    22B2     8.603946  
      38A1     8.650753    11A2     8.650788    12A2     8.900980  
      39A1     8.901217    23B2     8.922501    23B1     8.922501  
      40A1     9.097415    13A2     9.097418    24B2     9.438103  
      24B1     9.438103    41A1     9.733084    25B2     9.999637  
      25B1     9.999637    42A1    10.743144    26B1    10.964536  
      26B2    10.964536    14A2    11.194759    43A1    11.194761  
      27B2    11.766746    27B1    11.766746    44A1    11.865606  
      45A1    11.995791    15A2    11.995927    28B2    12.269345  
      28B1    12.269345    46A1    13.012875    47A1    18.075644  
      48A1    40.676622  

    Beta Occupied:                                                        

       1A1   -88.978322     2A1   -19.266093     3A1    -8.127620  
       4A1    -6.084287     1B1    -6.076511     1B2    -6.076511  
       5A1    -1.180338     6A1    -0.737975     7A1    -0.531653  
       2B1    -0.497205     2B2    -0.497205  

    Beta Virtual:                                                         

       3B1    -0.037000     3B2    -0.037000     8A1     0.101067  
       9A1     0.264730     4B2     0.271275     4B1     0.271275  
      10A1     0.310179     1A2     0.340096    11A1     0.340096  
       5B1     0.443411     5B2     0.443411    12A1     0.443976  
       6B1     0.581723     6B2     0.581723    13A1     0.685454  
      14A1     0.929744     2A2     0.997410    15A1     0.997411  
      16A1     1.021609     3A2     1.021609     7B1     1.021826  
       7B2     1.021826    17A1     1.107982     8B2     1.121280  
       8B1     1.121280     9B1     1.271920     9B2     1.271920  
      10B2     1.311141    10B1     1.311141    18A1     1.319867  
       4A2     1.428828    19A1     1.428834    20A1     1.466385  
      21A1     1.743737    11B1     1.761732    11B2     1.761732  
      22A1     2.075428    12B1     2.534334    12B2     2.534334  
       5A2     2.675964    23A1     2.675971    24A1     2.696006  
      13B1     2.802847    13B2     2.802847     6A2     2.875196  
      25A1     2.875196    14B2     2.895426    14B1     2.895426  
      15B2     2.972552    15B1     2.972552     7A2     3.048115  
      26A1     3.048119    27A1     3.188270    16B2     3.223516  
      16B1     3.223516     8A2     3.269854    28A1     3.269857  
      17B2     3.408841    17B1     3.408841    29A1     3.448251  
      18B1     3.601283    18B2     3.601283    30A1     3.630593  
      31A1     3.879889     9A2     3.879890    32A1     3.890699  
      10A2     4.100496    33A1     4.100499    19B1     4.336033  
      19B2     4.336033    34A1     4.594447    20B1     4.737999  
      20B2     4.737999    35A1     4.837446    21B1     5.447796  
      21B2     5.447796    36A1     7.155433    37A1     8.612897  
      22B1     8.617573    22B2     8.617573    38A1     8.668695  
      11A2     8.668732    12A2     8.946839    39A1     8.947064  
      23B1     8.955964    23B2     8.955964    40A1     9.124272  
      13A2     9.124276    24B1     9.461436    24B2     9.461436  
      41A1     9.752028    25B1    10.051469    25B2    10.051469  
      42A1    10.773844    26B1    11.034307    26B2    11.034307  
      14A2    11.244624    43A1    11.244626    27B1    11.801395  
      27B2    11.801395    44A1    11.888446    45A1    12.082089  
      15A2    12.082214    28B1    12.322456    28B2    12.322456  
      46A1    13.047571    47A1    18.088070    48A1    40.703777  

    Final Occupation by Irrep:
             A1    A2    B1    B2 
    DOCC [     7,    0,    2,    2 ]
    SOCC [     0,    0,    1,    1 ]

  @DF-UKS Final Energy:  -473.33257716951556

   => Energetics <=

    Nuclear Repulsion Energy =             45.6001688976880857
    One-Electron Energy =                -743.3435147783083039
    Two-Electron Energy =                 249.7913118724827655
    DFT Exchange-Correlation Energy =     -25.4813737333917167
    Empirical Dispersion Energy =           0.0000000000000000
    VV10 Nonlocal Energy =                  0.1008305720136387
    Total Energy =                       -473.3325771695155595

  UHF NO Occupations:
  HONO-2 :    2 B2 1.9977934
  HONO-1 :    3 B2 1.0000000
  HONO-0 :    3 B1 1.0000000
  LUNO+0 :    4 B2 0.0022066
  LUNO+1 :    4 B1 0.0022066
  LUNO+2 :    8 A1 0.0011085
  LUNO+3 :    9 A1 0.0002462


Computation Completed


Properties will be evaluated at   0.000000,   0.000000,   0.000000 [a0]

Properties computed using the SCF density matrix

  Nuclear Dipole Moment: [e a0]
     X:     0.0000      Y:     0.0000      Z:    -0.0083

  Electronic Dipole Moment: [e a0]
     X:     0.0000      Y:     0.0000      Z:    -0.6137

  Dipole Moment: [e a0]
     X:     0.0000      Y:     0.0000      Z:    -0.6220     Total:     0.6220

  Dipole Moment: [D]
     X:     0.0000      Y:     0.0000      Z:    -1.5810     Total:     1.5810


*** tstop() called on bp1-compute00140.data.bp.acrc.priv at Tue Apr 27 17:08:09 2021
Module time:
	user time   =     150.69 seconds =       2.51 minutes
	system time =       7.06 seconds =       0.12 minutes
	total time  =          7 seconds =       0.12 minutes
Total time:
	user time   =     455.54 seconds =       7.59 minutes
	system time =      24.21 seconds =       0.40 minutes
	total time  =         21 seconds =       0.35 minutes

         ----------------------------------------------------------
                                   FINDIF
                     R. A. King and Jonathon Misiewicz
         ---------------------------------------------------------

  Computing gradient from energies.
    Using 3-point formula.
    Energy without displacement: -473.3325605982
    Check energies below for precision!
    Forces are for mass-weighted, symmetry-adapted cartesians (in au).

     Coord      Energy(-1)        Energy(+1)            Force
        0   -473.3325426961   -473.3325771695     -0.0034473372


-------------------------------------------------------------
  ## New Matrix (Symmetry 0) ##
  Irrep: 1 Size: 2 x 3

                 1                   2                   3

    1     0.00000000000000     0.00000000000000    -0.01125612472545
    2     0.00000000000000     0.00000000000000     0.01125612472545




			-----------------------------------------
			 OPTKING 2.0: for geometry optimizations 
			  - R.A. King,  Bethel University        
			-----------------------------------------
	At level 1: Red. Int., RFO, no backsteps, dynamic trust

	Internal coordinates to be generated automatically.
	Detected frag 1 with atoms:  1 2
	---Fragment 1 Bond Connectivity---
	 1 : 2
	 2 : 1

	---Fragment 1 Geometry and Gradient---
	 S           0.0000000000        0.0000000000       -0.9365260748
	 O           0.0000000000        0.0000000000        1.8720123884
	             0.0000000000        0.0000000000       -0.0112561247
	             0.0000000000        0.0000000000        0.0112561247

	Previous optimization step data not found.  Starting new optimization.

	---Fragment 1 Intrafragment Coordinates---
	 - Coordinate -           - BOHR/RAD -       - ANG/DEG -
	 R(1,2)           =         2.808538	       1.486215

	Current energy   :      -473.3325605982

	Generating empirical Hessian (Schlegel '84) for each fragment.
	Taking RFO optimization step.
	Going to follow RFO solution 1.
	Using RFO vector 1.
	Norm of target step-size    0.01382
	Projected energy change by RFO approximation:        -0.0000600506

	Back-transformation to cartesian coordinates...
	Successfully converged to displaced geometry.

	--- Internal Coordinate Step in ANG or DEG, aJ/ANG or AJ/DEG ---
	 ---------------------------------------------------------------------------
	   Coordinate                Previous        Force       Change         New 
	   ----------                --------       ------       ------       ------
	    1 R(1,2)          =      1.486215    -0.092736    -0.007314     1.478901
	 ---------------------------------------------------------------------------
	Successfully symmetrized geometry.

  ==> Convergence Check <==

  Measures of convergence in internal coordinates in au.
  Criteria marked as inactive (o), active & met (*), and active & unmet ( ).
  --------------------------------------------------------------------------------------------- ~
   Step     Total Energy     Delta E     MAX Force     RMS Force      MAX Disp      RMS Disp    ~
  --------------------------------------------------------------------------------------------- ~
    Convergence Criteria    1.00e-06 *    3.00e-04 *             o    1.20e-03 *             o  ~
  --------------------------------------------------------------------------------------------- ~
      1    -473.33256060   -4.73e+02      1.13e-02      1.13e-02 o    1.38e-02      1.38e-02 o  ~
  ---------------------------------------------------------------------------------------------

	Writing optimization data to binary file.
	Structure for next step:
	Cartesian Geometry (in Angstrom)
	    S     0.0000000000   0.0000000000  -0.4919314953
	    O     0.0000000000   0.0000000000   0.9869695315
			--------------------------
			 OPTKING Finished Execution 
			--------------------------

    Structure for next step:
    Molecular point group: c2v
    Full point group: C_inf_v

    Geometry (in Angstrom), charge = 0, multiplicity = 3:

    S            0.000000000000     0.000000000000    -0.493149514310
    O            0.000000000000     0.000000000000     0.985751518289

gradient() will perform gradient computation by finite difference of analytic energies.

         ----------------------------------------------------------
                                   FINDIF
                     R. A. King and Jonathon Misiewicz
         ---------------------------------------------------------

  Using finite-differences of energies to determine gradients.
    Generating geometries for use with 3-point formula.
    Displacement size will be 5.00e-03.
    Number of atoms is 2.
    Number of symmetric SALCs is 1.
    Translations projected? 1. Rotations projected? 1.
    Number of geometries (including reference) is 3.

  //>>>>>>>>>>>>>>>>>>>>>>>>>>>>>>>>>>>//
  //    Loading displacement 1 of 3    //
  //<<<<<<<<<<<<<<<<<<<<<<<<<<<<<<<<<<<//

*** tstart() called on bp1-compute00140.data.bp.acrc.priv
*** at Tue Apr 27 17:08:09 2021

   => Loading Basis Set <=

    Name: CC-PV(Q+D)Z
    Role: ORBITAL
    Keyword: BASIS
    atoms 1 entry S          line   978 file /work/zw18965/.conda/envs/p4env/share/psi4/basis/cc-pv_qpd_z.gbs 
    atoms 2 entry O          line   349 file /work/zw18965/.conda/envs/p4env/share/psi4/basis/cc-pv_qpd_z.gbs 


         ---------------------------------------------------------
                                   SCF
               by Justin Turney, Rob Parrish, Andy Simmonett
                          and Daniel G. A. Smith
                              UKS Reference
                       24 Threads, 137329 MiB Core
         ---------------------------------------------------------

  ==> Geometry <==

    Molecular point group: c2v
    Full point group: C_inf_v

    Geometry (in Angstrom), charge = 0, multiplicity = 3:

       Center              X                  Y                   Z               Mass       
    ------------   -----------------  -----------------  -----------------  -----------------
         S            0.000000000000     0.000000000000    -0.493149514310    31.972071174400
         O            0.000000000000     0.000000000000     0.985751518289    15.994914619570

  Running in c2v symmetry.

  Rotational constants: A = ************  B =      0.72295  C =      0.72295 [cm^-1]
  Rotational constants: A = ************  B =  21673.48284  C =  21673.48284 [MHz]
  Nuclear repulsion =   45.800686775294785

  Charge       = 0
  Multiplicity = 3
  Electrons    = 24
  Nalpha       = 13
  Nbeta        = 11

  ==> Algorithm <==

  SCF Algorithm Type is DF.
  DIIS enabled.
  MOM disabled.
  Fractional occupation disabled.
  Guess Type is READ.
  Energy threshold   = 1.00e-08
  Density threshold  = 1.00e-08
  Integral threshold = 0.00e+00

  ==> Primary Basis <==

  Basis Set: CC-PV(Q+D)Z
    Blend: CC-PV(Q+D)Z
    Number of shells: 33
    Number of basis function: 119
    Number of Cartesian functions: 150
    Spherical Harmonics?: true
    Max angular momentum: 4

  ==> DFT Potential <==

   => Composite Functional: WB97X-V <= 

    wB97X-V Hyb-GGA Exchange-Correlation Functional

    N. Mardirossian and M. Head-Gordon, Phys. Chem. Chem. Phys. 16, 9904 (2014)

    Deriv               =              1
    GGA                 =           TRUE
    Meta                =          FALSE

    Exchange Hybrid     =           TRUE
    MP2 Hybrid          =          FALSE

   => Exchange-Correlation Functionals <=

    1.0000   wB97X-V range-separated functional

   => Exact (HF) Exchange <=

    0.8330            HF,LR [omega = 0.3000]
    0.1670               HF 

   => VV10 Non-Local Parameters <=

    VV10 B              =     6.0000E+00
    VV10 C              =     1.0000E-02

   => Molecular Quadrature <=

    Radial Scheme          =       TREUTLER
    Pruning Scheme         =           FLAT
    Nuclear Scheme         =       TREUTLER

    BS radius alpha        =              1
    Pruning alpha          =              1
    Radial Points          =             75
    Spherical Points       =            302
    Total Points           =          43670
    Total Blocks           =            401
    Max Points             =            256
    Max Functions          =            119

   => Loading Basis Set <=

    Name: (CC-PV(Q+D)Z AUX)
    Role: JKFIT
    Keyword: DF_BASIS_SCF
    atoms 1 entry S          line   673 file /work/zw18965/.conda/envs/p4env/share/psi4/basis/cc-pvqz-jkfit.gbs 
    atoms 2 entry O          line   253 file /work/zw18965/.conda/envs/p4env/share/psi4/basis/cc-pvqz-jkfit.gbs 

   => Loading Basis Set <=

    Name: CC-PV(Q+D)Z
    Role: ORBITAL
    Keyword: BASIS
    atoms 1 entry S          line   978 file /work/zw18965/.conda/envs/p4env/share/psi4/basis/cc-pv_qpd_z.gbs 
    atoms 2 entry O          line   349 file /work/zw18965/.conda/envs/p4env/share/psi4/basis/cc-pv_qpd_z.gbs 

  Reading orbitals from file 180, no projection.

  ==> Pre-Iterations <==

   -------------------------------------------------------
    Irrep   Nso     Nmo     Nalpha   Nbeta   Ndocc  Nsocc
   -------------------------------------------------------
     A1        48      48       0       0       0       0
     A2        15      15       0       0       0       0
     B1        28      28       0       0       0       0
     B2        28      28       0       0       0       0
   -------------------------------------------------------
    Total     119     119      13      11      11       2
   -------------------------------------------------------

  ==> Integral Setup <==

  ==> DiskDFJK: Density-Fitted J/K Matrices <==

    J tasked:                  Yes
    K tasked:                  Yes
    wK tasked:                 Yes
    Omega:               3.000E-01
    OpenMP threads:             24
    Integrals threads:          24
    Memory [MiB]:           102860
    Algorithm:                Core
    Integral Cache:           NONE
    Schwarz Cutoff:          1E-12
    Fitting Condition:       1E-10

   => Auxiliary Basis Set <=

  Basis Set: (CC-PV(Q+D)Z AUX)
    Blend: CC-PVQZ-JKFIT
    Number of shells: 68
    Number of basis function: 254
    Number of Cartesian functions: 333
    Spherical Harmonics?: true
    Max angular momentum: 5

  Cached 100.0% of DFT collocation blocks in 0.133 [GiB].

  Minimum eigenvalue in the overlap matrix is 6.2470305264E-04.
  Using Symmetric Orthogonalization.

  SCF Guess: Orbitals guess was supplied from a previous computation.

  ==> Iterations <==

                           Total Energy        Delta E     RMS |[F,P]|

   @DF-UKS iter   0:  -473.34126158826979   -4.73341e+02   4.56361e-04 
   @DF-UKS iter   1:  -473.33264736893130    8.61422e-03   8.19738e-05 DIIS
   @DF-UKS iter   2:  -473.33264518498635    2.18394e-06   1.07746e-04 DIIS
   @DF-UKS iter   3:  -473.33266079054926   -1.56056e-05   1.42100e-05 DIIS
   @DF-UKS iter   4:  -473.33266108563629   -2.95087e-07   6.02290e-06 DIIS
   @DF-UKS iter   5:  -473.33266117815435   -9.25181e-08   1.21629e-06 DIIS
   @DF-UKS iter   6:  -473.33266119090655   -1.27522e-08   5.26291e-07 DIIS
   @DF-UKS iter   7:  -473.33266119294456   -2.03801e-09   1.93277e-07 DIIS
   @DF-UKS iter   8:  -473.33266119316113   -2.16573e-10   3.66437e-08 DIIS
   @DF-UKS iter   9:  -473.33266119317227   -1.11413e-11   5.80764e-09 DIIS
  Energy and wave function converged.


  ==> Post-Iterations <==

   @Spin Contamination Metric:   1.156323289E-02
   @S^2 Expected:                2.000000000E+00
   @S^2 Observed:                2.011563233E+00
   @S   Expected:                1.000000000E+00
   @S   Observed:                1.000000000E+00

    Orbital Energies [Eh]
    ---------------------

    Alpha Occupied:                                                       

       1A1   -88.984002     2A1   -19.283771     3A1    -8.133329  
       1B2    -6.089259     1B1    -6.089259     4A1    -6.087568  
       5A1    -1.223470     6A1    -0.810865     2B1    -0.574688  
       2B2    -0.574688     7A1    -0.565999     3B2    -0.365286  
       3B1    -0.365286  

    Alpha Virtual:                                                        

       8A1     0.086542     9A1     0.255771     4B2     0.257329  
       4B1     0.257329    10A1     0.298176     1A2     0.304970  
      11A1     0.304971     5B2     0.409884     5B1     0.409884  
      12A1     0.439098     6B1     0.566139     6B2     0.566139  
      13A1     0.674731    14A1     0.920867     2A2     0.977203  
      15A1     0.977205    16A1     0.988556     3A2     0.988557  
       7B2     1.004998     7B1     1.004998    17A1     1.089879  
       8B1     1.096165     8B2     1.096165     9B2     1.248802  
       9B1     1.248802    10B2     1.286123    10B1     1.286123  
      18A1     1.304683     4A2     1.408542    19A1     1.408548  
      20A1     1.455944    21A1     1.725909    11B1     1.744803  
      11B2     1.744803    22A1     2.064398    12B1     2.500114  
      12B2     2.500114     5A2     2.648743    23A1     2.648752  
      24A1     2.681052    13B2     2.781909    13B1     2.781909  
       6A2     2.857925    25A1     2.857925    14B1     2.865469  
      14B2     2.865469    15B2     2.956313    15B1     2.956313  
       7A2     2.999417    26A1     2.999423    27A1     3.168168  
      16B1     3.171388    16B2     3.171388     8A2     3.231825  
      28A1     3.231828    17B1     3.380854    17B2     3.380854  
      29A1     3.420061    18B2     3.576730    18B1     3.576730  
      30A1     3.615602    31A1     3.838008     9A2     3.838010  
      32A1     3.874770    10A2     4.077604    33A1     4.077610  
      19B1     4.312666    19B2     4.312666    34A1     4.595416  
      20B1     4.715852    20B2     4.715852    35A1     4.814987  
      21B1     5.434900    21B2     5.434900    36A1     7.155576  
      22B2     8.596564    22B1     8.596564    37A1     8.604464  
      38A1     8.651101    11A2     8.651137    12A2     8.900539  
      39A1     8.900768    23B1     8.923310    23B2     8.923310  
      40A1     9.102288    13A2     9.102289    24B1     9.453013  
      24B2     9.453013    41A1     9.743384    25B1    10.004727  
      25B2    10.004727    42A1    10.744116    26B1    10.965310  
      26B2    10.965310    14A2    11.199249    43A1    11.199253  
      27B1    11.776497    27B2    11.776497    44A1    11.862894  
      45A1    11.996825    15A2    11.996958    28B1    12.274225  
      28B2    12.274225    46A1    13.031991    47A1    18.126682  
      48A1    40.701752  

    Beta Occupied:                                                        

       1A1   -88.977668     2A1   -19.265400     3A1    -8.127151  
       4A1    -6.083787     1B1    -6.076042     1B2    -6.076042  
       5A1    -1.183375     6A1    -0.736934     7A1    -0.532145  
       2B2    -0.499061     2B1    -0.499061  

    Beta Virtual:                                                         

       3B2    -0.035943     3B1    -0.035943     8A1     0.102144  
       9A1     0.264669     4B1     0.271286     4B2     0.271286  
      10A1     0.310934     1A2     0.340098    11A1     0.340098  
       5B2     0.444872     5B1     0.444872    12A1     0.445134  
       6B2     0.581060     6B1     0.581060    13A1     0.687490  
      14A1     0.930932     2A2     0.997344    15A1     0.997345  
      16A1     1.021817     3A2     1.021818     7B2     1.022403  
       7B1     1.022403    17A1     1.110240     8B1     1.121295  
       8B2     1.121295     9B2     1.273495     9B1     1.273495  
      10B1     1.312238    10B2     1.312238    18A1     1.319419  
       4A2     1.430825    19A1     1.430831    20A1     1.468288  
      21A1     1.741883    11B1     1.761419    11B2     1.761419  
      22A1     2.080817    12B2     2.536619    12B1     2.536619  
       5A2     2.676347    23A1     2.676353    24A1     2.696540  
      13B2     2.804158    13B1     2.804158     6A2     2.876045  
      25A1     2.876046    14B1     2.893429    14B2     2.893429  
      15B1     2.976740    15B2     2.976740     7A2     3.048191  
      26A1     3.048195    27A1     3.190067    16B1     3.223857  
      16B2     3.223857     8A2     3.271165    28A1     3.271167  
      17B1     3.412240    17B2     3.412240    29A1     3.446779  
      18B1     3.603372    18B2     3.603372    30A1     3.636836  
      31A1     3.884975     9A2     3.884976    32A1     3.898654  
      10A2     4.105836    33A1     4.105840    19B2     4.340552  
      19B1     4.340552    34A1     4.612428    20B1     4.739794  
      20B2     4.739794    35A1     4.829805    21B1     5.460269  
      21B2     5.460269    36A1     7.176958    22B2     8.610231  
      22B1     8.610231    37A1     8.619014    38A1     8.669067  
      11A2     8.669103    12A2     8.946143    39A1     8.946360  
      23B1     8.956558    23B2     8.956558    40A1     9.128981  
      13A2     9.128985    24B1     9.476237    24B2     9.476237  
      41A1     9.762305    25B2    10.056250    25B1    10.056250  
      42A1    10.774551    26B1    11.034737    26B2    11.034737  
      14A2    11.248827    43A1    11.248831    27B2    11.810793  
      27B1    11.810793    44A1    11.885640    45A1    12.082698  
      15A2    12.082820    28B2    12.327115    28B1    12.327115  
      46A1    13.066414    47A1    18.139080    48A1    40.728784  

    Final Occupation by Irrep:
             A1    A2    B1    B2 
    DOCC [     7,    0,    2,    2 ]
    SOCC [     0,    0,    1,    1 ]

  @DF-UKS Final Energy:  -473.33266119317227

   => Energetics <=

    Nuclear Repulsion Energy =             45.8006867752947855
    One-Electron Energy =                -743.7398235330290390
    Two-Electron Energy =                 249.9907753475266077
    DFT Exchange-Correlation Energy =     -25.4851238954288419
    Empirical Dispersion Energy =           0.0000000000000000
    VV10 Nonlocal Energy =                  0.1008241124642843
    Total Energy =                       -473.3326611931721573

  UHF NO Occupations:
  HONO-2 :    2 B1 1.9978244
  HONO-1 :    3 B1 1.0000000
  HONO-0 :    3 B2 1.0000000
  LUNO+0 :    4 B1 0.0021756
  LUNO+1 :    4 B2 0.0021756
  LUNO+2 :    8 A1 0.0011072
  LUNO+3 :    9 A1 0.0002445


Computation Completed


Properties will be evaluated at   0.000000,   0.000000,   0.000000 [a0]

Properties computed using the SCF density matrix

  Nuclear Dipole Moment: [e a0]
     X:     0.0000      Y:     0.0000      Z:    -0.0083

  Electronic Dipole Moment: [e a0]
     X:     0.0000      Y:     0.0000      Z:    -0.6080

  Dipole Moment: [e a0]
     X:     0.0000      Y:     0.0000      Z:    -0.6163     Total:     0.6163

  Dipole Moment: [D]
     X:     0.0000      Y:     0.0000      Z:    -1.5665     Total:     1.5665


*** tstop() called on bp1-compute00140.data.bp.acrc.priv at Tue Apr 27 17:08:14 2021
Module time:
	user time   =     114.65 seconds =       1.91 minutes
	system time =       6.01 seconds =       0.10 minutes
	total time  =          5 seconds =       0.08 minutes
Total time:
	user time   =     570.55 seconds =       9.51 minutes
	system time =      30.25 seconds =       0.50 minutes
	total time  =         26 seconds =       0.43 minutes

  //>>>>>>>>>>>>>>>>>>>>>>>>>>>>>>>>>>>//
  //    Loading displacement 2 of 3    //
  //<<<<<<<<<<<<<<<<<<<<<<<<<<<<<<<<<<<//

*** tstart() called on bp1-compute00140.data.bp.acrc.priv
*** at Tue Apr 27 17:08:14 2021

   => Loading Basis Set <=

    Name: CC-PV(Q+D)Z
    Role: ORBITAL
    Keyword: BASIS
    atoms 1 entry S          line   978 file /work/zw18965/.conda/envs/p4env/share/psi4/basis/cc-pv_qpd_z.gbs 
    atoms 2 entry O          line   349 file /work/zw18965/.conda/envs/p4env/share/psi4/basis/cc-pv_qpd_z.gbs 


         ---------------------------------------------------------
                                   SCF
               by Justin Turney, Rob Parrish, Andy Simmonett
                          and Daniel G. A. Smith
                              UKS Reference
                       24 Threads, 137329 MiB Core
         ---------------------------------------------------------

  ==> Geometry <==

    Molecular point group: c2v
    Full point group: C_inf_v

    Geometry (in Angstrom), charge = 0, multiplicity = 3:

       Center              X                  Y                   Z               Mass       
    ------------   -----------------  -----------------  -----------------  -----------------
         S            0.000000000000     0.000000000000    -0.493419726851    31.972071174400
         O            0.000000000000     0.000000000000     0.986291643371    15.994914619570

  Running in c2v symmetry.

  Rotational constants: A = ************  B =      0.72216  C =      0.72216 [cm^-1]
  Rotational constants: A = ************  B =  21649.75115  C =  21649.75115 [MHz]
  Nuclear repulsion =   45.775604843528534

  Charge       = 0
  Multiplicity = 3
  Electrons    = 24
  Nalpha       = 13
  Nbeta        = 11

  ==> Algorithm <==

  SCF Algorithm Type is DF.
  DIIS enabled.
  MOM disabled.
  Fractional occupation disabled.
  Guess Type is READ.
  Energy threshold   = 1.00e-08
  Density threshold  = 1.00e-08
  Integral threshold = 0.00e+00

  ==> Primary Basis <==

  Basis Set: CC-PV(Q+D)Z
    Blend: CC-PV(Q+D)Z
    Number of shells: 33
    Number of basis function: 119
    Number of Cartesian functions: 150
    Spherical Harmonics?: true
    Max angular momentum: 4

  ==> DFT Potential <==

   => Composite Functional: WB97X-V <= 

    wB97X-V Hyb-GGA Exchange-Correlation Functional

    N. Mardirossian and M. Head-Gordon, Phys. Chem. Chem. Phys. 16, 9904 (2014)

    Deriv               =              1
    GGA                 =           TRUE
    Meta                =          FALSE

    Exchange Hybrid     =           TRUE
    MP2 Hybrid          =          FALSE

   => Exchange-Correlation Functionals <=

    1.0000   wB97X-V range-separated functional

   => Exact (HF) Exchange <=

    0.8330            HF,LR [omega = 0.3000]
    0.1670               HF 

   => VV10 Non-Local Parameters <=

    VV10 B              =     6.0000E+00
    VV10 C              =     1.0000E-02

   => Molecular Quadrature <=

    Radial Scheme          =       TREUTLER
    Pruning Scheme         =           FLAT
    Nuclear Scheme         =       TREUTLER

    BS radius alpha        =              1
    Pruning alpha          =              1
    Radial Points          =             75
    Spherical Points       =            302
    Total Points           =          43670
    Total Blocks           =            401
    Max Points             =            256
    Max Functions          =            119

   => Loading Basis Set <=

    Name: (CC-PV(Q+D)Z AUX)
    Role: JKFIT
    Keyword: DF_BASIS_SCF
    atoms 1 entry S          line   673 file /work/zw18965/.conda/envs/p4env/share/psi4/basis/cc-pvqz-jkfit.gbs 
    atoms 2 entry O          line   253 file /work/zw18965/.conda/envs/p4env/share/psi4/basis/cc-pvqz-jkfit.gbs 

   => Loading Basis Set <=

    Name: CC-PV(Q+D)Z
    Role: ORBITAL
    Keyword: BASIS
    atoms 1 entry S          line   978 file /work/zw18965/.conda/envs/p4env/share/psi4/basis/cc-pv_qpd_z.gbs 
    atoms 2 entry O          line   349 file /work/zw18965/.conda/envs/p4env/share/psi4/basis/cc-pv_qpd_z.gbs 

  Reading orbitals from file 180, no projection.

  ==> Pre-Iterations <==

   -------------------------------------------------------
    Irrep   Nso     Nmo     Nalpha   Nbeta   Ndocc  Nsocc
   -------------------------------------------------------
     A1        48      48       0       0       0       0
     A2        15      15       0       0       0       0
     B1        28      28       0       0       0       0
     B2        28      28       0       0       0       0
   -------------------------------------------------------
    Total     119     119      13      11      11       2
   -------------------------------------------------------

  ==> Integral Setup <==

  ==> DiskDFJK: Density-Fitted J/K Matrices <==

    J tasked:                  Yes
    K tasked:                  Yes
    wK tasked:                 Yes
    Omega:               3.000E-01
    OpenMP threads:             24
    Integrals threads:          24
    Memory [MiB]:           102860
    Algorithm:                Core
    Integral Cache:           NONE
    Schwarz Cutoff:          1E-12
    Fitting Condition:       1E-10

   => Auxiliary Basis Set <=

  Basis Set: (CC-PV(Q+D)Z AUX)
    Blend: CC-PVQZ-JKFIT
    Number of shells: 68
    Number of basis function: 254
    Number of Cartesian functions: 333
    Spherical Harmonics?: true
    Max angular momentum: 5

  Cached 100.0% of DFT collocation blocks in 0.133 [GiB].

  Minimum eigenvalue in the overlap matrix is 6.2537463647E-04.
  Using Symmetric Orthogonalization.

  SCF Guess: Orbitals guess was supplied from a previous computation.

  ==> Iterations <==

                           Total Energy        Delta E     RMS |[F,P]|

   @DF-UKS iter   0:  -473.33169893156389   -4.73332e+02   5.09334e-05 
   @DF-UKS iter   1:  -473.33265535973868   -9.56428e-04   9.17096e-06 DIIS
   @DF-UKS iter   2:  -473.33265532889016    3.08485e-08   1.21498e-05 DIIS
   @DF-UKS iter   3:  -473.33265552775964   -1.98869e-07   1.56745e-06 DIIS
   @DF-UKS iter   4:  -473.33265553134964   -3.59000e-09   6.69521e-07 DIIS
   @DF-UKS iter   5:  -473.33265553249515   -1.14551e-09   1.35547e-07 DIIS
   @DF-UKS iter   6:  -473.33265553265397   -1.58821e-10   5.85172e-08 DIIS
   @DF-UKS iter   7:  -473.33265553267898   -2.50111e-11   2.15458e-08 DIIS
   @DF-UKS iter   8:  -473.33265553268183   -2.84217e-12   4.09664e-09 DIIS
  Energy and wave function converged.


  ==> Post-Iterations <==

   @Spin Contamination Metric:   1.157983397E-02
   @S^2 Expected:                2.000000000E+00
   @S^2 Observed:                2.011579834E+00
   @S   Expected:                1.000000000E+00
   @S   Observed:                1.000000000E+00

    Orbital Energies [Eh]
    ---------------------

    Alpha Occupied:                                                       

       1A1   -88.984084     2A1   -19.283868     3A1    -8.133387  
       1B2    -6.089318     1B1    -6.089318     4A1    -6.087630  
       5A1    -1.223134     6A1    -0.810991     2B2    -0.574514  
       2B1    -0.574514     7A1    -0.565923     3B2    -0.365419  
       3B1    -0.365419  

    Alpha Virtual:                                                        

       8A1     0.086390     9A1     0.255785     4B1     0.257337  
       4B2     0.257337    10A1     0.298092     1A2     0.304977  
      11A1     0.304978     5B2     0.409705     5B1     0.409705  
      12A1     0.438952     6B2     0.566210     6B1     0.566210  
      13A1     0.674471    14A1     0.920711     2A2     0.977155  
      15A1     0.977157    16A1     0.988597     3A2     0.988597  
       7B1     1.004934     7B2     1.004934    17A1     1.089602  
       8B1     1.096169     8B2     1.096169     9B1     1.248682  
       9B2     1.248682    10B1     1.285919    10B2     1.285919  
      18A1     1.304746     4A2     1.408288    19A1     1.408293  
      20A1     1.455706    21A1     1.726141    11B2     1.744848  
      11B1     1.744848    22A1     2.063727    12B2     2.499774  
      12B1     2.499774     5A2     2.648704    23A1     2.648713  
      24A1     2.680984    13B2     2.781770    13B1     2.781770  
       6A2     2.857811    25A1     2.857811    14B1     2.865707  
      14B2     2.865707    15B1     2.955802    15B2     2.955802  
       7A2     2.999418    26A1     2.999423    27A1     3.167955  
      16B1     3.171362    16B2     3.171362     8A2     3.231675  
      28A1     3.231678    17B2     3.380419    17B1     3.380419  
      29A1     3.420223    18B2     3.576473    18B1     3.576473  
      30A1     3.614813    31A1     3.837413     9A2     3.837415  
      32A1     3.873774    10A2     4.076860    33A1     4.076866  
      19B1     4.312064    19B2     4.312064    34A1     4.593187  
      20B1     4.715665    20B2     4.715665    35A1     4.815891  
      21B1     5.433325    21B2     5.433325    36A1     7.152940  
      22B2     8.597487    22B1     8.597487    37A1     8.603647  
      38A1     8.651060    11A2     8.651096    12A2     8.900595  
      39A1     8.900824    23B2     8.923208    23B1     8.923208  
      40A1     9.101674    13A2     9.101675    24B1     9.451147  
      24B2     9.451147    41A1     9.742120    25B2    10.004091  
      25B1    10.004091    42A1    10.744002    26B2    10.965213  
      26B1    10.965213    14A2    11.198687    43A1    11.198691  
      27B1    11.775296    27B2    11.775296    44A1    11.863207  
      45A1    11.996696    15A2    11.996830    28B1    12.273591  
      28B2    12.273591    46A1    13.029627    47A1    18.120250  
      48A1    40.698620  

    Beta Occupied:                                                        

       1A1   -88.977751     2A1   -19.265487     3A1    -8.127210  
       4A1    -6.083850     1B2    -6.076101     1B1    -6.076101  
       5A1    -1.182995     6A1    -0.737064     7A1    -0.532084  
       2B2    -0.498829     2B1    -0.498829  

    Beta Virtual:                                                         

       3B2    -0.036075     3B1    -0.036075     8A1     0.102011  
       9A1     0.264677     4B1     0.271285     4B2     0.271285  
      10A1     0.310841     1A2     0.340097    11A1     0.340098  
       5B2     0.444689     5B1     0.444689    12A1     0.444989  
       6B2     0.581144     6B1     0.581144    13A1     0.687236  
      14A1     0.930783     2A2     0.997353    15A1     0.997353  
      16A1     1.021790     3A2     1.021791     7B1     1.022330  
       7B2     1.022330    17A1     1.109954     8B1     1.121293  
       8B2     1.121293     9B1     1.273304     9B2     1.273304  
      10B1     1.312097    10B2     1.312097    18A1     1.319478  
       4A2     1.430576    19A1     1.430582    20A1     1.468044  
      21A1     1.742112    11B2     1.761461    11B1     1.761461  
      22A1     2.080146    12B2     2.536335    12B1     2.536335  
       5A2     2.676298    23A1     2.676305    24A1     2.696471  
      13B2     2.803992    13B1     2.803992     6A2     2.875939  
      25A1     2.875939    14B1     2.893677    14B2     2.893677  
      15B1     2.976213    15B2     2.976213     7A2     3.048181  
      26A1     3.048186    27A1     3.189859    16B1     3.223815  
      16B2     3.223815     8A2     3.271000    28A1     3.271003  
      17B2     3.411814    17B1     3.411814    29A1     3.446961  
      18B2     3.603116    18B1     3.603116    30A1     3.636063  
      31A1     3.884346     9A2     3.884348    32A1     3.897656  
      10A2     4.105163    33A1     4.105167    19B1     4.339999  
      19B2     4.339999    34A1     4.610159    20B1     4.739572  
      20B2     4.739572    35A1     4.830751    21B1     5.458697  
      21B2     5.458697    36A1     7.174328    22B2     8.611149  
      22B1     8.611149    37A1     8.618192    38A1     8.669023  
      11A2     8.669059    12A2     8.946230    39A1     8.946449  
      23B2     8.956482    23B1     8.956482    40A1     9.128388  
      13A2     9.128392    24B1     9.474384    24B2     9.474384  
      41A1     9.761044    25B2    10.055653    25B1    10.055653  
      42A1    10.774470    26B2    11.034684    26B1    11.034684  
      14A2    11.248301    43A1    11.248305    27B1    11.809636  
      27B2    11.809636    44A1    11.885964    45A1    12.082622  
      15A2    12.082745    28B1    12.326508    28B2    12.326508  
      46A1    13.064083    47A1    18.132652    48A1    40.725667  

    Final Occupation by Irrep:
             A1    A2    B1    B2 
    DOCC [     7,    0,    2,    2 ]
    SOCC [     0,    0,    1,    1 ]

  @DF-UKS Final Energy:  -473.33265553268183

   => Energetics <=

    Nuclear Repulsion Energy =             45.7756048435285336
    One-Electron Energy =                -743.6902645979910176
    Two-Electron Energy =                 249.9658330985700445
    DFT Exchange-Correlation Energy =     -25.4846537920809553
    Empirical Dispersion Energy =           0.0000000000000000
    VV10 Nonlocal Energy =                  0.1008249152916371
    Total Energy =                       -473.3326555326817697

  UHF NO Occupations:
  HONO-2 :    2 B1 1.9978206
  HONO-1 :    3 B1 1.0000000
  HONO-0 :    3 B2 1.0000000
  LUNO+0 :    4 B1 0.0021794
  LUNO+1 :    4 B2 0.0021794
  LUNO+2 :    8 A1 0.0011074
  LUNO+3 :    9 A1 0.0002447


Computation Completed


Properties will be evaluated at   0.000000,   0.000000,   0.000000 [a0]

Properties computed using the SCF density matrix

  Nuclear Dipole Moment: [e a0]
     X:     0.0000      Y:     0.0000      Z:    -0.0083

  Electronic Dipole Moment: [e a0]
     X:     0.0000      Y:     0.0000      Z:    -0.6088

  Dipole Moment: [e a0]
     X:     0.0000      Y:     0.0000      Z:    -0.6170     Total:     0.6170

  Dipole Moment: [D]
     X:     0.0000      Y:     0.0000      Z:    -1.5683     Total:     1.5683


*** tstop() called on bp1-compute00140.data.bp.acrc.priv at Tue Apr 27 17:08:19 2021
Module time:
	user time   =     109.40 seconds =       1.82 minutes
	system time =       5.71 seconds =       0.10 minutes
	total time  =          5 seconds =       0.08 minutes
Total time:
	user time   =     680.08 seconds =      11.33 minutes
	system time =      35.97 seconds =       0.60 minutes
	total time  =         31 seconds =       0.52 minutes

  //>>>>>>>>>>>>>>>>>>>>>>>>>>>>>>>>>>>//
  //    Loading displacement 3 of 3    //
  //<<<<<<<<<<<<<<<<<<<<<<<<<<<<<<<<<<<//

*** tstart() called on bp1-compute00140.data.bp.acrc.priv
*** at Tue Apr 27 17:08:19 2021

   => Loading Basis Set <=

    Name: CC-PV(Q+D)Z
    Role: ORBITAL
    Keyword: BASIS
    atoms 1 entry S          line   978 file /work/zw18965/.conda/envs/p4env/share/psi4/basis/cc-pv_qpd_z.gbs 
    atoms 2 entry O          line   349 file /work/zw18965/.conda/envs/p4env/share/psi4/basis/cc-pv_qpd_z.gbs 


         ---------------------------------------------------------
                                   SCF
               by Justin Turney, Rob Parrish, Andy Simmonett
                          and Daniel G. A. Smith
                              UKS Reference
                       24 Threads, 137329 MiB Core
[...]
  Nuclear repulsion =   45.917742348489369

  Charge       = 0
  Multiplicity = 3
  Electrons    = 24
  Nalpha       = 13
  Nbeta        = 11

  ==> Algorithm <==

  SCF Algorithm Type is DF.
  DIIS enabled.
  MOM disabled.
  Fractional occupation disabled.
  Guess Type is SAD.
  Energy threshold   = 1.00e-10
  Density threshold  = 1.00e-10
  Integral threshold = 0.00e+00

  ==> Primary Basis <==

  Basis Set: CC-PV(Q+D)Z
    Blend: CC-PV(Q+D)Z
    Number of shells: 33
    Number of basis function: 119
    Number of Cartesian functions: 150
    Spherical Harmonics?: true
    Max angular momentum: 4

  ==> DFT Potential <==

   => Composite Functional: WB97X-V <= 

    wB97X-V Hyb-GGA Exchange-Correlation Functional

    N. Mardirossian and M. Head-Gordon, Phys. Chem. Chem. Phys. 16, 9904 (2014)

    Deriv               =              1
    GGA                 =           TRUE
    Meta                =          FALSE

    Exchange Hybrid     =           TRUE
    MP2 Hybrid          =          FALSE

   => Exchange-Correlation Functionals <=

    1.0000   wB97X-V range-separated functional

   => Exact (HF) Exchange <=

    0.8330            HF,LR [omega = 0.3000]
    0.1670               HF 

   => VV10 Non-Local Parameters <=

    VV10 B              =     6.0000E+00
    VV10 C              =     1.0000E-02

   => Molecular Quadrature <=

    Radial Scheme          =       TREUTLER
    Pruning Scheme         =           FLAT
    Nuclear Scheme         =       TREUTLER

    BS radius alpha        =              1
    Pruning alpha          =              1
    Radial Points          =             75
    Spherical Points       =            302
    Total Points           =          43670
    Total Blocks           =            401
    Max Points             =            256
    Max Functions          =            119

   => Loading Basis Set <=

    Name: (CC-PV(Q+D)Z AUX)
    Role: JKFIT
    Keyword: DF_BASIS_SCF
    atoms 1 entry S          line   673 file /work/zw18965/.conda/envs/p4env/share/psi4/basis/cc-pvqz-jkfit.gbs 
    atoms 2 entry O          line   253 file /work/zw18965/.conda/envs/p4env/share/psi4/basis/cc-pvqz-jkfit.gbs 

  ==> Pre-Iterations <==

   -------------------------------------------------------
    Irrep   Nso     Nmo     Nalpha   Nbeta   Ndocc  Nsocc
   -------------------------------------------------------
     A1        48      48       0       0       0       0
     A2        15      15       0       0       0       0
     B1        28      28       0       0       0       0
     B2        28      28       0       0       0       0
   -------------------------------------------------------
    Total     119     119      13      11      11       2
   -------------------------------------------------------

  ==> Integral Setup <==

  ==> DiskDFJK: Density-Fitted J/K Matrices <==

    J tasked:                  Yes
    K tasked:                  Yes
    wK tasked:                 Yes
    Omega:               3.000E-01
    OpenMP threads:             24
    Integrals threads:          24
    Memory [MiB]:           102860
    Algorithm:                Core
    Integral Cache:           NONE
    Schwarz Cutoff:          1E-12
    Fitting Condition:       1E-10

   => Auxiliary Basis Set <=

  Basis Set: (CC-PV(Q+D)Z AUX)
    Blend: CC-PVQZ-JKFIT
    Number of shells: 68
    Number of basis function: 254
    Number of Cartesian functions: 333
    Spherical Harmonics?: true
    Max angular momentum: 5

  Cached 100.0% of DFT collocation blocks in 0.133 [GiB].

  Minimum eigenvalue in the overlap matrix is 6.2152268276E-04.
  Using Symmetric Orthogonalization.

  SCF Guess: Superposition of Atomic Densities via on-the-fly atomic UHF.

  ==> Iterations <==

                           Total Energy        Delta E     RMS |[F,P]|

   @DF-UKS iter SAD:  -472.89759471763290   -4.72898e+02   0.00000e+00 
   @DF-UKS iter   1:  -473.25008251428801   -3.52488e-01   7.39953e-03 DIIS
   @DF-UKS iter   2:  -473.16538637493585    8.46961e-02   1.06161e-02 DIIS
   @DF-UKS iter   3:  -473.33112989513825   -1.65744e-01   9.18913e-04 DIIS
   @DF-UKS iter   4:  -473.33244478449245   -1.31489e-03   2.20290e-04 DIIS
   @DF-UKS iter   5:  -473.33264207108544   -1.97287e-04   6.27779e-05 DIIS
   @DF-UKS iter   6:  -473.33266460585310   -2.25348e-05   2.21971e-05 DIIS
   @DF-UKS iter   7:  -473.33266859522922   -3.98938e-06   9.79668e-06 DIIS
   @DF-UKS iter   8:  -473.33266909230571   -4.97076e-07   3.70657e-06 DIIS
   @DF-UKS iter   9:  -473.33266915929522   -6.69895e-08   5.71868e-07 DIIS
   @DF-UKS iter  10:  -473.33266916121352   -1.91829e-09   1.34615e-07 DIIS
   @DF-UKS iter  11:  -473.33266916133744   -1.23919e-10   4.91182e-08 DIIS
   @DF-UKS iter  12:  -473.33266916134721   -9.77707e-12   9.22430e-09 DIIS
   @DF-UKS iter  13:  -473.33266916134755   -3.41061e-13   3.50224e-09 DIIS
   @DF-UKS iter  14:  -473.33266916134778   -2.27374e-13   4.80778e-10 DIIS
   @DF-UKS iter  15:  -473.33266916134772    5.68434e-14   6.99833e-11 DIIS
  Energy and wave function converged.


  ==> Post-Iterations <==

   @Spin Contamination Metric:   1.148597556E-02
   @S^2 Expected:                2.000000000E+00
   @S^2 Observed:                2.011485976E+00
   @S   Expected:                1.000000000E+00
   @S   Observed:                1.000000000E+00

    Orbital Energies [Eh]
    ---------------------

    Alpha Occupied:                                                       

       1A1   -88.983616     2A1   -19.283316     3A1    -8.133055  
       1B1    -6.088983     1B2    -6.088983     4A1    -6.087278  
       5A1    -1.225042     6A1    -0.810279     2B2    -0.575505  
       2B1    -0.575505     7A1    -0.566356     3B1    -0.364666  
       3B2    -0.364666  

    Alpha Virtual:                                                        

       8A1     0.087245     9A1     0.255706     4B1     0.257293  
       4B2     0.257293    10A1     0.298565     1A2     0.304938  
      11A1     0.304939     5B1     0.410719     5B2     0.410719  
      12A1     0.439780     6B2     0.565804     6B1     0.565804  
      13A1     0.675942    14A1     0.921593     2A2     0.977428  
      15A1     0.977430    16A1     0.988367     3A2     0.988368  
       7B1     1.005300     7B2     1.005300    17A1     1.091183  
       8B1     1.096144     8B2     1.096144     9B1     1.249341  
       9B2     1.249341    10B1     1.287091    10B2     1.287091  
      18A1     1.304381     4A2     1.409728    19A1     1.409734  
      20A1     1.457075    21A1     1.724836    11B2     1.744584  
      11B1     1.744584    22A1     2.067513    12B2     2.501695  
      12B1     2.501695     5A2     2.648928    23A1     2.648936  
      24A1     2.681378    13B1     2.782564    13B2     2.782564  
      25A1     2.858457     6A2     2.858458    14B1     2.864364  
      14B2     2.864364    15B1     2.958709    15B2     2.958709  
       7A2     2.999417    26A1     2.999422    27A1     3.169099  
      16B1     3.171509    16B2     3.171509     8A2     3.232524  
      28A1     3.232527    17B1     3.382889    17B2     3.382889  
      29A1     3.419313    18B1     3.577910    18B2     3.577910  
      30A1     3.619253    31A1     3.840761     9A2     3.840762  
      32A1     3.879430    10A2     4.081096    33A1     4.081102  
      19B2     4.315431    19B1     4.315431    34A1     4.605872  
      20B1     4.716718    20B2     4.716718    35A1     4.810825  
      21B1     5.442294    21B2     5.442294    36A1     7.167642  
      22B1     8.592260    22B2     8.592260    37A1     8.608491  
      38A1     8.651281    11A2     8.651317    12A2     8.900276  
      39A1     8.900499    23B1     8.923793    23B2     8.923793  
      40A1     9.105168    13A2     9.105168    24B2     9.461724  
      24B1     9.461724    41A1     9.749188    25B2    10.007694  
      25B1    10.007694    42A1    10.744625    26B1    10.965761  
      26B2    10.965761    14A2    11.201871    43A1    11.201875  
      27B2    11.782023    27B1    11.782023    44A1    11.861542  
      45A1    11.997424    15A2    11.997555    28B2    12.277284  
      28B1    12.277284    46A1    13.042922    47A1    18.156870  
      48A1    40.716323  

    Beta Occupied:                                                        

       1A1   -88.977284     2A1   -19.264997     3A1    -8.126877  
       4A1    -6.083495     1B1    -6.075767     1B2    -6.075767  
       5A1    -1.185151     6A1    -0.736329     7A1    -0.532429  
       2B1    -0.500149     2B2    -0.500149  

    Beta Virtual:                                                         

       3B1    -0.035328     3B2    -0.035328     8A1     0.102759  
       9A1     0.264634     4B2     0.271294     4B1     0.271294  
      10A1     0.311364     1A2     0.340098    11A1     0.340098  
       5B1     0.445726     5B2     0.445726    12A1     0.445813  
       6B1     0.580669     6B2     0.580669    13A1     0.688671  
      14A1     0.931622     2A2     0.997303    15A1     0.997303  
      16A1     1.021944     3A2     1.021945     7B1     1.022745  
       7B2     1.022745    17A1     1.111586     8B1     1.121303  
       8B2     1.121303     9B1     1.274362     9B2     1.274362  
      10B2     1.312914    10B1     1.312914    18A1     1.319128  
       4A2     1.431984    19A1     1.431990    20A1     1.469447  
      21A1     1.740826    11B1     1.761210    11B2     1.761210  
      22A1     2.083935    12B1     2.537938    12B2     2.537938  
       5A2     2.676574    23A1     2.676580    24A1     2.696869  
      13B1     2.804940    13B2     2.804940     6A2     2.876543  
      25A1     2.876543    14B1     2.892277    14B2     2.892277  
      15B2     2.979212    15B1     2.979212     7A2     3.048235  
      26A1     3.048239    27A1     3.190971    16B1     3.224052  
      16B2     3.224052     8A2     3.271934    28A1     3.271937  
      17B1     3.414227    17B2     3.414227    29A1     3.445940  
      18B1     3.604550    18B2     3.604550    30A1     3.640413  
      31A1     3.887879     9A2     3.887881    32A1     3.903325  
      10A2     4.109003    33A1     4.109008    19B1     4.343086  
      19B2     4.343086    34A1     4.623080    20B1     4.740824  
      20B2     4.740824    35A1     4.825433    21B1     5.467653  
      21B2     5.467653    36A1     7.189000    22B1     8.605948  
      22B2     8.605948    37A1     8.623066    38A1     8.669261  
      11A2     8.669298    12A2     8.945730    39A1     8.945942  
      23B1     8.956915    23B2     8.956915    40A1     9.131766  
      13A2     9.131769    24B1     9.484889    24B2     9.484889  
      41A1     9.768097    25B1    10.059037    25B2    10.059037  
      42A1    10.774903    26B1    11.034988    26B2    11.034988  
      14A2    11.251280    43A1    11.251285    27B1    11.816119  
      27B2    11.816119    44A1    11.884233    45A1    12.083048  
      15A2    12.083169    28B1    12.330041    28B2    12.330041  
      46A1    13.077188    47A1    18.169253    48A1    40.743283  

    Final Occupation by Irrep:
             A1    A2    B1    B2 
    DOCC [     7,    0,    2,    2 ]
    SOCC [     0,    0,    1,    1 ]

  @DF-UKS Final Energy:  -473.33266916134772

   => Energetics <=

    Nuclear Repulsion Energy =             45.9177423484893694
    One-Electron Energy =                -743.9710686173280010
    Two-Electron Energy =                 250.1071586221826806
    DFT Exchange-Correlation Energy =     -25.4873219002395963
    Empirical Dispersion Energy =           0.0000000000000000
    VV10 Nonlocal Energy =                  0.1008203855478260
    Total Energy =                       -473.3326691613477237

  UHF NO Occupations:
  HONO-2 :    2 B2 1.9978425
  HONO-1 :    3 B2 1.0000000
  HONO-0 :    3 B1 1.0000000
  LUNO+0 :    4 B2 0.0021575
  LUNO+1 :    4 B1 0.0021575
  LUNO+2 :    8 A1 0.0011066
  LUNO+3 :    9 A1 0.0002435


Computation Completed


Properties will be evaluated at   0.000000,   0.000000,   0.000000 [a0]

Properties computed using the SCF density matrix

  Nuclear Dipole Moment: [e a0]
     X:     0.0000      Y:     0.0000      Z:    -0.0083

  Electronic Dipole Moment: [e a0]
     X:     0.0000      Y:     0.0000      Z:    -0.6047

  Dipole Moment: [e a0]
     X:     0.0000      Y:     0.0000      Z:    -0.6129     Total:     0.6129

  Dipole Moment: [D]
     X:     0.0000      Y:     0.0000      Z:    -1.5580     Total:     1.5580


*** tstop() called on bp1-compute00140.data.bp.acrc.priv at Tue Apr 27 17:09:23 2021
Module time:
	user time   =     175.00 seconds =       2.92 minutes
	system time =       7.55 seconds =       0.13 minutes
	total time  =          8 seconds =       0.13 minutes
Total time:
	user time   =    2119.96 seconds =      35.33 minutes
	system time =     100.42 seconds =       1.67 minutes
	total time  =         95 seconds =       1.58 minutes

         ----------------------------------------------------------
                                   FINDIF
                     R. A. King and Jonathon Misiewicz
         ---------------------------------------------------------

  Computing second-derivative from energies using projected, 
  symmetry-adapted, cartesian coordinates.

  3 energies passed in, including the reference geometry.
    Using 3-point formula.
    Energy without displacement: -473.3326700182
    Check energies below for precision!
    0: -1 :      -473.3326694622
    0: 1  :      -473.3326691613

-------------------------------------------------------------


  ==> Harmonic Vibrational Analysis <==

  non-mass-weighted Hessian:       Symmetric? True   Hermitian? True   Lin Dep Dim?  5 (0)
  projection of translations (True) and rotations (True) removed 5 degrees of freedom (5)
  total projector:                 Symmetric? True   Hermitian? True   Lin Dep Dim?  5 (5)
  mass-weighted Hessian:           Symmetric? True   Hermitian? True   Lin Dep Dim?  5 (0)
  pre-proj  low-frequency mode:    0.0000  [cm^-1]
  pre-proj  low-frequency mode:    0.0000  [cm^-1]
  pre-proj  low-frequency mode:    0.0000  [cm^-1]
  pre-proj  low-frequency mode:    0.0000  [cm^-1]
  pre-proj  low-frequency mode:    0.0000  [cm^-1]
  pre-proj  all modes:['0.0000' '0.0000' '0.0000' '0.0000' '0.0000' '1222.0516']
  projected mass-weighted Hessian: Symmetric? True   Hermitian? True   Lin Dep Dim?  5 (5)
  post-proj low-frequency mode:    0.0000  [cm^-1] (TR)
  post-proj low-frequency mode:    0.0000  [cm^-1] (TR)
  post-proj low-frequency mode:    0.0000  [cm^-1] (TR)
  post-proj low-frequency mode:    0.0000  [cm^-1] (TR)
  post-proj low-frequency mode:    0.0000  [cm^-1] (TR)
  post-proj  all modes:['0.0000' '0.0000' '0.0000' '0.0000' '0.0000' '1222.0516']

  Vibration                       6           
  Freq [cm^-1]                1222.0516       
  Irrep                           A1          
  Reduced mass [u]             19.1932        
  Force const [mDyne/A]        16.8879        
  Turning point v=0 [a0]        0.0716        
  RMS dev v=0 [a0 u^1/2]        0.2219        
  Char temp [K]               1758.2601       
  ----------------------------------------------------------------------------------
      1   S                0.00  0.00 -0.45   
      2   O                0.00  0.00  0.89   

  ==> Thermochemistry Components <==

  Entropy, S
    Electronic S            2.183 [cal/(mol K)]        9.134 [J/(mol K)]       0.00347910 [mEh/K] (multiplicity = 3)
    Translational S        37.528 [cal/(mol K)]      157.018 [J/(mol K)]       0.05980487 [mEh/K] (mol. weight = 47.9670 [u], P = 101325.00 [Pa])
    Rotational S           13.223 [cal/(mol K)]       55.326 [J/(mol K)]       0.02107263 [mEh/K] (symmetry no. = 1)
    Vibrational S           0.038 [cal/(mol K)]        0.158 [J/(mol K)]       0.00006015 [mEh/K]
  Total S                  52.972 [cal/(mol K)]      221.636 [J/(mol K)]       0.08441675 [mEh/K]
  Correction S              0.000 [cal/(mol K)]        0.000 [J/(mol K)]       0.00000000 [mEh/K]

  Constant volume heat capacity, Cv
    Electronic Cv           0.000 [cal/(mol K)]        0.000 [J/(mol K)]       0.00000000 [mEh/K]
    Translational Cv        2.981 [cal/(mol K)]       12.472 [J/(mol K)]       0.00475022 [mEh/K]
    Rotational Cv           1.987 [cal/(mol K)]        8.314 [J/(mol K)]       0.00316681 [mEh/K]
    Vibrational Cv          0.191 [cal/(mol K)]        0.799 [J/(mol K)]       0.00030421 [mEh/K]
  Total Cv                  5.159 [cal/(mol K)]       21.585 [J/(mol K)]       0.00822124 [mEh/K]
  Correction Cv             0.000 [cal/(mol K)]        0.000 [J/(mol K)]       0.00000000 [mEh/K]

  Constant pressure heat capacity, Cp
    Electronic Cp           0.000 [cal/(mol K)]        0.000 [J/(mol K)]       0.00000000 [mEh/K]
    Translational Cp        4.968 [cal/(mol K)]       20.786 [J/(mol K)]       0.00791703 [mEh/K]
    Rotational Cp           1.987 [cal/(mol K)]        8.314 [J/(mol K)]       0.00316681 [mEh/K]
    Vibrational Cp          0.191 [cal/(mol K)]        0.799 [J/(mol K)]       0.00030421 [mEh/K]
  Total Cp                  7.146 [cal/(mol K)]       29.899 [J/(mol K)]       0.01138805 [mEh/K]
  Correction Cp             0.000 [cal/(mol K)]        0.000 [J/(mol K)]       0.00000000 [mEh/K]

  ==> Thermochemistry Energy Analysis <==

  Raw electronic energy, E0
  Total E0, Electronic energy at well bottom at 0 [K]                 -473.33267002 [Eh]

  Zero-point energy, ZPE_vib = Sum_i nu_i / 2
    Electronic ZPE          0.000 [kcal/mol]        0.000 [kJ/mol]       0.00000000 [Eh]
    Translational ZPE       0.000 [kcal/mol]        0.000 [kJ/mol]       0.00000000 [Eh]
    Rotational ZPE          0.000 [kcal/mol]        0.000 [kJ/mol]       0.00000000 [Eh]
    Vibrational ZPE         1.747 [kcal/mol]        7.309 [kJ/mol]       0.00278404 [Eh]         611.026 [cm^-1]
  Correction ZPE            1.747 [kcal/mol]        7.309 [kJ/mol]       0.00278404 [Eh]         611.026 [cm^-1]
  Total ZPE, Electronic energy at 0 [K]                               -473.32988598 [Eh]

  Thermal Energy, E (includes ZPE)
    Electronic E            0.000 [kcal/mol]        0.000 [kJ/mol]       0.00000000 [Eh]
    Translational E         0.889 [kcal/mol]        3.718 [kJ/mol]       0.00141628 [Eh]
    Rotational E            0.592 [kcal/mol]        2.479 [kJ/mol]       0.00094418 [Eh]
    Vibrational E           1.757 [kcal/mol]        7.350 [kJ/mol]       0.00279938 [Eh]
  Correction E              3.238 [kcal/mol]       13.547 [kJ/mol]       0.00515984 [Eh]
  Total E, Electronic energy at  298.15 [K]                           -473.32751018 [Eh]

  Enthalpy, H_trans = E_trans + k_B * T
    Electronic H            0.000 [kcal/mol]        0.000 [kJ/mol]       0.00000000 [Eh]
    Translational H         1.481 [kcal/mol]        6.197 [kJ/mol]       0.00236046 [Eh]
    Rotational H            0.592 [kcal/mol]        2.479 [kJ/mol]       0.00094418 [Eh]
    Vibrational H           1.757 [kcal/mol]        7.350 [kJ/mol]       0.00279938 [Eh]
  Correction H              3.830 [kcal/mol]       16.026 [kJ/mol]       0.00610402 [Eh]
  Total H, Enthalpy at  298.15 [K]                                    -473.32656600 [Eh]

  Gibbs free energy, G = H - T * S
    Electronic G           -0.651 [kcal/mol]       -2.723 [kJ/mol]      -0.00103729 [Eh]
    Translational G        -9.708 [kcal/mol]      -40.617 [kJ/mol]      -0.01547036 [Eh]
    Rotational G           -3.350 [kcal/mol]      -14.017 [kJ/mol]      -0.00533862 [Eh]
    Vibrational G           1.745 [kcal/mol]        7.303 [kJ/mol]       0.00278144 [Eh]
  Correction G            -11.963 [kcal/mol]      -50.055 [kJ/mol]      -0.01906483 [Eh]
  Total G, Free enthalpy at  298.15 [K]                               -473.35173485 [Eh]

    Psi4 stopped on: Tuesday, 27 April 2021 05:09PM
    Psi4 wall time for execution: 0:01:34.81

*** Psi4 exiting successfully. Buy a developer a beer!
