
    -----------------------------------------------------------------------
          Psi4: An Open-Source Ab Initio Electronic Structure Package
                               Psi4 1.3.2 release

                         Git: Rev {HEAD} ecbda83 


    R. M. Parrish, L. A. Burns, D. G. A. Smith, A. C. Simmonett,
    A. E. DePrince III, E. G. Hohenstein, U. Bozkaya, A. Yu. Sokolov,
    R. Di Remigio, R. M. Richard, J. F. Gonthier, A. M. James,
    H. R. McAlexander, A. Kumar, M. Saitow, X. Wang, B. P. Pritchard,
    P. Verma, H. F. Schaefer III, K. Patkowski, R. A. King, E. F. Valeev,
    F. A. Evangelista, J. M. Turney, T. D. Crawford, and C. D. Sherrill,
    J. Chem. Theory Comput. 13(7) pp 3185--3197 (2017).
    (doi: 10.1021/acs.jctc.7b00174)


                         Additional Contributions by
    P. Kraus, H. Kruse, M. H. Lechner, M. C. Schieber, R. A. Shaw,
    A. Alenaizan, R. Galvelis, Z. L. Glick, S. Lehtola, and J. P. Misiewicz

    -----------------------------------------------------------------------


    Psi4 started on: Tuesday, 27 April 2021 05:27PM

    Process ID: 184330
    Host:       bp1-compute00140.data.bp.acrc.priv
    PSIDATADIR: /work/zw18965/.conda/envs/p4env/share/psi4
    Memory:     500.0 MiB
    Threads:    24
    
  ==> Input File <==

--------------------------------------------------------------------------
memory 144 GB

molecule {
0 1
C 0.0000000000 0.0000000000 0.0000000000
C 0.0000000000 0.0000000000 1.2065000000
H 0.0000000000 -0.0000000000 2.2699000000
H -0.0000000000 -0.0000000000 -1.0634000000
}

set dynamic_level 1
set basis aug-cc-pV(T+d)Z
 
optimize("wB97M-V")
frequencies("wB97M-V")
--------------------------------------------------------------------------

  Memory set to 134.110 GiB by Python driver.
gradient() will perform gradient computation by finite difference of analytic energies.

         ----------------------------------------------------------
                                   FINDIF
                     R. A. King and Jonathon Misiewicz
         ---------------------------------------------------------

  Using finite-differences of energies to determine gradients.
    Generating geometries for use with 3-point formula.
    Displacement size will be 5.00e-03.
    Number of atoms is 4.
    Number of symmetric SALCs is 2.
    Translations projected? 1. Rotations projected? 1.
    Number of geometries (including reference) is 5.

  //>>>>>>>>>>>>>>>>>>>>>>>>>>>>>>>>>>>//
  //    Loading displacement 1 of 5    //
  //<<<<<<<<<<<<<<<<<<<<<<<<<<<<<<<<<<<//

*** tstart() called on bp1-compute00140.data.bp.acrc.priv
*** at Tue Apr 27 17:27:46 2021

   => Loading Basis Set <=

    Name: AUG-CC-PV(T+D)Z
    Role: ORBITAL
    Keyword: BASIS
    atoms 1-2 entry C          line   255 file /work/zw18965/.conda/envs/p4env/share/psi4/basis/aug-cc-pv_tpd_z.gbs 
    atoms 3-4 entry H          line    56 file /work/zw18965/.conda/envs/p4env/share/psi4/basis/aug-cc-pv_tpd_z.gbs 


         ---------------------------------------------------------
                                   SCF
               by Justin Turney, Rob Parrish, Andy Simmonett
                          and Daniel G. A. Smith
                              RKS Reference
                       24 Threads, 137329 MiB Core
         ---------------------------------------------------------

  ==> Geometry <==

    Molecular point group: d2h
    Full point group: D_inf_h

    Geometry (in Angstrom), charge = 0, multiplicity = 1:

       Center              X                  Y                   Z               Mass       
    ------------   -----------------  -----------------  -----------------  -----------------
         C            0.000000000000     0.000000000000    -0.603250000000    12.000000000000
         C            0.000000000000     0.000000000000     0.603250000000    12.000000000000
         H            0.000000000000     0.000000000000     1.666650000000     1.007825032230
         H            0.000000000000     0.000000000000    -1.666650000000     1.007825032230

  Running in d2h symmetry.

  Rotational constants: A = ************  B =      1.17616  C =      1.17616 [cm^-1]
  Rotational constants: A = ************  B =  35260.38772  C =  35260.38772 [MHz]
  Nuclear repulsion =   24.717610292828144

  Charge       = 0
  Multiplicity = 1
  Electrons    = 14
  Nalpha       = 7
  Nbeta        = 7

  ==> Algorithm <==

  SCF Algorithm Type is DF.
  DIIS enabled.
  MOM disabled.
  Fractional occupation disabled.
  Guess Type is SAD.
  Energy threshold   = 1.00e-08
  Density threshold  = 1.00e-08
  Integral threshold = 0.00e+00

  ==> Primary Basis <==

  Basis Set: AUG-CC-PV(T+D)Z
    Blend: AUG-CC-PV(T+D)Z
    Number of shells: 46
    Number of basis function: 138
    Number of Cartesian functions: 160
    Spherical Harmonics?: true
    Max angular momentum: 3

  ==> DFT Potential <==

   => Composite Functional: WB97M-V <= 

    wB97M-V Hyb-GGA Exchange-Correlation Functional

    N. Mardirossian and M. Head-Gordon, J. Chem. Phys. 144, 214110 (2016)

    Deriv               =              1
    GGA                 =           TRUE
    Meta                =           TRUE

    Exchange Hybrid     =           TRUE
    MP2 Hybrid          =          FALSE

   => Exchange-Correlation Functionals <=

    1.0000   wB97M-V exchange-correlation functional

   => Exact (HF) Exchange <=

    0.8500            HF,LR [omega = 0.3000]
    0.1500               HF 

   => VV10 Non-Local Parameters <=

    VV10 B              =     6.0000E+00
    VV10 C              =     1.0000E-02

   => Molecular Quadrature <=

    Radial Scheme          =       TREUTLER
    Pruning Scheme         =           FLAT
    Nuclear Scheme         =       TREUTLER

    BS radius alpha        =              1
    Pruning alpha          =              1
    Radial Points          =             75
    Spherical Points       =            302
    Total Points           =          90600
    Total Blocks           =            744
    Max Points             =            256
    Max Functions          =            138

   => Loading Basis Set <=

    Name: (AUG-CC-PV(T+D)Z AUX)
    Role: JKFIT
    Keyword: DF_BASIS_SCF
    atoms 1-2 entry C          line   162 file /work/zw18965/.conda/envs/p4env/share/psi4/basis/aug-cc-pvtz-jkfit.gbs 
    atoms 3-4 entry H          line    70 file /work/zw18965/.conda/envs/p4env/share/psi4/basis/aug-cc-pvtz-jkfit.gbs 

  ==> Pre-Iterations <==

   -------------------------------------------------------
    Irrep   Nso     Nmo     Nalpha   Nbeta   Ndocc  Nsocc
   -------------------------------------------------------
     Ag        30      30       0       0       0       0
     B1g        7       7       0       0       0       0
     B2g       16      16       0       0       0       0
     B3g       16      16       0       0       0       0
     Au         7       7       0       0       0       0
     B1u       30      30       0       0       0       0
     B2u       16      16       0       0       0       0
     B3u       16      16       0       0       0       0
   -------------------------------------------------------
    Total     138     138       7       7       7       0
   -------------------------------------------------------

  ==> Integral Setup <==

  ==> DiskDFJK: Density-Fitted J/K Matrices <==

    J tasked:                  Yes
    K tasked:                  Yes
    wK tasked:                 Yes
    Omega:               3.000E-01
    OpenMP threads:             24
    Integrals threads:          24
    Memory [MiB]:           102131
    Algorithm:                Core
    Integral Cache:           NONE
    Schwarz Cutoff:          1E-12
    Fitting Condition:       1E-10

   => Auxiliary Basis Set <=

  Basis Set: (AUG-CC-PV(T+D)Z AUX)
    Blend: AUG-CC-PVTZ-JKFIT
    Number of shells: 88
    Number of basis function: 300
    Number of Cartesian functions: 372
    Spherical Harmonics?: true
    Max angular momentum: 4

  Cached 100.0% of DFT collocation blocks in 0.845 [GiB].

  Minimum eigenvalue in the overlap matrix is 8.5646635693E-06.
  Using Symmetric Orthogonalization.

  SCF Guess: Superposition of Atomic Densities via on-the-fly atomic UHF.

  ==> Iterations <==

                           Total Energy        Delta E     RMS |[F,P]|

   @DF-RKS iter SAD:   -76.46208467784651   -7.64621e+01   0.00000e+00 
   @DF-RKS iter   1:   -77.22017336486225   -7.58089e-01   8.69051e-03 DIIS
   @DF-RKS iter   2:   -77.28536856761352   -6.51952e-02   5.18212e-03 DIIS
   @DF-RKS iter   3:   -77.32328943632413   -3.79209e-02   1.78137e-04 DIIS
   @DF-RKS iter   4:   -77.32335734833703   -6.79120e-05   1.65974e-05 DIIS
   @DF-RKS iter   5:   -77.32335834317337   -9.94836e-07   1.90230e-06 DIIS
   @DF-RKS iter   6:   -77.32335835721838   -1.40450e-08   2.86114e-07 DIIS
   @DF-RKS iter   7:   -77.32335835745502   -2.36639e-10   4.32088e-08 DIIS
   @DF-RKS iter   8:   -77.32335835746223   -7.20490e-12   7.13703e-09 DIIS
  Energy and wave function converged.


  ==> Post-Iterations <==

    Orbital Energies [Eh]
    ---------------------

    Doubly Occupied:                                                      

       1Ag   -10.355214     1B1u  -10.352880     2Ag    -0.876791  
       2B1u   -0.679684     3Ag    -0.603687     1B3u   -0.394373  
       1B2u   -0.394373  

    Virtual:                                                              

       4Ag     0.017110     3B1u    0.023936     1B2g    0.066964  
       1B3g    0.066964     2B3u    0.071221     2B2u    0.071221  
       5Ag     0.084910     4B1u    0.095161     6Ag     0.124227  
       2B2g    0.139685     2B3g    0.139685     5B1u    0.192798  
       6B1u    0.230826     7Ag     0.241664     3B3u    0.244963  
       3B2u    0.244963     1B1g    0.263691     8Ag     0.263692  
       3B2g    0.342135     3B3g    0.342135     9Ag     0.344152  
       1Au     0.359320     7B1u    0.359321     8B1u    0.362164  
      10Ag     0.374519     4B2g    0.376614     4B3g    0.376614  
       4B3u    0.433018     4B2u    0.433018     9B1u    0.475838  
      10B1u    0.533967     5B2u    0.548860     5B3u    0.548860  
      11Ag     0.569537     5B2g    0.759268     5B3g    0.759268  
       2B1g    0.816740    12Ag     0.816740    11B1u    0.817437  
      13Ag     0.817753     6B2u    0.857313     6B3u    0.857313  
      14Ag     0.885575     3B1g    0.916546    15Ag     0.916547  
      12B1u    0.948257     2Au     0.948258     6B2g    0.950698  
       6B3g    0.950698    13B1u    0.955705     7B3u    0.961050  
       7B2u    0.961050    16Ag     1.056029     8B3u    1.083171  
       8B2u    1.083171    14B1u    1.098478     3Au     1.098481  
      15B1u    1.112967     7B3g    1.199290     7B2g    1.199290  
      16B1u    1.210311     8B3g    1.293008     8B2g    1.293008  
       9B2u    1.425943     9B3u    1.425943    17Ag     1.519173  
       4B1g    1.519180     9B2g    1.620056     9B3g    1.620056  
      18Ag     1.650841    10B2u    1.766044    10B3u    1.766044  
      17B1u    1.790355    19Ag     1.853165     4Au     1.887380  
      18B1u    1.887392    19B1u    1.986603    20Ag     2.016317  
      10B3g    2.198063    10B2g    2.198063    11B2u    2.577942  
      11B3u    2.577942    20B1u    2.608217    21Ag     2.758093  
      21B1u    2.840855     5B1g    2.929557    22Ag     2.929560  
      11B3g    2.952303    11B2g    2.952303    12B2u    3.076964  
      12B3u    3.076964    13B3u    3.136526    13B2u    3.136526  
      22B1u    3.207885     5Au     3.207891    23Ag     3.331927  
       6B1g    3.331935    24Ag     3.347845    25Ag     3.461165  
      12B3g    3.461952    12B2g    3.461952    14B3u    3.527846  
      14B2u    3.527846    13B2g    3.585808    13B3g    3.585808  
      23B1u    3.619740     6Au     3.854044    24B1u    3.854048  
      26Ag     3.925021     7B1g    3.925028    25B1u    4.042476  
      26B1u    4.409938     7Au     4.409938    27Ag     4.425950  
      14B3g    4.488479    14B2g    4.488479    15B2u    4.494744  
      15B3u    4.494744    15B3g    4.773810    15B2g    4.773810  
      27B1u    5.002627    28Ag     5.070765    16B2u    5.524154  
      16B3u    5.524154    28B1u    5.853062    29B1u    6.298396  
      16B3g    6.452269    16B2g    6.452269    29Ag     6.582642  
      30Ag    13.289843    30B1u   18.985587  

    Final Occupation by Irrep:
             Ag   B1g   B2g   B3g    Au   B1u   B2u   B3u 
    DOCC [     3,    0,    0,    0,    0,    2,    1,    1 ]

  @DF-RKS Final Energy:   -77.32335835746223

   => Energetics <=

    Nuclear Repulsion Energy =             24.7176102928281445
    One-Electron Energy =                -151.7645236743686041
    Two-Electron Energy =                  57.6932664484627864
    DFT Exchange-Correlation Energy =      -8.0274161705441180
    Empirical Dispersion Energy =           0.0000000000000000
    VV10 Nonlocal Energy =                  0.0577047461595621
    Total Energy =                        -77.3233583574622259

Computation Completed


Properties will be evaluated at   0.000000,   0.000000,   0.000000 [a0]

Properties computed using the SCF density matrix

  Nuclear Dipole Moment: [e a0]
     X:     0.0000      Y:     0.0000      Z:    -0.0000

  Electronic Dipole Moment: [e a0]
     X:     0.0000      Y:     0.0000      Z:     0.0000

  Dipole Moment: [e a0]
     X:     0.0000      Y:     0.0000      Z:    -0.0000     Total:     0.0000

  Dipole Moment: [D]
     X:     0.0000      Y:     0.0000      Z:    -0.0000     Total:     0.0000


*** tstop() called on bp1-compute00140.data.bp.acrc.priv at Tue Apr 27 17:27:51 2021
Module time:
	user time   =      92.29 seconds =       1.54 minutes
	system time =       5.39 seconds =       0.09 minutes
	total time  =          5 seconds =       0.08 minutes
Total time:
	user time   =      92.29 seconds =       1.54 minutes
	system time =       5.39 seconds =       0.09 minutes
	total time  =          5 seconds =       0.08 minutes

  //>>>>>>>>>>>>>>>>>>>>>>>>>>>>>>>>>>>//
  //    Loading displacement 2 of 5    //
  //<<<<<<<<<<<<<<<<<<<<<<<<<<<<<<<<<<<//

*** tstart() called on bp1-compute00140.data.bp.acrc.priv
*** at Tue Apr 27 17:27:51 2021

   => Loading Basis Set <=

    Name: AUG-CC-PV(T+D)Z
    Role: ORBITAL
    Keyword: BASIS
    atoms 1-2 entry C          line   255 file /work/zw18965/.conda/envs/p4env/share/psi4/basis/aug-cc-pv_tpd_z.gbs 
    atoms 3-4 entry H          line    56 file /work/zw18965/.conda/envs/p4env/share/psi4/basis/aug-cc-pv_tpd_z.gbs 


         ---------------------------------------------------------
                                   SCF
               by Justin Turney, Rob Parrish, Andy Simmonett
                          and Daniel G. A. Smith
                              RKS Reference
                       24 Threads, 137329 MiB Core
         ---------------------------------------------------------

  ==> Geometry <==

    Molecular point group: d2h
    Full point group: D_inf_h

    Geometry (in Angstrom), charge = 0, multiplicity = 1:

       Center              X                  Y                   Z               Mass       
    ------------   -----------------  -----------------  -----------------  -----------------
         C            0.000000000000     0.000000000000    -0.603790089229    12.000000000000
         C            0.000000000000     0.000000000000     0.603790089229    12.000000000000
         H            0.000000000000     0.000000000000     1.666650000000     1.007825032230
         H            0.000000000000     0.000000000000    -1.666650000000     1.007825032230

  Running in d2h symmetry.

  Rotational constants: A = ************  B =      1.17488  C =      1.17488 [cm^-1]
  Rotational constants: A = ************  B =  35221.93903  C =  35221.93903 [MHz]
  Nuclear repulsion =   24.705855296097269

  Charge       = 0
  Multiplicity = 1
  Electrons    = 14
  Nalpha       = 7
  Nbeta        = 7

  ==> Algorithm <==

  SCF Algorithm Type is DF.
  DIIS enabled.
  MOM disabled.
  Fractional occupation disabled.
  Guess Type is SAD.
  Energy threshold   = 1.00e-08
  Density threshold  = 1.00e-08
  Integral threshold = 0.00e+00

  ==> Primary Basis <==

  Basis Set: AUG-CC-PV(T+D)Z
    Blend: AUG-CC-PV(T+D)Z
    Number of shells: 46
    Number of basis function: 138
    Number of Cartesian functions: 160
    Spherical Harmonics?: true
    Max angular momentum: 3

  ==> DFT Potential <==

   => Composite Functional: WB97M-V <= 

    wB97M-V Hyb-GGA Exchange-Correlation Functional

    N. Mardirossian and M. Head-Gordon, J. Chem. Phys. 144, 214110 (2016)

    Deriv               =              1
    GGA                 =           TRUE
    Meta                =           TRUE

    Exchange Hybrid     =           TRUE
    MP2 Hybrid          =          FALSE

   => Exchange-Correlation Functionals <=

    1.0000   wB97M-V exchange-correlation functional

   => Exact (HF) Exchange <=

    0.8500            HF,LR [omega = 0.3000]
    0.1500               HF 

   => VV10 Non-Local Parameters <=

    VV10 B              =     6.0000E+00
    VV10 C              =     1.0000E-02

   => Molecular Quadrature <=

    Radial Scheme          =       TREUTLER
    Pruning Scheme         =           FLAT
    Nuclear Scheme         =       TREUTLER

    BS radius alpha        =              1
    Pruning alpha          =              1
    Radial Points          =             75
    Spherical Points       =            302
    Total Points           =          90600
    Total Blocks           =            744
    Max Points             =            256
    Max Functions          =            138

   => Loading Basis Set <=

    Name: (AUG-CC-PV(T+D)Z AUX)
    Role: JKFIT
    Keyword: DF_BASIS_SCF
    atoms 1-2 entry C          line   162 file /work/zw18965/.conda/envs/p4env/share/psi4/basis/aug-cc-pvtz-jkfit.gbs 
    atoms 3-4 entry H          line    70 file /work/zw18965/.conda/envs/p4env/share/psi4/basis/aug-cc-pvtz-jkfit.gbs 

  ==> Pre-Iterations <==

   -------------------------------------------------------
    Irrep   Nso     Nmo     Nalpha   Nbeta   Ndocc  Nsocc
   -------------------------------------------------------
     Ag        30      30       0       0       0       0
     B1g        7       7       0       0       0       0
     B2g       16      16       0       0       0       0
     B3g       16      16       0       0       0       0
     Au         7       7       0       0       0       0
     B1u       30      30       0       0       0       0
     B2u       16      16       0       0       0       0
     B3u       16      16       0       0       0       0
   -------------------------------------------------------
    Total     138     138       7       7       7       0
   -------------------------------------------------------

  ==> Integral Setup <==

  ==> DiskDFJK: Density-Fitted J/K Matrices <==

    J tasked:                  Yes
    K tasked:                  Yes
    wK tasked:                 Yes
    Omega:               3.000E-01
    OpenMP threads:             24
    Integrals threads:          24
    Memory [MiB]:           102131
    Algorithm:                Core
    Integral Cache:           NONE
    Schwarz Cutoff:          1E-12
    Fitting Condition:       1E-10

   => Auxiliary Basis Set <=

  Basis Set: (AUG-CC-PV(T+D)Z AUX)
    Blend: AUG-CC-PVTZ-JKFIT
    Number of shells: 88
    Number of basis function: 300
    Number of Cartesian functions: 372
    Spherical Harmonics?: true
    Max angular momentum: 4

  Cached 100.0% of DFT collocation blocks in 0.845 [GiB].

  Minimum eigenvalue in the overlap matrix is 8.5892445472E-06.
  Using Symmetric Orthogonalization.

  SCF Guess: Superposition of Atomic Densities via on-the-fly atomic UHF.

  ==> Iterations <==

                           Total Energy        Delta E     RMS |[F,P]|

   @DF-RKS iter SAD:   -76.46124464219368   -7.64612e+01   0.00000e+00 
   @DF-RKS iter   1:   -77.22053360892806   -7.59289e-01   8.67053e-03 DIIS
   @DF-RKS iter   2:   -77.28554666897236   -6.50131e-02   5.16633e-03 DIIS
   @DF-RKS iter   3:   -77.32324076618382   -3.76941e-02   1.77417e-04 DIIS
   @DF-RKS iter   4:   -77.32330835209183   -6.75859e-05   1.66173e-05 DIIS
   @DF-RKS iter   5:   -77.32330934764201   -9.95550e-07   1.90323e-06 DIIS
   @DF-RKS iter   6:   -77.32330936176716   -1.41251e-08   2.89937e-07 DIIS
   @DF-RKS iter   7:   -77.32330936201039   -2.43233e-10   4.47189e-08 DIIS
   @DF-RKS iter   8:   -77.32330936201799   -7.60281e-12   7.36004e-09 DIIS
  Energy and wave function converged.


  ==> Post-Iterations <==

    Orbital Energies [Eh]
    ---------------------

    Doubly Occupied:                                                      

       1Ag   -10.355488     1B1u  -10.353173     2Ag    -0.876619  
       2B1u   -0.679999     3Ag    -0.603815     1B2u   -0.394213  
       1B3u   -0.394213  

    Virtual:                                                              

       4Ag     0.017098     3B1u    0.023930     1B2g    0.066876  
       1B3g    0.066876     2B3u    0.071229     2B2u    0.071229  
       5Ag     0.084917     4B1u    0.095167     6Ag     0.124197  
       2B2g    0.139465     2B3g    0.139465     5B1u    0.192762  
       6B1u    0.230810     7Ag     0.241755     3B3u    0.244966  
       3B2u    0.244966     1B1g    0.263663     8Ag     0.263664  
       3B2g    0.342054     3B3g    0.342054     9Ag     0.344099  
       1Au     0.359308     7B1u    0.359309     8B1u    0.362109  
      10Ag     0.374509     4B2g    0.376550     4B3g    0.376550  
       4B3u    0.433058     4B2u    0.433058     9B1u    0.475665  
      10B1u    0.533883     5B3u    0.548928     5B2u    0.548928  
      11Ag     0.569651     5B2g    0.759192     5B3g    0.759192  
       2B1g    0.816696    12Ag     0.816696    11B1u    0.816980  
      13Ag     0.817580     6B2u    0.857320     6B3u    0.857320  
      14Ag     0.885364     3B1g    0.916538    15Ag     0.916538  
      12B1u    0.948171     2Au     0.948172     6B2g    0.950583  
       6B3g    0.950583    13B1u    0.955738     7B2u    0.960984  
       7B3u    0.960984    16Ag     1.056115     8B3u    1.083017  
       8B2u    1.083017    14B1u    1.098606     3Au     1.098608  
      15B1u    1.112786     7B3g    1.199120     7B2g    1.199120  
      16B1u    1.209595     8B3g    1.292928     8B2g    1.292928  
       9B3u    1.426519     9B2u    1.426519    17Ag     1.519009  
       4B1g    1.519017     9B2g    1.619963     9B3g    1.619963  
      18Ag     1.650056    10B2u    1.765741    10B3u    1.765741  
      17B1u    1.790310    19Ag     1.853358     4Au     1.887122  
      18B1u    1.887134    19B1u    1.985928    20Ag     2.015551  
      10B2g    2.198162    10B3g    2.198162    11B2u    2.578121  
      11B3u    2.578121    20B1u    2.607880    21Ag     2.758373  
      21B1u    2.839747     5B1g    2.929789    22Ag     2.929793  
      11B2g    2.951779    11B3g    2.951779    12B3u    3.076373  
      12B2u    3.076373    13B2u    3.136750    13B3u    3.136750  
      22B1u    3.207658     5Au     3.207664    23Ag     3.331418  
       6B1g    3.331426    24Ag     3.347075    25Ag     3.460878  
      12B3g    3.461389    12B2g    3.461389    14B2u    3.527230  
      14B3u    3.527230    13B2g    3.585737    13B3g    3.585737  
      23B1u    3.620172     6Au     3.853440    24B1u    3.853444  
      26Ag     3.925186     7B1g    3.925193    25B1u    4.042410  
      26B1u    4.409462     7Au     4.409462    27Ag     4.424952  
      14B2g    4.487892    14B3g    4.487892    15B2u    4.495292  
      15B3u    4.495292    15B2g    4.773982    15B3g    4.773982  
      27B1u    5.004031    28Ag     5.071822    16B3u    5.524241  
      16B2u    5.524241    28B1u    5.854443    29B1u    6.297677  
      16B2g    6.452634    16B3g    6.452634    29Ag     6.580268  
      30Ag    13.301440    30B1u   18.955851  

    Final Occupation by Irrep:
             Ag   B1g   B2g   B3g    Au   B1u   B2u   B3u 
    DOCC [     3,    0,    0,    0,    0,    2,    1,    1 ]

  @DF-RKS Final Energy:   -77.32330936201799

   => Energetics <=

    Nuclear Repulsion Energy =             24.7058552960972690
    One-Electron Energy =                -151.7401678987510536
    Two-Electron Energy =                  57.6802000408636317
    DFT Exchange-Correlation Energy =      -8.0269013971470820
    Empirical Dispersion Energy =           0.0000000000000000
    VV10 Nonlocal Energy =                  0.0577045969192424
    Total Energy =                        -77.3233093620179943

Computation Completed


Properties will be evaluated at   0.000000,   0.000000,   0.000000 [a0]

Properties computed using the SCF density matrix

  Nuclear Dipole Moment: [e a0]
     X:     0.0000      Y:     0.0000      Z:     0.0000

  Electronic Dipole Moment: [e a0]
     X:     0.0000      Y:     0.0000      Z:     0.0000

  Dipole Moment: [e a0]
     X:     0.0000      Y:     0.0000      Z:     0.0000     Total:     0.0000

  Dipole Moment: [D]
     X:     0.0000      Y:     0.0000      Z:     0.0000     Total:     0.0000


*** tstop() called on bp1-compute00140.data.bp.acrc.priv at Tue Apr 27 17:27:55 2021
Module time:
	user time   =      91.08 seconds =       1.52 minutes
	system time =       3.46 seconds =       0.06 minutes
	total time  =          4 seconds =       0.07 minutes
Total time:
	user time   =     183.51 seconds =       3.06 minutes
	system time =       8.86 seconds =       0.15 minutes
	total time  =          9 seconds =       0.15 minutes

  //>>>>>>>>>>>>>>>>>>>>>>>>>>>>>>>>>>>//
  //    Loading displacement 3 of 5    //
  //<<<<<<<<<<<<<<<<<<<<<<<<<<<<<<<<<<<//

*** tstart() called on bp1-compute00140.data.bp.acrc.priv
*** at Tue Apr 27 17:27:55 2021

   => Loading Basis Set <=

    Name: AUG-CC-PV(T+D)Z
    Role: ORBITAL
    Keyword: BASIS
    atoms 1-2 entry C          line   255 file /work/zw18965/.conda/envs/p4env/share/psi4/basis/aug-cc-pv_tpd_z.gbs 
    atoms 3-4 entry H          line    56 file /work/zw18965/.conda/envs/p4env/share/psi4/basis/aug-cc-pv_tpd_z.gbs 


         ---------------------------------------------------------
                                   SCF
               by Justin Turney, Rob Parrish, Andy Simmonett
                          and Daniel G. A. Smith
                              RKS Reference
                       24 Threads, 137329 MiB Core
         ---------------------------------------------------------

  ==> Geometry <==

    Molecular point group: d2h
    Full point group: D_inf_h

    Geometry (in Angstrom), charge = 0, multiplicity = 1:

       Center              X                  Y                   Z               Mass       
    ------------   -----------------  -----------------  -----------------  -----------------
         C            0.000000000000     0.000000000000    -0.602709910771    12.000000000000
         C            0.000000000000     0.000000000000     0.602709910771    12.000000000000
         H            0.000000000000     0.000000000000     1.666650000000     1.007825032230
         H            0.000000000000     0.000000000000    -1.666650000000     1.007825032230

  Running in d2h symmetry.

  Rotational constants: A = ************  B =      1.17744  C =      1.17744 [cm^-1]
  Rotational constants: A = ************  B =  35298.88593  C =  35298.88593 [MHz]
  Nuclear repulsion =   24.729394000008451

  Charge       = 0
  Multiplicity = 1
  Electrons    = 14
  Nalpha       = 7
  Nbeta        = 7

  ==> Algorithm <==

  SCF Algorithm Type is DF.
  DIIS enabled.
  MOM disabled.
  Fractional occupation disabled.
  Guess Type is SAD.
  Energy threshold   = 1.00e-08
  Density threshold  = 1.00e-08
  Integral threshold = 0.00e+00

  ==> Primary Basis <==

  Basis Set: AUG-CC-PV(T+D)Z
    Blend: AUG-CC-PV(T+D)Z
    Number of shells: 46
    Number of basis function: 138
    Number of Cartesian functions: 160
    Spherical Harmonics?: true
    Max angular momentum: 3

  ==> DFT Potential <==

   => Composite Functional: WB97M-V <= 

    wB97M-V Hyb-GGA Exchange-Correlation Functional

    N. Mardirossian and M. Head-Gordon, J. Chem. Phys. 144, 214110 (2016)

    Deriv               =              1
    GGA                 =           TRUE
    Meta                =           TRUE

    Exchange Hybrid     =           TRUE
    MP2 Hybrid          =          FALSE

   => Exchange-Correlation Functionals <=

    1.0000   wB97M-V exchange-correlation functional

   => Exact (HF) Exchange <=

    0.8500            HF,LR [omega = 0.3000]
    0.1500               HF 

   => VV10 Non-Local Parameters <=

    VV10 B              =     6.0000E+00
    VV10 C              =     1.0000E-02

   => Molecular Quadrature <=

    Radial Scheme          =       TREUTLER
    Pruning Scheme         =           FLAT
    Nuclear Scheme         =       TREUTLER

    BS radius alpha        =              1
    Pruning alpha          =              1
    Radial Points          =             75
    Spherical Points       =            302
    Total Points           =          90600
    Total Blocks           =            744
    Max Points             =            256
    Max Functions          =            138

   => Loading Basis Set <=

    Name: (AUG-CC-PV(T+D)Z AUX)
    Role: JKFIT
    Keyword: DF_BASIS_SCF
    atoms 1-2 entry C          line   162 file /work/zw18965/.conda/envs/p4env/share/psi4/basis/aug-cc-pvtz-jkfit.gbs 
    atoms 3-4 entry H          line    70 file /work/zw18965/.conda/envs/p4env/share/psi4/basis/aug-cc-pvtz-jkfit.gbs 

  ==> Pre-Iterations <==

   -------------------------------------------------------
    Irrep   Nso     Nmo     Nalpha   Nbeta   Ndocc  Nsocc
   -------------------------------------------------------
     Ag        30      30       0       0       0       0
     B1g        7       7       0       0       0       0
     B2g       16      16       0       0       0       0
     B3g       16      16       0       0       0       0
     Au         7       7       0       0       0       0
     B1u       30      30       0       0       0       0
     B2u       16      16       0       0       0       0
     B3u       16      16       0       0       0       0
   -------------------------------------------------------
    Total     138     138       7       7       7       0
   -------------------------------------------------------

  ==> Integral Setup <==

  ==> DiskDFJK: Density-Fitted J/K Matrices <==

    J tasked:                  Yes
    K tasked:                  Yes
    wK tasked:                 Yes
    Omega:               3.000E-01
    OpenMP threads:             24
    Integrals threads:          24
    Memory [MiB]:           102131
    Algorithm:                Core
    Integral Cache:           NONE
    Schwarz Cutoff:          1E-12
    Fitting Condition:       1E-10

   => Auxiliary Basis Set <=

  Basis Set: (AUG-CC-PV(T+D)Z AUX)
    Blend: AUG-CC-PVTZ-JKFIT
    Number of shells: 88
    Number of basis function: 300
    Number of Cartesian functions: 372
    Spherical Harmonics?: true
    Max angular momentum: 4

  Cached 100.0% of DFT collocation blocks in 0.845 [GiB].

  Minimum eigenvalue in the overlap matrix is 8.5401790067E-06.
  Using Symmetric Orthogonalization.

  SCF Guess: Superposition of Atomic Densities via on-the-fly atomic UHF.

  ==> Iterations <==

                           Total Energy        Delta E     RMS |[F,P]|

   @DF-RKS iter SAD:   -76.46292284501709   -7.64629e+01   0.00000e+00 
   @DF-RKS iter   1:   -77.21980600772453   -7.56883e-01   8.71056e-03 DIIS
   @DF-RKS iter   2:   -77.28518390040526   -6.53779e-02   5.19797e-03 DIIS
   @DF-RKS iter   3:   -77.32333306293043   -3.81492e-02   1.78865e-04 DIIS
   @DF-RKS iter   4:   -77.32340130767692   -6.82447e-05   1.65789e-05 DIIS
   @DF-RKS iter   5:   -77.32340230193584   -9.94259e-07   1.90191e-06 DIIS
   @DF-RKS iter   6:   -77.32340231590746   -1.39716e-08   2.82349e-07 DIIS
   @DF-RKS iter   7:   -77.32340231613779   -2.30330e-10   4.17311e-08 DIIS
   @DF-RKS iter   8:   -77.32340231614441   -6.62226e-12   6.89025e-09 DIIS
  Energy and wave function converged.


  ==> Post-Iterations <==

    Orbital Energies [Eh]
    ---------------------

    Doubly Occupied:                                                      

       1Ag   -10.354941     1B1u  -10.352586     2Ag    -0.876963  
       2B1u   -0.679368     3Ag    -0.603558     1B3u   -0.394533  
       1B2u   -0.394533  

    Virtual:                                                              

       4Ag     0.017122     3B1u    0.023942     1B3g    0.067052  
       1B2g    0.067052     2B3u    0.071213     2B2u    0.071213  
       5Ag     0.084902     4B1u    0.095155     6Ag     0.124256  
       2B2g    0.139905     2B3g    0.139905     5B1u    0.192834  
       6B1u    0.230844     7Ag     0.241572     3B3u    0.244959  
       3B2u    0.244959     1B1g    0.263719     8Ag     0.263721  
       3B3g    0.342216     3B2g    0.342216     9Ag     0.344205  
       1Au     0.359333     7B1u    0.359333     8B1u    0.362218  
      10Ag     0.374528     4B3g    0.376678     4B2g    0.376678  
       4B3u    0.432978     4B2u    0.432978     9B1u    0.476010  
      10B1u    0.534051     5B3u    0.548792     5B2u    0.548792  
      11Ag     0.569422     5B3g    0.759344     5B2g    0.759344  
       2B1g    0.816784    12Ag     0.816784    11B1u    0.817894  
      13Ag     0.817924     6B2u    0.857306     6B3u    0.857306  
      14Ag     0.885788     3B1g    0.916555    15Ag     0.916555  
      12B1u    0.948343     2Au     0.948343     6B3g    0.950812  
       6B2g    0.950812    13B1u    0.955672     7B3u    0.961117  
       7B2u    0.961117    16Ag     1.055944     8B2u    1.083326  
       8B3u    1.083326    14B1u    1.098351     3Au     1.098354  
      15B1u    1.113146     7B3g    1.199461     7B2g    1.199461  
      16B1u    1.211034     8B2g    1.293087     8B3g    1.293087  
       9B3u    1.425368     9B2u    1.425368    17Ag     1.519337  
       4B1g    1.519344     9B3g    1.620149     9B2g    1.620149  
      18Ag     1.651625    10B3u    1.766347    10B2u    1.766347  
      17B1u    1.790400    19Ag     1.852961     4Au     1.887639  
      18B1u    1.887651    19B1u    1.987280    20Ag     2.017105  
      10B2g    2.197963    10B3g    2.197963    11B2u    2.577763  
      11B3u    2.577763    20B1u    2.608551    21Ag     2.757815  
      21B1u    2.841983     5B1g    2.929325    22Ag     2.929329  
      11B3g    2.952826    11B2g    2.952826    12B2u    3.077556  
      12B3u    3.077556    13B2u    3.136303    13B3u    3.136303  
      22B1u    3.208113     5Au     3.208119    23Ag     3.332437  
       6B1g    3.332445    24Ag     3.348609    25Ag     3.461455  
      12B3g    3.462516    12B2g    3.462516    14B2u    3.528463  
      14B3u    3.528463    13B3g    3.585879    13B2g    3.585879  
      23B1u    3.619312     6Au     3.854647    24B1u    3.854651  
      26Ag     3.924856     7B1g    3.924864    25B1u    4.042540  
      26B1u    4.410416     7Au     4.410416    27Ag     4.426948  
      14B2g    4.489063    14B3g    4.489063    15B2u    4.494196  
      15B3u    4.494196    15B3g    4.773639    15B2g    4.773639  
      27B1u    5.001242    28Ag     5.069715    16B2u    5.524069  
      16B3u    5.524069    28B1u    5.851701    29B1u    6.299147  
      16B2g    6.451906    16B3g    6.451906    29Ag     6.585033  
      30Ag    13.278257    30B1u   19.015338  

    Final Occupation by Irrep:
             Ag   B1g   B2g   B3g    Au   B1u   B2u   B3u 
    DOCC [     3,    0,    0,    0,    0,    2,    1,    1 ]

  @DF-RKS Final Energy:   -77.32340231614441

   => Energetics <=

    Nuclear Repulsion Energy =             24.7293940000084511
    One-Electron Energy =                -151.7889249269873346
    Two-Electron Energy =                  57.7063566562946733
    DFT Exchange-Correlation Energy =      -8.0279329444599199
    Empirical Dispersion Energy =           0.0000000000000000
    VV10 Nonlocal Energy =                  0.0577048989997236
    Total Energy =                        -77.3234023161444100

Computation Completed


Properties will be evaluated at   0.000000,   0.000000,   0.000000 [a0]

Properties computed using the SCF density matrix

  Nuclear Dipole Moment: [e a0]
     X:     0.0000      Y:     0.0000      Z:     0.0000

  Electronic Dipole Moment: [e a0]
     X:     0.0000      Y:     0.0000      Z:     0.0000

  Dipole Moment: [e a0]
     X:     0.0000      Y:     0.0000      Z:     0.0000     Total:     0.0000

  Dipole Moment: [D]
     X:     0.0000      Y:     0.0000      Z:     0.0000     Total:     0.0000


*** tstop() called on bp1-compute00140.data.bp.acrc.priv at Tue Apr 27 17:27:59 2021
Module time:
	user time   =      85.38 seconds =       1.42 minutes
	system time =       2.82 seconds =       0.05 minutes
	total time  =          4 seconds =       0.07 minutes
Total time:
	user time   =     269.02 seconds =       4.48 minutes
	system time =      11.69 seconds =       0.19 minutes
	total time  =         13 seconds =       0.22 minutes

  //>>>>>>>>>>>>>>>>>>>>>>>>>>>>>>>>>>>//
  //    Loading displacement 4 of 5    //
  //<<<<<<<<<<<<<<<<<<<<<<<<<<<<<<<<<<<//

*** tstart() called on bp1-compute00140.data.bp.acrc.priv
*** at Tue Apr 27 17:27:59 2021

   => Loading Basis Set <=

    Name: AUG-CC-PV(T+D)Z
    Role: ORBITAL
    Keyword: BASIS
    atoms 1-2 entry C          line   255 file /work/zw18965/.conda/envs/p4env/share/psi4/basis/aug-cc-pv_tpd_z.gbs 
    atoms 3-4 entry H          line    56 file /work/zw18965/.conda/envs/p4env/share/psi4/basis/aug-cc-pv_tpd_z.gbs 


         ---------------------------------------------------------
                                   SCF
               by Justin Turney, Rob Parrish, Andy Simmonett
                          and Daniel G. A. Smith
                              RKS Reference
                       24 Threads, 137329 MiB Core
         ---------------------------------------------------------

  ==> Geometry <==

    Molecular point group: d2h
    Full point group: D_inf_h

    Geometry (in Angstrom), charge = 0, multiplicity = 1:

       Center              X                  Y                   Z               Mass       
    ------------   -----------------  -----------------  -----------------  -----------------
         C            0.000000000000     0.000000000000    -0.603250000000    12.000000000000
         C            0.000000000000     0.000000000000     0.603250000000    12.000000000000
         H            0.000000000000     0.000000000000     1.664786353368     1.007825032230
         H            0.000000000000     0.000000000000    -1.664786353368     1.007825032230

  Running in d2h symmetry.

  Rotational constants: A = ************  B =      1.17719  C =      1.17719 [cm^-1]
  Rotational constants: A = ************  B =  35291.20161  C =  35291.20161 [MHz]
  Nuclear repulsion =   24.730570443607064

  Charge       = 0
  Multiplicity = 1
  Electrons    = 14
  Nalpha       = 7
  Nbeta        = 7

  ==> Algorithm <==

  SCF Algorithm Type is DF.
  DIIS enabled.
  MOM disabled.
  Fractional occupation disabled.
  Guess Type is SAD.
  Energy threshold   = 1.00e-08
  Density threshold  = 1.00e-08
  Integral threshold = 0.00e+00

  ==> Primary Basis <==

  Basis Set: AUG-CC-PV(T+D)Z
    Blend: AUG-CC-PV(T+D)Z
    Number of shells: 46
    Number of basis function: 138
    Number of Cartesian functions: 160
    Spherical Harmonics?: true
    Max angular momentum: 3

  ==> DFT Potential <==

   => Composite Functional: WB97M-V <= 

    wB97M-V Hyb-GGA Exchange-Correlation Functional

    N. Mardirossian and M. Head-Gordon, J. Chem. Phys. 144, 214110 (2016)

    Deriv               =              1
    GGA                 =           TRUE
    Meta                =           TRUE

    Exchange Hybrid     =           TRUE
    MP2 Hybrid          =          FALSE

   => Exchange-Correlation Functionals <=

    1.0000   wB97M-V exchange-correlation functional

   => Exact (HF) Exchange <=

    0.8500            HF,LR [omega = 0.3000]
    0.1500               HF 

   => VV10 Non-Local Parameters <=

    VV10 B              =     6.0000E+00
    VV10 C              =     1.0000E-02

   => Molecular Quadrature <=

    Radial Scheme          =       TREUTLER
    Pruning Scheme         =           FLAT
    Nuclear Scheme         =       TREUTLER

    BS radius alpha        =              1
    Pruning alpha          =              1
    Radial Points          =             75
    Spherical Points       =            302
    Total Points           =          90600
    Total Blocks           =            742
    Max Points             =            256
    Max Functions          =            138

   => Loading Basis Set <=

    Name: (AUG-CC-PV(T+D)Z AUX)
    Role: JKFIT
    Keyword: DF_BASIS_SCF
    atoms 1-2 entry C          line   162 file /work/zw18965/.conda/envs/p4env/share/psi4/basis/aug-cc-pvtz-jkfit.gbs 
    atoms 3-4 entry H          line    70 file /work/zw18965/.conda/envs/p4env/share/psi4/basis/aug-cc-pvtz-jkfit.gbs 

  ==> Pre-Iterations <==

   -------------------------------------------------------
    Irrep   Nso     Nmo     Nalpha   Nbeta   Ndocc  Nsocc
   -------------------------------------------------------
     Ag        30      30       0       0       0       0
     B1g        7       7       0       0       0       0
     B2g       16      16       0       0       0       0
     B3g       16      16       0       0       0       0
     Au         7       7       0       0       0       0
     B1u       30      30       0       0       0       0
     B2u       16      16       0       0       0       0
     B3u       16      16       0       0       0       0
   -------------------------------------------------------
    Total     138     138       7       7       7       0
   -------------------------------------------------------

  ==> Integral Setup <==

  ==> DiskDFJK: Density-Fitted J/K Matrices <==

    J tasked:                  Yes
    K tasked:                  Yes
    wK tasked:                 Yes
    Omega:               3.000E-01
    OpenMP threads:             24
    Integrals threads:          24
    Memory [MiB]:           102131
    Algorithm:                Core
    Integral Cache:           NONE
    Schwarz Cutoff:          1E-12
    Fitting Condition:       1E-10

   => Auxiliary Basis Set <=

  Basis Set: (AUG-CC-PV(T+D)Z AUX)
    Blend: AUG-CC-PVTZ-JKFIT
    Number of shells: 88
    Number of basis function: 300
    Number of Cartesian functions: 372
    Spherical Harmonics?: true
    Max angular momentum: 4

  Cached 100.0% of DFT collocation blocks in 0.845 [GiB].

  Minimum eigenvalue in the overlap matrix is 8.5595393150E-06.
  Using Symmetric Orthogonalization.

  SCF Guess: Superposition of Atomic Densities via on-the-fly atomic UHF.

  ==> Iterations <==

                           Total Energy        Delta E     RMS |[F,P]|

   @DF-RKS iter SAD:   -76.46275639898228   -7.64628e+01   0.00000e+00 
   @DF-RKS iter   1:   -77.22024876908264   -7.57492e-01   8.68922e-03 DIIS
   @DF-RKS iter   2:   -77.28550142378987   -6.52527e-02   5.17531e-03 DIIS
   @DF-RKS iter   3:   -77.32329331798003   -3.77919e-02   1.77875e-04 DIIS
   @DF-RKS iter   4:   -77.32336112258014   -6.78046e-05   1.66339e-05 DIIS
   @DF-RKS iter   5:   -77.32336212007280   -9.97493e-07   1.90674e-06 DIIS
   @DF-RKS iter   6:   -77.32336213424337   -1.41706e-08   2.90242e-07 DIIS
   @DF-RKS iter   7:   -77.32336213448652   -2.43148e-10   4.52562e-08 DIIS
   @DF-RKS iter   8:   -77.32336213449410   -7.58860e-12   7.44459e-09 DIIS
  Energy and wave function converged.


  ==> Post-Iterations <==

    Orbital Energies [Eh]
    ---------------------

    Doubly Occupied:                                                      

       1Ag   -10.355069     1B1u  -10.352734     2Ag    -0.876880  
       2B1u   -0.680260     3Ag    -0.604167     1B3u   -0.394403  
       1B2u   -0.394403  

    Virtual:                                                              

       4Ag     0.017100     3B1u    0.023957     1B2g    0.066965  
       1B3g    0.066965     2B3u    0.071193     2B2u    0.071193  
       5Ag     0.084938     4B1u    0.095226     6Ag     0.124181  
       2B3g    0.139650     2B2g    0.139650     5B1u    0.193027  
       6B1u    0.230963     7Ag     0.241914     3B3u    0.245057  
       3B2u    0.245057     1B1g    0.263661     8Ag     0.263662  
       3B2g    0.342172     3B3g    0.342172     9Ag     0.344194  
       1Au     0.359314     7B1u    0.359314     8B1u    0.362551  
      10Ag     0.374556     4B2g    0.376639     4B3g    0.376639  
       4B3u    0.432730     4B2u    0.432730     9B1u    0.475574  
      10B1u    0.534125     5B3u    0.549332     5B2u    0.549332  
      11Ag     0.569526     5B2g    0.759390     5B3g    0.759390  
       2B1g    0.816666    12Ag     0.816666    11B1u    0.816957  
      13Ag     0.818247     6B3u    0.857551     6B2u    0.857551  
      14Ag     0.884820     3B1g    0.916842    15Ag     0.916842  
      12B1u    0.948317     2Au     0.948318     6B2g    0.950692  
       6B3g    0.950692    13B1u    0.955855     7B2u    0.961021  
       7B3u    0.961021    16Ag     1.056479     8B3u    1.083507  
       8B2u    1.083507    14B1u    1.098877     3Au     1.098880  
      15B1u    1.113320     7B3g    1.199265     7B2g    1.199265  
      16B1u    1.211244     8B2g    1.294110     8B3g    1.294110  
       9B2u    1.425463     9B3u    1.425463    17Ag     1.519787  
       4B1g    1.519794     9B2g    1.620071     9B3g    1.620071  
      18Ag     1.650183    10B2u    1.766952    10B3u    1.766952  
      17B1u    1.790461    19Ag     1.852117     4Au     1.887887  
      18B1u    1.887899    19B1u    1.987430    20Ag     2.014601  
      10B3g    2.199134    10B2g    2.199134    11B2u    2.578768  
      11B3u    2.578768    20B1u    2.609019    21Ag     2.759153  
      21B1u    2.837066     5B1g    2.929540    22Ag     2.929544  
      11B2g    2.952477    11B3g    2.952477    12B2u    3.077041  
      12B3u    3.077041    13B3u    3.136512    13B2u    3.136512  
      22B1u    3.207423     5Au     3.207429    23Ag     3.331832  
       6B1g    3.331840    24Ag     3.350033    25Ag     3.461428  
      12B2g    3.461938    12B3g    3.461938    14B3u    3.529808  
      14B2u    3.529808    13B3g    3.586147    13B2g    3.586147  
      23B1u    3.623211     6Au     3.855022    24B1u    3.855025  
      26Ag     3.926924     7B1g    3.926932    25B1u    4.043632  
      26B1u    4.412498     7Au     4.412498    27Ag     4.429424  
      14B3g    4.490952    14B2g    4.490952    15B2u    4.495983  
      15B3u    4.495983    15B3g    4.777889    15B2g    4.777889  
      27B1u    5.007247    28Ag     5.076261    16B2u    5.531354  
      16B3u    5.531354    28B1u    5.860637    29B1u    6.299552  
      16B3g    6.458514    16B2g    6.458514    29Ag     6.589103  
      30Ag    13.340518    30B1u   18.994136  

    Final Occupation by Irrep:
             Ag   B1g   B2g   B3g    Au   B1u   B2u   B3u 
    DOCC [     3,    0,    0,    0,    0,    2,    1,    1 ]

  @DF-RKS Final Energy:   -77.32336213449410

   => Energetics <=

    Nuclear Repulsion Energy =             24.7305704436070641
    One-Electron Energy =                -151.7879410268396043
    Two-Electron Energy =                  57.7048504333563343
    DFT Exchange-Correlation Energy =      -8.0285486858772028
    Empirical Dispersion Energy =           0.0000000000000000
    VV10 Nonlocal Energy =                  0.0577067012592989
    Total Energy =                        -77.3233621344941042

Computation Completed


Properties will be evaluated at   0.000000,   0.000000,   0.000000 [a0]

Properties computed using the SCF density matrix

  Nuclear Dipole Moment: [e a0]
     X:     0.0000      Y:     0.0000      Z:    -0.0000

  Electronic Dipole Moment: [e a0]
     X:     0.0000      Y:     0.0000      Z:     0.0000

  Dipole Moment: [e a0]
     X:     0.0000      Y:     0.0000      Z:    -0.0000     Total:     0.0000

  Dipole Moment: [D]
     X:     0.0000      Y:     0.0000      Z:    -0.0000     Total:     0.0000


*** tstop() called on bp1-compute00140.data.bp.acrc.priv at Tue Apr 27 17:28:02 2021
Module time:
	user time   =      86.82 seconds =       1.45 minutes
	system time =       2.21 seconds =       0.04 minutes
	total time  =          3 seconds =       0.05 minutes
Total time:
	user time   =     355.99 seconds =       5.93 minutes
	system time =      13.91 seconds =       0.23 minutes
	total time  =         16 seconds =       0.27 minutes

  //>>>>>>>>>>>>>>>>>>>>>>>>>>>>>>>>>>>//
  //    Loading displacement 5 of 5    //
  //<<<<<<<<<<<<<<<<<<<<<<<<<<<<<<<<<<<//

*** tstart() called on bp1-compute00140.data.bp.acrc.priv
*** at Tue Apr 27 17:28:02 2021

   => Loading Basis Set <=

    Name: AUG-CC-PV(T+D)Z
    Role: ORBITAL
    Keyword: BASIS
    atoms 1-2 entry C          line   255 file /work/zw18965/.conda/envs/p4env/share/psi4/basis/aug-cc-pv_tpd_z.gbs 
    atoms 3-4 entry H          line    56 file /work/zw18965/.conda/envs/p4env/share/psi4/basis/aug-cc-pv_tpd_z.gbs 


         ---------------------------------------------------------
                                   SCF
               by Justin Turney, Rob Parrish, Andy Simmonett
                          and Daniel G. A. Smith
                              RKS Reference
                       24 Threads, 137329 MiB Core
         ---------------------------------------------------------

  ==> Geometry <==

    Molecular point group: d2h
    Full point group: D_inf_h

    Geometry (in Angstrom), charge = 0, multiplicity = 1:

       Center              X                  Y                   Z               Mass       
    ------------   -----------------  -----------------  -----------------  -----------------
         C            0.000000000000     0.000000000000    -0.603250000000    12.000000000000
         C            0.000000000000     0.000000000000     0.603250000000    12.000000000000
         H            0.000000000000     0.000000000000     1.668513646632     1.007825032230
         H            0.000000000000     0.000000000000    -1.668513646632     1.007825032230

  Running in d2h symmetry.

  Rotational constants: A = ************  B =      1.17513  C =      1.17513 [cm^-1]
  Rotational constants: A = ************  B =  35229.59320  C =  35229.59320 [MHz]
  Nuclear repulsion =   24.704690992421998

  Charge       = 0
  Multiplicity = 1
  Electrons    = 14
  Nalpha       = 7
  Nbeta        = 7

  ==> Algorithm <==

  SCF Algorithm Type is DF.
  DIIS enabled.
  MOM disabled.
  Fractional occupation disabled.
  Guess Type is SAD.
  Energy threshold   = 1.00e-08
  Density threshold  = 1.00e-08
  Integral threshold = 0.00e+00

  ==> Primary Basis <==

  Basis Set: AUG-CC-PV(T+D)Z
    Blend: AUG-CC-PV(T+D)Z
    Number of shells: 46
    Number of basis function: 138
    Number of Cartesian functions: 160
    Spherical Harmonics?: true
    Max angular momentum: 3

  ==> DFT Potential <==

   => Composite Functional: WB97M-V <= 

    wB97M-V Hyb-GGA Exchange-Correlation Functional

    N. Mardirossian and M. Head-Gordon, J. Chem. Phys. 144, 214110 (2016)

    Deriv               =              1
    GGA                 =           TRUE
    Meta                =           TRUE

    Exchange Hybrid     =           TRUE
    MP2 Hybrid          =          FALSE

   => Exchange-Correlation Functionals <=

    1.0000   wB97M-V exchange-correlation functional

   => Exact (HF) Exchange <=

    0.8500            HF,LR [omega = 0.3000]
    0.1500               HF 

   => VV10 Non-Local Parameters <=

    VV10 B              =     6.0000E+00
    VV10 C              =     1.0000E-02

   => Molecular Quadrature <=

    Radial Scheme          =       TREUTLER
    Pruning Scheme         =           FLAT
    Nuclear Scheme         =       TREUTLER

    BS radius alpha        =              1
    Pruning alpha          =              1
    Radial Points          =             75
    Spherical Points       =            302
    Total Points           =          90600
    Total Blocks           =            744
    Max Points             =            256
    Max Functions          =            138

   => Loading Basis Set <=

    Name: (AUG-CC-PV(T+D)Z AUX)
    Role: JKFIT
    Keyword: DF_BASIS_SCF
    atoms 1-2 entry C          line   162 file /work/zw18965/.conda/envs/p4env/share/psi4/basis/aug-cc-pvtz-jkfit.gbs 
    atoms 3-4 entry H          line    70 file /work/zw18965/.conda/envs/p4env/share/psi4/basis/aug-cc-pvtz-jkfit.gbs 

  ==> Pre-Iterations <==

   -------------------------------------------------------
    Irrep   Nso     Nmo     Nalpha   Nbeta   Ndocc  Nsocc
   -------------------------------------------------------
     Ag        30      30       0       0       0       0
     B1g        7       7       0       0       0       0
     B2g       16      16       0       0       0       0
     B3g       16      16       0       0       0       0
     Au         7       7       0       0       0       0
     B1u       30      30       0       0       0       0
     B2u       16      16       0       0       0       0
     B3u       16      16       0       0       0       0
   -------------------------------------------------------
    Total     138     138       7       7       7       0
   -------------------------------------------------------

  ==> Integral Setup <==

  ==> DiskDFJK: Density-Fitted J/K Matrices <==

    J tasked:                  Yes
    K tasked:                  Yes
    wK tasked:                 Yes
    Omega:               3.000E-01
    OpenMP threads:             24
    Integrals threads:          24
    Memory [MiB]:           102131
    Algorithm:                Core
    Integral Cache:           NONE
    Schwarz Cutoff:          1E-12
    Fitting Condition:       1E-10

   => Auxiliary Basis Set <=

  Basis Set: (AUG-CC-PV(T+D)Z AUX)
    Blend: AUG-CC-PVTZ-JKFIT
    Number of shells: 88
    Number of basis function: 300
    Number of Cartesian functions: 372
    Spherical Harmonics?: true
    Max angular momentum: 4

  Cached 100.0% of DFT collocation blocks in 0.845 [GiB].

  Minimum eigenvalue in the overlap matrix is 8.5698261432E-06.
  Using Symmetric Orthogonalization.

  SCF Guess: Superposition of Atomic Densities via on-the-fly atomic UHF.

  ==> Iterations <==

                           Total Energy        Delta E     RMS |[F,P]|

   @DF-RKS iter SAD:   -76.46140520339334   -7.64614e+01   0.00000e+00 
   @DF-RKS iter   1:   -77.22008648523260   -7.58681e-01   8.69185e-03 DIIS
   @DF-RKS iter   2:   -77.28522461451557   -6.51381e-02   5.18897e-03 DIIS
   @DF-RKS iter   3:   -77.32327537508357   -3.80508e-02   1.78404e-04 DIIS
   @DF-RKS iter   4:   -77.32334339882739   -6.80237e-05   1.65632e-05 DIIS
   @DF-RKS iter   5:   -77.32334439117410   -9.92347e-07   1.89871e-06 DIIS
   @DF-RKS iter   6:   -77.32334440510267   -1.39286e-08   2.82130e-07 DIIS
   @DF-RKS iter   7:   -77.32334440533329   -2.30614e-10   4.12533e-08 DIIS
   @DF-RKS iter   8:   -77.32334440533988   -6.59384e-12   6.76916e-09 DIIS
  Energy and wave function converged.


  ==> Post-Iterations <==

    Orbital Energies [Eh]
    ---------------------

    Doubly Occupied:                                                      

       1Ag   -10.355359     1B1u  -10.353025     2Ag    -0.876702  
       2B1u   -0.679108     3Ag    -0.603207     1B3u   -0.394343  
       1B2u   -0.394343  

    Virtual:                                                              

       4Ag     0.017119     3B1u    0.023915     1B2g    0.066963  
       1B3g    0.066963     2B2u    0.071249     2B3u    0.071249  
       5Ag     0.084881     4B1u    0.095096     6Ag     0.124271  
       2B3g    0.139719     2B2g    0.139719     5B1u    0.192564  
       6B1u    0.230696     7Ag     0.241411     3B2u    0.244869  
       3B3u    0.244869     1B1g    0.263722     8Ag     0.263723  
       3B3g    0.342097     3B2g    0.342097     9Ag     0.344108  
       1Au     0.359327     7B1u    0.359328     8B1u    0.361778  
      10Ag     0.374482     4B2g    0.376588     4B3g    0.376588  
       4B2u    0.433305     4B3u    0.433305     9B1u    0.476105  
      10B1u    0.533812     5B3u    0.548390     5B2u    0.548390  
      11Ag     0.569546     5B2g    0.759147     5B3g    0.759147  
       2B1g    0.816813    12Ag     0.816813    13Ag     0.817263  
      11B1u    0.817921     6B3u    0.857075     6B2u    0.857075  
      14Ag     0.886338     3B1g    0.916252    15Ag     0.916252  
      12B1u    0.948196     2Au     0.948197     6B2g    0.950702  
       6B3g    0.950702    13B1u    0.955562     7B3u    0.961080  
       7B2u    0.961080    16Ag     1.055584     8B2u    1.082834  
       8B3u    1.082834    14B1u    1.098081     3Au     1.098084  
      15B1u    1.112608     7B2g    1.199316     7B3g    1.199316  
      16B1u    1.209391     8B2g    1.291906     8B3g    1.291906  
       9B3u    1.426427     9B2u    1.426427    17Ag     1.518559  
       4B1g    1.518567     9B2g    1.620040     9B3g    1.620040  
      18Ag     1.651467    10B3u    1.765137    10B2u    1.765137  
      17B1u    1.790248    19Ag     1.853999     4Au     1.886874  
      18B1u    1.886886    19B1u    1.985787    20Ag     2.018389  
      10B2g    2.196984    10B3g    2.196984    11B3u    2.577114  
      11B2u    2.577114    20B1u    2.607437    21Ag     2.757038  
      21B1u    2.844639     5B1g    2.929573    22Ag     2.929576  
      11B2g    2.952135    11B3g    2.952135    12B2u    3.076892  
      12B3u    3.076892    13B3u    3.136541    13B2u    3.136541  
      22B1u    3.208352     5Au     3.208357    23Ag     3.332026  
       6B1g    3.332034    24Ag     3.345666    25Ag     3.460920  
      12B2g    3.461966    12B3g    3.461966    14B3u    3.525890  
      14B2u    3.525890    13B2g    3.585467    13B3g    3.585467  
      23B1u    3.616267     6Au     3.853069    24B1u    3.853072  
      26Ag     3.923123     7B1g    3.923130    25B1u    4.041329  
      26B1u    4.407387     7Au     4.407387    27Ag     4.422496  
      14B2g    4.485982    14B3g    4.485982    15B3u    4.493505  
      15B2u    4.493505    15B2g    4.769757    15B3g    4.769757  
      27B1u    4.998059    28Ag     5.065325    16B3u    5.516974  
      16B2u    5.516974    28B1u    5.845548    29B1u    6.297319  
      16B2g    6.446026    16B3g    6.446026    29Ag     6.576243  
      30Ag    13.239257    30B1u   18.977319  

    Final Occupation by Irrep:
             Ag   B1g   B2g   B3g    Au   B1u   B2u   B3u 
    DOCC [     3,    0,    0,    0,    0,    2,    1,    1 ]

  @DF-RKS Final Energy:   -77.32334440533988

   => Energetics <=

    Nuclear Repulsion Energy =             24.7046909924219982
    One-Electron Energy =                -151.7411618545464478
    Two-Electron Energy =                  57.6817107784035912
    DFT Exchange-Correlation Energy =      -8.0262871181951638
    Empirical Dispersion Energy =           0.0000000000000000
    VV10 Nonlocal Energy =                  0.0577027965761334
    Total Energy =                        -77.3233444053398955

Computation Completed


Properties will be evaluated at   0.000000,   0.000000,   0.000000 [a0]

Properties computed using the SCF density matrix

  Nuclear Dipole Moment: [e a0]
     X:     0.0000      Y:     0.0000      Z:    -0.0000

  Electronic Dipole Moment: [e a0]
     X:     0.0000      Y:     0.0000      Z:     0.0000

  Dipole Moment: [e a0]
     X:     0.0000      Y:     0.0000      Z:    -0.0000     Total:     0.0000

  Dipole Moment: [D]
     X:     0.0000      Y:     0.0000      Z:    -0.0000     Total:     0.0000


*** tstop() called on bp1-compute00140.data.bp.acrc.priv at Tue Apr 27 17:28:06 2021
Module time:
	user time   =      87.56 seconds =       1.46 minutes
	system time =       3.03 seconds =       0.05 minutes
	total time  =          4 seconds =       0.07 minutes
Total time:
	user time   =     443.69 seconds =       7.39 minutes
	system time =      16.94 seconds =       0.28 minutes
	total time  =         20 seconds =       0.33 minutes

         ----------------------------------------------------------
                                   FINDIF
                     R. A. King and Jonathon Misiewicz
         ---------------------------------------------------------

  Computing gradient from energies.
    Using 3-point formula.
    Energy without displacement:  -77.3233583575
    Check energies below for precision!
    Forces are for mass-weighted, symmetry-adapted cartesians (in au).

     Coord      Energy(-1)        Energy(+1)            Force
        0    -77.3233093620    -77.3234023161     -0.0092954126
        1    -77.3233621345    -77.3233444053      0.0017729154


-------------------------------------------------------------
  ## New Matrix (Symmetry 0) ##
  Irrep: 1 Size: 4 x 3

                 1                   2                   3

    1     0.00000000000000     0.00000000000000    -0.02276901792045
    2     0.00000000000000     0.00000000000000     0.02276901792045
    3     0.00000000000000     0.00000000000000     0.00125853584843
    4     0.00000000000000     0.00000000000000    -0.00125853584843




			-----------------------------------------
			 OPTKING 2.0: for geometry optimizations 
			  - R.A. King,  Bethel University        
			-----------------------------------------
	At level 1: Red. Int., RFO, no backsteps, dynamic trust

	Internal coordinates to be generated automatically.
	Detected frag 1 with atoms:  1 2 3 4
	---Fragment 1 Bond Connectivity---
	 1 : 2 4
	 2 : 1 3
	 3 : 2
	 4 : 1

	---Fragment 1 Geometry and Gradient---
	 C           0.0000000000        0.0000000000       -1.1399772852
	 C           0.0000000000        0.0000000000        1.1399772852
	 H           0.0000000000        0.0000000000        3.1495120470
	 H           0.0000000000        0.0000000000       -3.1495120470
	             0.0000000000        0.0000000000       -0.0227690179
	             0.0000000000        0.0000000000        0.0227690179
	             0.0000000000        0.0000000000        0.0012585358
	             0.0000000000        0.0000000000       -0.0012585358

	Previous optimization step data not found.  Starting new optimization.

	---Fragment 1 Intrafragment Coordinates---
	 - Coordinate -           - BOHR/RAD -       - ANG/DEG -
	 R(1,2)           =         2.279955	       1.206500
	 R(1,4)           =         2.009535	       1.063400
	 R(2,3)           =         2.009535	       1.063400
	 L(1,2,3)         =         3.141593	     180.000000
	 l(1,2,3)         =         3.141593	     180.000000
	 L(2,1,4)         =         3.141593	     180.000000
	 l(2,1,4)         =         3.141593	     180.000000

	Current energy   :       -77.3233583575

	Generating empirical Hessian (Schlegel '84) for each fragment.
	Taking RFO optimization step.
	Going to follow RFO solution 1.
	Using RFO vector 1.
	Norm of target step-size    0.02409
	Projected energy change by RFO approximation:        -0.0005757503

	Back-transformation to cartesian coordinates...
	Successfully converged to displaced geometry.

	--- Internal Coordinate Step in ANG or DEG, aJ/ANG or AJ/DEG ---
	 ---------------------------------------------------------------------------
	   Coordinate                Previous        Force       Change         New 
	   ----------                --------       ------       ------       ------
	    1 R(1,2)          =      1.206500    -0.197956    -0.012505     1.193995
	    2 R(1,4)          =      1.063400    -0.010369    -0.001746     1.061654
	    3 R(2,3)          =      1.063400    -0.010369    -0.001746     1.061654
	    4 L(1,2,3)        =    180.000000     0.000000     0.000000   180.000000
	    5 l(1,2,3)        =    180.000000     0.000000     0.000000   180.000000
	    6 L(2,1,4)        =    180.000000     0.000000     0.000000   180.000000
	    7 l(2,1,4)        =    180.000000     0.000000     0.000000   180.000000
	 ---------------------------------------------------------------------------
	Successfully symmetrized geometry.

  ==> Convergence Check <==

  Measures of convergence in internal coordinates in au.
  Criteria marked as inactive (o), active & met (*), and active & unmet ( ).
  --------------------------------------------------------------------------------------------- ~
   Step     Total Energy     Delta E     MAX Force     RMS Force      MAX Disp      RMS Disp    ~
  --------------------------------------------------------------------------------------------- ~
    Convergence Criteria    1.00e-06 *    3.00e-04 *             o    1.20e-03 *             o  ~
  --------------------------------------------------------------------------------------------- ~
      1     -77.32335836   -7.73e+01      2.40e-02      9.11e-03 o    2.36e-02      9.10e-03 o  ~
  ---------------------------------------------------------------------------------------------

	Writing optimization data to binary file.
	Structure for next step:
	Cartesian Geometry (in Angstrom)
	    C     0.0000000000  -0.0000000000  -0.5969976998
	    C    -0.0000000000   0.0000000000   0.5969976998
	    H     0.0000000000   0.0000000000   1.6586512744
	    H     0.0000000000   0.0000000000  -1.6586512744
			--------------------------
			 OPTKING Finished Execution 
			--------------------------

    Structure for next step:
    Molecular point group: d2h
    Full point group: D_inf_h

    Geometry (in Angstrom), charge = 0, multiplicity = 1:

    C           -0.000000000000     0.000000000000    -0.596997702098
    C            0.000000000000     0.000000000000     0.596997702098
    H            0.000000000000    -0.000000000000     1.658651280893
    H            0.000000000000    -0.000000000000    -1.658651280893

gradient() will perform gradient computation by finite difference of analytic energies.

         ----------------------------------------------------------
                                   FINDIF
                     R. A. King and Jonathon Misiewicz
         ---------------------------------------------------------

  Using finite-differences of energies to determine gradients.
    Generating geometries for use with 3-point formula.
    Displacement size will be 5.00e-03.
    Number of atoms is 4.
    Number of symmetric SALCs is 2.
    Translations projected? 1. Rotations projected? 1.
    Number of geometries (including reference) is 5.

  //>>>>>>>>>>>>>>>>>>>>>>>>>>>>>>>>>>>//
  //    Loading displacement 1 of 5    //
  //<<<<<<<<<<<<<<<<<<<<<<<<<<<<<<<<<<<//

*** tstart() called on bp1-compute00140.data.bp.acrc.priv
*** at Tue Apr 27 17:28:06 2021

   => Loading Basis Set <=

    Name: AUG-CC-PV(T+D)Z
    Role: ORBITAL
    Keyword: BASIS
    atoms 1-2 entry C          line   255 file /work/zw18965/.conda/envs/p4env/share/psi4/basis/aug-cc-pv_tpd_z.gbs 
    atoms 3-4 entry H          line    56 file /work/zw18965/.conda/envs/p4env/share/psi4/basis/aug-cc-pv_tpd_z.gbs 


         ---------------------------------------------------------
                                   SCF
               by Justin Turney, Rob Parrish, Andy Simmonett
                          and Daniel G. A. Smith
                              RKS Reference
                       24 Threads, 137329 MiB Core
         ---------------------------------------------------------

  ==> Geometry <==

    Molecular point group: d2h
    Full point group: D_inf_h

    Geometry (in Angstrom), charge = 0, multiplicity = 1:

       Center              X                  Y                   Z               Mass       
    ------------   -----------------  -----------------  -----------------  -----------------
         C            0.000000000000     0.000000000000    -0.596997702098    12.000000000000
         C           -0.000000000000     0.000000000000     0.596997702098    12.000000000000
         H           -0.000000000000     0.000000000000     1.658651280893     1.007825032230
         H           -0.000000000000     0.000000000000    -1.658651280893     1.007825032230

  Running in d2h symmetry.

  Rotational constants: A = ************  B =      1.19566  C =      1.19566 [cm^-1]
  Rotational constants: A = ************  B =  35844.88892  C =  35844.88892 [MHz]
  Nuclear repulsion =   24.911238558583282

  Charge       = 0
  Multiplicity = 1
  Electrons    = 14
  Nalpha       = 7
  Nbeta        = 7

  ==> Algorithm <==

  SCF Algorithm Type is DF.
  DIIS enabled.
  MOM disabled.
  Fractional occupation disabled.
  Guess Type is READ.
  Energy threshold   = 1.00e-08
  Density threshold  = 1.00e-08
  Integral threshold = 0.00e+00

  ==> Primary Basis <==

  Basis Set: AUG-CC-PV(T+D)Z
    Blend: AUG-CC-PV(T+D)Z
    Number of shells: 46
    Number of basis function: 138
    Number of Cartesian functions: 160
    Spherical Harmonics?: true
    Max angular momentum: 3

  ==> DFT Potential <==

   => Composite Functional: WB97M-V <= 

    wB97M-V Hyb-GGA Exchange-Correlation Functional

    N. Mardirossian and M. Head-Gordon, J. Chem. Phys. 144, 214110 (2016)

    Deriv               =              1
    GGA                 =           TRUE
    Meta                =           TRUE

    Exchange Hybrid     =           TRUE
    MP2 Hybrid          =          FALSE

   => Exchange-Correlation Functionals <=

    1.0000   wB97M-V exchange-correlation functional

   => Exact (HF) Exchange <=

    0.8500            HF,LR [omega = 0.3000]
    0.1500               HF 

   => VV10 Non-Local Parameters <=

    VV10 B              =     6.0000E+00
    VV10 C              =     1.0000E-02

   => Molecular Quadrature <=

    Radial Scheme          =       TREUTLER
    Pruning Scheme         =           FLAT
    Nuclear Scheme         =       TREUTLER

    BS radius alpha        =              1
    Pruning alpha          =              1
    Radial Points          =             75
    Spherical Points       =            302
    Total Points           =          90600
    Total Blocks           =            744
    Max Points             =            256
    Max Functions          =            138

   => Loading Basis Set <=

    Name: (AUG-CC-PV(T+D)Z AUX)
    Role: JKFIT
    Keyword: DF_BASIS_SCF
    atoms 1-2 entry C          line   162 file /work/zw18965/.conda/envs/p4env/share/psi4/basis/aug-cc-pvtz-jkfit.gbs 
    atoms 3-4 entry H          line    70 file /work/zw18965/.conda/envs/p4env/share/psi4/basis/aug-cc-pvtz-jkfit.gbs 

   => Loading Basis Set <=

    Name: AUG-CC-PV(T+D)Z
    Role: ORBITAL
    Keyword: BASIS
    atoms 1-2 entry C          line   255 file /work/zw18965/.conda/envs/p4env/share/psi4/basis/aug-cc-pv_tpd_z.gbs 
    atoms 3-4 entry H          line    56 file /work/zw18965/.conda/envs/p4env/share/psi4/basis/aug-cc-pv_tpd_z.gbs 

  Reading orbitals from file 180, no projection.

  ==> Pre-Iterations <==

   -------------------------------------------------------
    Irrep   Nso     Nmo     Nalpha   Nbeta   Ndocc  Nsocc
   -------------------------------------------------------
     Ag        30      30       0       0       0       0
     B1g        7       7       0       0       0       0
     B2g       16      16       0       0       0       0
     B3g       16      16       0       0       0       0
     Au         7       7       0       0       0       0
     B1u       30      30       0       0       0       0
     B2u       16      16       0       0       0       0
     B3u       16      16       0       0       0       0
   -------------------------------------------------------
    Total     138     138       7       7       7       0
   -------------------------------------------------------

  ==> Integral Setup <==

  ==> DiskDFJK: Density-Fitted J/K Matrices <==

    J tasked:                  Yes
    K tasked:                  Yes
    wK tasked:                 Yes
    Omega:               3.000E-01
    OpenMP threads:             24
    Integrals threads:          24
    Memory [MiB]:           102130
    Algorithm:                Core
    Integral Cache:           NONE
    Schwarz Cutoff:          1E-12
    Fitting Condition:       1E-10

   => Auxiliary Basis Set <=

  Basis Set: (AUG-CC-PV(T+D)Z AUX)
    Blend: AUG-CC-PVTZ-JKFIT
    Number of shells: 88
    Number of basis function: 300
    Number of Cartesian functions: 372
    Spherical Harmonics?: true
    Max angular momentum: 4

  Cached 100.0% of DFT collocation blocks in 0.846 [GiB].

  Minimum eigenvalue in the overlap matrix is 8.2643390327E-06.
  Using Symmetric Orthogonalization.

  SCF Guess: Orbitals guess was supplied from a previous computation.

  ==> Iterations <==

                           Total Energy        Delta E     RMS |[F,P]|

   @DF-RKS iter   0:   -77.29967494609696   -7.72997e+01   1.09694e-03 
   @DF-RKS iter   1:   -77.32361789154670   -2.39429e-02   7.93696e-05 DIIS
   @DF-RKS iter   2:   -77.32362509255726   -7.20101e-06   1.45611e-05 DIIS
   @DF-RKS iter   3:   -77.32362527820594   -1.85649e-07   2.46799e-06 DIIS
   @DF-RKS iter   4:   -77.32362528746737   -9.26143e-09   1.13056e-06 DIIS
   @DF-RKS iter   5:   -77.32362528958402   -2.11665e-09   1.33260e-07 DIIS
   @DF-RKS iter   6:   -77.32362528964359   -5.95719e-11   1.47351e-08 DIIS
   @DF-RKS iter   7:   -77.32362528964467   -1.08002e-12   1.56361e-09 DIIS
  Energy and wave function converged.


  ==> Post-Iterations <==

    Orbital Energies [Eh]
    ---------------------

    Doubly Occupied:                                                      

       1Ag   -10.351410     1B1u  -10.348828     2Ag    -0.879151  
       2B1u   -0.678488     3Ag    -0.604237     1B3u   -0.396370  
       1B2u   -0.396370  

    Virtual:                                                              

       4Ag     0.017207     3B1u    0.024095     1B3g    0.067957  
       1B2g    0.067957     2B3u    0.071006     2B2u    0.071006  
       5Ag     0.084949     4B1u    0.095368     6Ag     0.124374  
       2B3g    0.142122     2B2g    0.142122     5B1u    0.194193  
       6B1u    0.231579     7Ag     0.241685     3B3u    0.245325  
       3B2u    0.245325     1B1g    0.263888     8Ag     0.263890  
       3B3g    0.343254     3B2g    0.343254     9Ag     0.344962  
       1Au     0.359429     7B1u    0.359429     8B1u    0.364478  
      10Ag     0.374786     4B2g    0.377486     4B3g    0.377486  
       4B2u    0.431304     4B3u    0.431304     9B1u    0.476690  
      10B1u    0.535595     5B3u    0.550107     5B2u    0.550107  
      11Ag     0.568163     5B2g    0.760700     5B3g    0.760700  
       2B1g    0.816927    12Ag     0.816928    11B1u    0.820612  
      13Ag     0.821842     6B3u    0.858266     6B2u    0.858266  
      14Ag     0.884829     3B1g    0.917933    15Ag     0.917933  
      12B1u    0.949510     2Au     0.949510     6B2g    0.951968  
       6B3g    0.951968    13B1u    0.955912     7B2u    0.961699  
       7B3u    0.961699    16Ag     1.056948     8B3u    1.086394  
       8B2u    1.086394    14B1u    1.098702     3Au     1.098705  
      15B1u    1.116594     7B3g    1.201152     7B2g    1.201152  
      16B1u    1.223048     8B3g    1.298696     8B2g    1.298696  
       9B3u    1.417258     9B2u    1.417258    17Ag     1.523709  
       4B1g    1.523716     9B2g    1.621214     9B3g    1.621214  
      18Ag     1.657037    10B3u    1.773577    10B2u    1.773577  
      17B1u    1.791270    19Ag     1.846740     4Au     1.892542  
      18B1u    1.892554    19B1u    1.998293    20Ag     2.017638  
      10B2g    2.201400    10B3g    2.201400    11B2u    2.579351  
      11B3u    2.579351    20B1u    2.615183    21Ag     2.759386  
      21B1u    2.838449     5B1g    2.926845    22Ag     2.926849  
      11B2g    2.959144    11B3g    2.959144    12B3u    3.084215  
      12B2u    3.084215    13B2u    3.133886    13B3u    3.133886  
      22B1u    3.208582     5Au     3.208588    23Ag     3.337450  
       6B1g    3.337458    24Ag     3.365981    25Ag     3.465732  
      12B2g    3.468475    12B3g    3.468475    14B3u    3.543565  
      14B2u    3.543565    13B2g    3.588013    13B3g    3.588013  
      23B1u    3.629837     6Au     3.865244    24B1u    3.865247  
      26Ag     3.931411     7B1g    3.931419    25B1u    4.047994  
      26B1u    4.426575     7Au     4.426575    27Ag     4.452479  
      15B2u    4.493776    15B3u    4.493776    14B2g    4.505688  
      14B3g    4.505688    15B3g    4.789589    15B2g    4.789589  
      27B1u    5.007067    28Ag     5.082264    16B2u    5.554238  
      16B3u    5.554238    28B1u    5.870416    29B1u    6.313649  
      16B2g    6.474077    16B3g    6.474077    29Ag     6.638699  
      30Ag    13.374842    30B1u   19.364553  

    Final Occupation by Irrep:
             Ag   B1g   B2g   B3g    Au   B1u   B2u   B3u 
    DOCC [     3,    0,    0,    0,    0,    2,    1,    1 ]

  @DF-RKS Final Energy:   -77.32362528964467

   => Energetics <=

    Nuclear Repulsion Energy =             24.9112385585832818
    One-Electron Energy =                -152.1502051268615219
    Two-Electron Energy =                  57.8959838301068004
    DFT Exchange-Correlation Energy =      -8.0383575783335175
    Empirical Dispersion Energy =           0.0000000000000000
    VV10 Nonlocal Energy =                  0.0577150268602974
    Total Energy =                        -77.3236252896446672

Computation Completed


Properties will be evaluated at   0.000000,   0.000000,   0.000000 [a0]

Properties computed using the SCF density matrix

  Nuclear Dipole Moment: [e a0]
     X:     0.0000      Y:     0.0000      Z:    -0.0000

  Electronic Dipole Moment: [e a0]
     X:     0.0000      Y:     0.0000      Z:     0.0000

  Dipole Moment: [e a0]
     X:     0.0000      Y:     0.0000      Z:    -0.0000     Total:     0.0000

  Dipole Moment: [D]
     X:     0.0000      Y:     0.0000      Z:    -0.0000     Total:     0.0000


*** tstop() called on bp1-compute00140.data.bp.acrc.priv at Tue Apr 27 17:28:09 2021
Module time:
	user time   =      71.61 seconds =       1.19 minutes
	system time =       1.71 seconds =       0.03 minutes
	total time  =          3 seconds =       0.05 minutes
Total time:
	user time   =     515.70 seconds =       8.59 minutes
	system time =      18.68 seconds =       0.31 minutes
	total time  =         23 seconds =       0.38 minutes

  //>>>>>>>>>>>>>>>>>>>>>>>>>>>>>>>>>>>//
  //    Loading displacement 2 of 5    //
  //<<<<<<<<<<<<<<<<<<<<<<<<<<<<<<<<<<<//

*** tstart() called on bp1-compute00140.data.bp.acrc.priv
*** at Tue Apr 27 17:28:09 2021

   => Loading Basis Set <=

    Name: AUG-CC-PV(T+D)Z
    Role: ORBITAL
    Keyword: BASIS
    atoms 1-2 entry C          line   255 file /work/zw18965/.conda/envs/p4env/share/psi4/basis/aug-cc-pv_tpd_z.gbs 
    atoms 3-4 entry H          line    56 file /work/zw18965/.conda/envs/p4env/share/psi4/basis/aug-cc-pv_tpd_z.gbs 


         ---------------------------------------------------------
                                   SCF
               by Justin Turney, Rob Parrish, Andy Simmonett
                          and Daniel G. A. Smith
                              RKS Reference
                       24 Threads, 137329 MiB Core
         ---------------------------------------------------------

  ==> Geometry <==

    Molecular point group: d2h
    Full point group: D_inf_h

    Geometry (in Angstrom), charge = 0, multiplicity = 1:

[...]
         H            0.001789995126     0.000000000000    -1.659068807778     1.007825032230

  Running in c2v symmetry.

  Rotational constants: A = 2407987.46702  B =      1.19415  C =      1.19415 [cm^-1]
  Rotational constants: A = 72189648157.17369  B =  35799.66833  C =  35799.65058 [MHz]
  Nuclear repulsion =   24.896624723014703

  Charge       = 0
  Multiplicity = 1
  Electrons    = 14
  Nalpha       = 7
  Nbeta        = 7

  ==> Algorithm <==

  SCF Algorithm Type is DF.
  DIIS enabled.
  MOM disabled.
  Fractional occupation disabled.
  Guess Type is SAD.
  Energy threshold   = 1.00e-10
  Density threshold  = 1.00e-10
  Integral threshold = 0.00e+00

  ==> Primary Basis <==

  Basis Set: AUG-CC-PV(T+D)Z
    Blend: AUG-CC-PV(T+D)Z
    Number of shells: 46
    Number of basis function: 138
    Number of Cartesian functions: 160
    Spherical Harmonics?: true
    Max angular momentum: 3

  ==> DFT Potential <==

   => Composite Functional: WB97M-V <= 

    wB97M-V Hyb-GGA Exchange-Correlation Functional

    N. Mardirossian and M. Head-Gordon, J. Chem. Phys. 144, 214110 (2016)

    Deriv               =              1
    GGA                 =           TRUE
    Meta                =           TRUE

    Exchange Hybrid     =           TRUE
    MP2 Hybrid          =          FALSE

   => Exchange-Correlation Functionals <=

    1.0000   wB97M-V exchange-correlation functional

   => Exact (HF) Exchange <=

    0.8500            HF,LR [omega = 0.3000]
    0.1500               HF 

   => VV10 Non-Local Parameters <=

    VV10 B              =     6.0000E+00
    VV10 C              =     1.0000E-02

   => Molecular Quadrature <=

    Radial Scheme          =       TREUTLER
    Pruning Scheme         =           FLAT
    Nuclear Scheme         =       TREUTLER

    BS radius alpha        =              1
    Pruning alpha          =              1
    Radial Points          =             75
    Spherical Points       =            302
    Total Points           =          90600
    Total Blocks           =            722
    Max Points             =            256
    Max Functions          =            138

   => Loading Basis Set <=

    Name: (AUG-CC-PV(T+D)Z AUX)
    Role: JKFIT
    Keyword: DF_BASIS_SCF
    atoms 1-2 entry C          line   162 file /work/zw18965/.conda/envs/p4env/share/psi4/basis/aug-cc-pvtz-jkfit.gbs 
    atoms 3-4 entry H          line    70 file /work/zw18965/.conda/envs/p4env/share/psi4/basis/aug-cc-pvtz-jkfit.gbs 

  ==> Pre-Iterations <==

   -------------------------------------------------------
    Irrep   Nso     Nmo     Nalpha   Nbeta   Ndocc  Nsocc
   -------------------------------------------------------
     A1        46      46       0       0       0       0
     A2        23      23       0       0       0       0
     B1        23      23       0       0       0       0
     B2        46      46       0       0       0       0
   -------------------------------------------------------
    Total     138     138       7       7       7       0
   -------------------------------------------------------

  ==> Integral Setup <==

  ==> DiskDFJK: Density-Fitted J/K Matrices <==

    J tasked:                  Yes
    K tasked:                  Yes
    wK tasked:                 Yes
    Omega:               3.000E-01
    OpenMP threads:             24
    Integrals threads:          24
    Memory [MiB]:           102129
    Algorithm:                Core
    Integral Cache:           NONE
    Schwarz Cutoff:          1E-12
    Fitting Condition:       1E-10

   => Auxiliary Basis Set <=

  Basis Set: (AUG-CC-PV(T+D)Z AUX)
    Blend: AUG-CC-PVTZ-JKFIT
    Number of shells: 88
    Number of basis function: 300
    Number of Cartesian functions: 372
    Spherical Harmonics?: true
    Max angular momentum: 4

  Cached 100.0% of DFT collocation blocks in 0.847 [GiB].

  Minimum eigenvalue in the overlap matrix is 8.2885672892E-06.
  Using Symmetric Orthogonalization.

  SCF Guess: Superposition of Atomic Densities via on-the-fly atomic UHF.

  ==> Iterations <==

                           Total Energy        Delta E     RMS |[F,P]|

   @DF-RKS iter SAD:   -76.47366149794523   -7.64737e+01   0.00000e+00 
   @DF-RKS iter   1:   -77.21628893717028   -7.42627e-01   6.61501e-03 DIIS
   @DF-RKS iter   2:   -77.28368962706290   -6.74007e-02   3.95746e-03 DIIS
   @DF-RKS iter   3:   -77.32355502068935   -3.98654e-02   1.37502e-04 DIIS
   @DF-RKS iter   4:   -77.32362619585230   -7.11752e-05   1.23099e-05 DIIS
   @DF-RKS iter   5:   -77.32362719739717   -1.00154e-06   1.42878e-06 DIIS
   @DF-RKS iter   6:   -77.32362721126313   -1.38660e-08   1.96047e-07 DIIS
   @DF-RKS iter   7:   -77.32362721145331   -1.90184e-10   2.74371e-08 DIIS
   @DF-RKS iter   8:   -77.32362721145813   -4.81748e-12   5.09799e-09 DIIS
   @DF-RKS iter   9:   -77.32362721145829   -1.56319e-13   8.40394e-10 DIIS
   @DF-RKS iter  10:   -77.32362721145826    2.84217e-14   1.53413e-10 DIIS
   @DF-RKS iter  11:   -77.32362721145826    0.00000e+00   2.00535e-11 DIIS
  Energy and wave function converged.


  ==> Post-Iterations <==

    Orbital Energies [Eh]
    ---------------------

    Doubly Occupied:                                                      

       1A1   -10.351710     1B2   -10.349149     2A1    -0.878966  
       2B2    -0.678666     3A1    -0.604257     1B1    -0.396205  
       4A1    -0.396205  

    Virtual:                                                              

       5A1     0.017198     3B2     0.024084     4B2     0.067876  
       1A2     0.067876     6A1     0.071021     2B1     0.071021  
       7A1     0.084949     5B2     0.095359     8A1     0.124355  
       6B2     0.141910     2A2     0.141911     7B2     0.194108  
       8B2     0.231536     9A1     0.241709     3B1     0.245307  
      10A1     0.245314     4B1     0.263869    11A1     0.263870  
       9B2     0.343162     3A2     0.343163    12A1     0.344899  
       4A2     0.359417    10B2     0.359417    11B2     0.364337  
      13A1     0.374767     5A2     0.377419    12B2     0.377419  
       5B1     0.431410    14A1     0.431412    13B2     0.476585  
      14B2     0.535482    15A1     0.550056     6B1     0.550063  
      16A1     0.568284    15B2     0.760594     6A2     0.760594  
       7B1     0.816900    17A1     0.816900    16B2     0.820286  
      18A1     0.821569     8B1     0.858216    19A1     0.858217  
      20A1     0.884785     9B1     0.917860    21A1     0.917861  
      17B2     0.949409     7A2     0.949410    18B2     0.951803  
       8A2     0.951864    19B2     0.955978    22A1     0.961641  
      10B1     0.961641    23A1     1.056926    11B1     1.086168  
      24A1     1.086173    20B2     1.098736     9A2     1.098739  
      21B2     1.116339    22B2     1.200998    10A2     1.200998  
      23B2     1.222066    11A2     1.298367    24B2     1.298380  
      12B1     1.417919    25A1     1.417920    26A1     1.523411  
      13B1     1.523418    25B2     1.621116    12A2     1.621116  
      27A1     1.656426    14B1     1.773061    28A1     1.773064  
      26B2     1.791211    29A1     1.847125    13A2     1.892175  
      27B2     1.892187    28B2     1.997404    30A1     2.017310  
      14A2     2.201268    29B2     2.201269    31A1     2.579345  
      15B1     2.579346    30B2     2.614718    32A1     2.759423  
      31B2     2.838044    16B1     2.927067    33A1     2.927071  
      15A2     2.958594    32B2     2.958621    34A1     3.083614  
      17B1     3.083615    18B1     3.134104    35A1     3.134104  
      33B2     3.208460    16A2     3.208466    36A1     3.336970  
      19B1     3.336978    37A1     3.364764    38A1     3.465377  
      17A2     3.467924    34B2     3.467924    20B1     3.542502  
      39A1     3.542514    35B2     3.587874    18A2     3.587874  
      36B2     3.629442    19A2     3.864435    37B2     3.864438  
      40A1     3.931127    21B1     3.931134    38B2     4.047692  
      39B2     4.425502    20A2     4.425503    41A1     4.450707  
      22B1     4.494022    42A1     4.494041    21A2     4.504604  
      40B2     4.504610    41B2     4.788814    22A2     4.788815  
      42B2     5.007260    43A1     5.082029    23B1     5.552671  
      44A1     5.552675    43B2     5.869892    44B2     6.312364  
      23A2     6.473118    45B2     6.473165    45A1     6.634805  
      46A1    13.374464    46B2    19.334071  

    Final Occupation by Irrep:
             A1    A2    B1    B2 
    DOCC [     4,    0,    1,    2 ]

  @DF-RKS Final Energy:   -77.32362721145826

   => Energetics <=

    Nuclear Repulsion Energy =             24.8966247230147033
    One-Electron Energy =                -152.1208210288526743
    Two-Electron Energy =                  57.8804391871163375
    DFT Exchange-Correlation Energy =      -8.0375845077342518
    Empirical Dispersion Energy =           0.0000000000000000
    VV10 Nonlocal Energy =                  0.0577144149976333
    Total Energy =                        -77.3236272114582590

Computation Completed


Properties will be evaluated at   0.000000,   0.000000,   0.000000 [a0]

Properties computed using the SCF density matrix

  Nuclear Dipole Moment: [e a0]
     X:     0.0034      Y:     0.0000      Z:     0.0000

  Electronic Dipole Moment: [e a0]
     X:    -0.0018      Y:     0.0000      Z:     0.0000

  Dipole Moment: [e a0]
     X:     0.0016      Y:     0.0000      Z:     0.0000     Total:     0.0016

  Dipole Moment: [D]
     X:     0.0041      Y:     0.0000      Z:     0.0000     Total:     0.0041


*** tstop() called on bp1-compute00140.data.bp.acrc.priv at Tue Apr 27 17:29:44 2021
Module time:
	user time   =     100.11 seconds =       1.67 minutes
	system time =       2.06 seconds =       0.03 minutes
	total time  =          4 seconds =       0.07 minutes
Total time:
	user time   =    2706.40 seconds =      45.11 minutes
	system time =      67.44 seconds =       1.12 minutes
	total time  =        118 seconds =       1.97 minutes

         ----------------------------------------------------------
                                   FINDIF
                     R. A. King and Jonathon Misiewicz
         ---------------------------------------------------------

  Computing second-derivative from energies using projected, 
  symmetry-adapted, cartesian coordinates.

  12 energies passed in, including the reference geometry.
    Using 3-point formula.
    Energy without displacement:  -77.3236273637
    Check energies below for precision!
    0: -1        :       -77.3236243097
    0: 1         :       -77.3236245391
    1: -1        :       -77.3236223332
    1: 1         :       -77.3236223452
    0: 1, 1: 1   :       -77.3236168607
    0: -1, 1: -1 :       -77.3236160710
    2: -1        :       -77.3236268180
    3: -1        :       -77.3236268876
    4: -1        :       -77.3236217028
    5: -1        :       -77.3236270855
    6: -1        :       -77.3236272115

-------------------------------------------------------------


  ==> Harmonic Vibrational Analysis <==

  non-mass-weighted Hessian:       Symmetric? True   Hermitian? True   Lin Dep Dim?  5 (0)
  projection of translations (True) and rotations (True) removed 5 degrees of freedom (5)
  total projector:                 Symmetric? True   Hermitian? True   Lin Dep Dim?  5 (5)
  mass-weighted Hessian:           Symmetric? True   Hermitian? True   Lin Dep Dim?  5 (0)
  pre-proj  low-frequency mode:    0.0000i [cm^-1]
  pre-proj  low-frequency mode:    0.0000i [cm^-1]
  pre-proj  low-frequency mode:    0.0000  [cm^-1]
  pre-proj  low-frequency mode:    0.0000  [cm^-1]
  pre-proj  low-frequency mode:    0.0000  [cm^-1]
  pre-proj  all modes:['0.0000i' '0.0000i' '0.0000' '0.0000' '0.0000' '567.3481' '766.8906'
 '1003.2800' '1074.0663' '2147.7884' '3459.3310' '3496.0366']
  projected mass-weighted Hessian: Symmetric? True   Hermitian? True   Lin Dep Dim?  5 (5)
  post-proj low-frequency mode:    0.0001i [cm^-1] (TR)
  post-proj low-frequency mode:    0.0001i [cm^-1] (TR)
  post-proj low-frequency mode:    0.0000i [cm^-1] (TR)
  post-proj low-frequency mode:    0.0000  [cm^-1] (TR)
  post-proj low-frequency mode:    0.0000  [cm^-1] (TR)
  post-proj  all modes:['0.0001i' '0.0001i' '0.0000i' '0.0000' '0.0000' '567.3481' '766.8906'
 '1003.2800' '1074.0663' '2147.7884' '3459.3310' '3496.0366']

  Vibration                       6                   7                   8           
  Freq [cm^-1]                 567.3481            766.8906           1003.2800       
  Irrep                          B3u                 B2u                 B3g          
  Reduced mass [u]              1.0848              1.0848              1.5747        
  Force const [mDyne/A]         0.2057              0.3759              0.9339        
  Turning point v=0 [a0]        0.4423              0.3804              0.2761        
  RMS dev v=0 [a0 u^1/2]        0.3257              0.2802              0.2450        
  Char temp [K]                816.2876           1103.3848           1443.4966       
  ----------------------------------------------------------------------------------
      1   C               -0.06 -0.00 -0.00   -0.00 -0.06  0.00    0.00  0.16  0.00   
      2   C               -0.06 -0.00 -0.00    0.00 -0.06 -0.00   -0.00 -0.16  0.00   
      3   H                0.70 -0.00 -0.00    0.00  0.70  0.00    0.00  0.69  0.00   
      4   H                0.70 -0.00 -0.00    0.00  0.70  0.00   -0.00 -0.69  0.00   

  Vibration                       9                   10                  11          
  Freq [cm^-1]                1074.0663           2147.7884           3459.3310       
  Irrep                          B2g                  Ag                 B1u          
  Reduced mass [u]              1.5747              3.6427              1.0848        
  Force const [mDyne/A]         1.0703              9.9005              7.6488        
  Turning point v=0 [a0]        0.2668              0.1241              0.1791        
  RMS dev v=0 [a0 u^1/2]        0.2367              0.1674              0.1319        
  Char temp [K]               1545.3423           3090.1894           4977.2071       
  ----------------------------------------------------------------------------------
      1   C                0.16 -0.00 -0.00    0.00 -0.00  0.35   -0.00 -0.00 -0.06   
      2   C               -0.16  0.00 -0.00    0.00 -0.00 -0.35    0.00  0.00 -0.06   
      3   H                0.69 -0.00 -0.00    0.00 -0.00 -0.62    0.00  0.00  0.70   
      4   H               -0.69  0.00 -0.00   -0.00 -0.00  0.62   -0.00 -0.00  0.70   

  Vibration                       12          
  Freq [cm^-1]                3496.0366       
  Irrep                           Ag          
  Reduced mass [u]              1.2484        
  Force const [mDyne/A]         8.9897        
  Turning point v=0 [a0]        0.1661        
  RMS dev v=0 [a0 u^1/2]        0.1312        
  Char temp [K]               5030.0183       
  ----------------------------------------------------------------------------------
      1   C                0.00 -0.00  0.10   
      2   C               -0.00  0.00 -0.10   
      3   H                0.00  0.00  0.70   
      4   H                0.00  0.00 -0.70   

  ==> Thermochemistry Components <==

  Entropy, S
    Electronic S            0.000 [cal/(mol K)]        0.000 [J/(mol K)]       0.00000000 [mEh/K] (multiplicity = 1)
    Translational S        35.704 [cal/(mol K)]      149.387 [J/(mol K)]       0.05689862 [mEh/K] (mol. weight = 26.0157 [u], P = 101325.00 [Pa])
    Rotational S           10.857 [cal/(mol K)]       45.424 [J/(mol K)]       0.01730099 [mEh/K] (symmetry no. = 2)
    Vibrational S           0.908 [cal/(mol K)]        3.798 [J/(mol K)]       0.00144648 [mEh/K]
  Total S                  47.469 [cal/(mol K)]      198.609 [J/(mol K)]       0.07564609 [mEh/K]
  Correction S              0.000 [cal/(mol K)]        0.000 [J/(mol K)]       0.00000000 [mEh/K]

  Constant volume heat capacity, Cv
    Electronic Cv           0.000 [cal/(mol K)]        0.000 [J/(mol K)]       0.00000000 [mEh/K]
    Translational Cv        2.981 [cal/(mol K)]       12.472 [J/(mol K)]       0.00475022 [mEh/K]
    Rotational Cv           1.987 [cal/(mol K)]        8.314 [J/(mol K)]       0.00316681 [mEh/K]
    Vibrational Cv          2.492 [cal/(mol K)]       10.427 [J/(mol K)]       0.00397138 [mEh/K]
  Total Cv                  7.460 [cal/(mol K)]       31.213 [J/(mol K)]       0.01188840 [mEh/K]
  Correction Cv             0.000 [cal/(mol K)]        0.000 [J/(mol K)]       0.00000000 [mEh/K]

  Constant pressure heat capacity, Cp
    Electronic Cp           0.000 [cal/(mol K)]        0.000 [J/(mol K)]       0.00000000 [mEh/K]
    Translational Cp        4.968 [cal/(mol K)]       20.786 [J/(mol K)]       0.00791703 [mEh/K]
    Rotational Cp           1.987 [cal/(mol K)]        8.314 [J/(mol K)]       0.00316681 [mEh/K]
    Vibrational Cp          2.492 [cal/(mol K)]       10.427 [J/(mol K)]       0.00397138 [mEh/K]
  Total Cp                  9.447 [cal/(mol K)]       39.527 [J/(mol K)]       0.01505521 [mEh/K]
  Correction Cp             0.000 [cal/(mol K)]        0.000 [J/(mol K)]       0.00000000 [mEh/K]

  ==> Thermochemistry Energy Analysis <==

  Raw electronic energy, E0
  Total E0, Electronic energy at well bottom at 0 [K]                  -77.32362736 [Eh]

  Zero-point energy, ZPE_vib = Sum_i nu_i / 2
    Electronic ZPE          0.000 [kcal/mol]        0.000 [kJ/mol]       0.00000000 [Eh]
    Translational ZPE       0.000 [kcal/mol]        0.000 [kJ/mol]       0.00000000 [Eh]
    Rotational ZPE          0.000 [kcal/mol]        0.000 [kJ/mol]       0.00000000 [Eh]
    Vibrational ZPE        17.891 [kcal/mol]       74.855 [kJ/mol]       0.02851068 [Eh]        6257.371 [cm^-1]
  Correction ZPE           17.891 [kcal/mol]       74.855 [kJ/mol]       0.02851068 [Eh]        6257.371 [cm^-1]
  Total ZPE, Electronic energy at 0 [K]                                -77.29511669 [Eh]

  Thermal Energy, E (includes ZPE)
    Electronic E            0.000 [kcal/mol]        0.000 [kJ/mol]       0.00000000 [Eh]
    Translational E         0.889 [kcal/mol]        3.718 [kJ/mol]       0.00141628 [Eh]
    Rotational E            0.592 [kcal/mol]        2.479 [kJ/mol]       0.00094418 [Eh]
    Vibrational E          18.099 [kcal/mol]       75.726 [kJ/mol]       0.02884234 [Eh]
  Correction E             19.580 [kcal/mol]       81.923 [kJ/mol]       0.03120280 [Eh]
  Total E, Electronic energy at  298.15 [K]                            -77.29242457 [Eh]

  Enthalpy, H_trans = E_trans + k_B * T
    Electronic H            0.000 [kcal/mol]        0.000 [kJ/mol]       0.00000000 [Eh]
    Translational H         1.481 [kcal/mol]        6.197 [kJ/mol]       0.00236046 [Eh]
    Rotational H            0.592 [kcal/mol]        2.479 [kJ/mol]       0.00094418 [Eh]
    Vibrational H          18.099 [kcal/mol]       75.726 [kJ/mol]       0.02884234 [Eh]
  Correction H             20.173 [kcal/mol]       84.402 [kJ/mol]       0.03214698 [Eh]
  Total H, Enthalpy at  298.15 [K]                                     -77.29148038 [Eh]

  Gibbs free energy, G = H - T * S
    Electronic G            0.000 [kcal/mol]        0.000 [kJ/mol]       0.00000000 [Eh]
    Translational G        -9.164 [kcal/mol]      -38.342 [kJ/mol]      -0.01460386 [Eh]
    Rotational G           -2.644 [kcal/mol]      -11.064 [kJ/mol]      -0.00421411 [Eh]
    Vibrational G          17.828 [kcal/mol]       74.593 [kJ/mol]       0.02841107 [Eh]
  Correction G              6.020 [kcal/mol]       25.187 [kJ/mol]       0.00959310 [Eh]
  Total G, Free enthalpy at  298.15 [K]                                -77.31403426 [Eh]

    Psi4 stopped on: Tuesday, 27 April 2021 05:29PM
    Psi4 wall time for execution: 0:01:58.71

*** Psi4 exiting successfully. Buy a developer a beer!
