
    -----------------------------------------------------------------------
          Psi4: An Open-Source Ab Initio Electronic Structure Package
                               Psi4 1.3.2 release

                         Git: Rev {HEAD} ecbda83 


    R. M. Parrish, L. A. Burns, D. G. A. Smith, A. C. Simmonett,
    A. E. DePrince III, E. G. Hohenstein, U. Bozkaya, A. Yu. Sokolov,
    R. Di Remigio, R. M. Richard, J. F. Gonthier, A. M. James,
    H. R. McAlexander, A. Kumar, M. Saitow, X. Wang, B. P. Pritchard,
    P. Verma, H. F. Schaefer III, K. Patkowski, R. A. King, E. F. Valeev,
    F. A. Evangelista, J. M. Turney, T. D. Crawford, and C. D. Sherrill,
    J. Chem. Theory Comput. 13(7) pp 3185--3197 (2017).
    (doi: 10.1021/acs.jctc.7b00174)


                         Additional Contributions by
    P. Kraus, H. Kruse, M. H. Lechner, M. C. Schieber, R. A. Shaw,
    A. Alenaizan, R. Galvelis, Z. L. Glick, S. Lehtola, and J. P. Misiewicz

    -----------------------------------------------------------------------


    Psi4 started on: Tuesday, 27 April 2021 05:28PM

    Process ID: 53099
    Host:       bp1-compute00190.data.bp.acrc.priv
    PSIDATADIR: /work/zw18965/.conda/envs/p4env/share/psi4
    Memory:     500.0 MiB
    Threads:    24
    
  ==> Input File <==

--------------------------------------------------------------------------
memory 144 GB

molecule {
0 1
Cl 0.0000000000 0.0000000000 0.0000000000
Cl 0.0000000000 0.0000000000 1.9965761200
}

set dynamic_level 1
set basis aug-cc-pV(T+d)Z
 
optimize("wB97M-V")
frequencies("wB97M-V")
--------------------------------------------------------------------------

  Memory set to 134.110 GiB by Python driver.
gradient() will perform gradient computation by finite difference of analytic energies.

         ----------------------------------------------------------
                                   FINDIF
                     R. A. King and Jonathon Misiewicz
         ---------------------------------------------------------

  Using finite-differences of energies to determine gradients.
    Generating geometries for use with 3-point formula.
    Displacement size will be 5.00e-03.
    Number of atoms is 2.
    Number of symmetric SALCs is 1.
    Translations projected? 1. Rotations projected? 1.
    Number of geometries (including reference) is 3.

  //>>>>>>>>>>>>>>>>>>>>>>>>>>>>>>>>>>>//
  //    Loading displacement 1 of 3    //
  //<<<<<<<<<<<<<<<<<<<<<<<<<<<<<<<<<<<//

*** tstart() called on bp1-compute00190.data.bp.acrc.priv
*** at Tue Apr 27 17:28:53 2021

   => Loading Basis Set <=

    Name: AUG-CC-PV(T+D)Z
    Role: ORBITAL
    Keyword: BASIS
    atoms 1-2 entry CL         line  1012 file /work/zw18965/.conda/envs/p4env/share/psi4/basis/aug-cc-pv_tpd_z.gbs 


         ---------------------------------------------------------
                                   SCF
               by Justin Turney, Rob Parrish, Andy Simmonett
                          and Daniel G. A. Smith
                              RKS Reference
                       24 Threads, 137329 MiB Core
         ---------------------------------------------------------

  ==> Geometry <==

    Molecular point group: d2h
    Full point group: D_inf_h

    Geometry (in Angstrom), charge = 0, multiplicity = 1:

       Center              X                  Y                   Z               Mass       
    ------------   -----------------  -----------------  -----------------  -----------------
         CL           0.000000000000     0.000000000000    -0.998288060000    34.968852682000
         CL           0.000000000000     0.000000000000     0.998288060000    34.968852682000

  Running in d2h symmetry.

  Rotational constants: A = ************  B =      0.24187  C =      0.24187 [cm^-1]
  Rotational constants: A = ************  B =   7250.93591  C =   7250.93591 [MHz]
  Nuclear repulsion =   76.597236815408763

  Charge       = 0
  Multiplicity = 1
  Electrons    = 34
  Nalpha       = 17
  Nbeta        = 17

  ==> Algorithm <==

  SCF Algorithm Type is DF.
  DIIS enabled.
  MOM disabled.
  Fractional occupation disabled.
  Guess Type is SAD.
  Energy threshold   = 1.00e-08
  Density threshold  = 1.00e-08
  Integral threshold = 0.00e+00

  ==> Primary Basis <==

  Basis Set: AUG-CC-PV(T+D)Z
    Blend: AUG-CC-PV(T+D)Z
    Number of shells: 34
    Number of basis function: 110
    Number of Cartesian functions: 130
    Spherical Harmonics?: true
    Max angular momentum: 3

  ==> DFT Potential <==

   => Composite Functional: WB97M-V <= 

    wB97M-V Hyb-GGA Exchange-Correlation Functional

    N. Mardirossian and M. Head-Gordon, J. Chem. Phys. 144, 214110 (2016)

    Deriv               =              1
    GGA                 =           TRUE
    Meta                =           TRUE

    Exchange Hybrid     =           TRUE
    MP2 Hybrid          =          FALSE

   => Exchange-Correlation Functionals <=

    1.0000   wB97M-V exchange-correlation functional

   => Exact (HF) Exchange <=

    0.8500            HF,LR [omega = 0.3000]
    0.1500               HF 

   => VV10 Non-Local Parameters <=

    VV10 B              =     6.0000E+00
    VV10 C              =     1.0000E-02

   => Molecular Quadrature <=

    Radial Scheme          =       TREUTLER
    Pruning Scheme         =           FLAT
    Nuclear Scheme         =       TREUTLER

    BS radius alpha        =              1
    Pruning alpha          =              1
    Radial Points          =             75
    Spherical Points       =            302
    Total Points           =          44810
    Total Blocks           =            420
    Max Points             =            256
    Max Functions          =            110

   => Loading Basis Set <=

    Name: (AUG-CC-PV(T+D)Z AUX)
    Role: JKFIT
    Keyword: DF_BASIS_SCF
    atoms 1-2 entry CL         line   816 file /work/zw18965/.conda/envs/p4env/share/psi4/basis/aug-cc-pvtz-jkfit.gbs 

  ==> Pre-Iterations <==

   -------------------------------------------------------
    Irrep   Nso     Nmo     Nalpha   Nbeta   Ndocc  Nsocc
   -------------------------------------------------------
     Ag        23      23       0       0       0       0
     B1g        6       6       0       0       0       0
     B2g       13      13       0       0       0       0
     B3g       13      13       0       0       0       0
     Au         6       6       0       0       0       0
     B1u       23      23       0       0       0       0
     B2u       13      13       0       0       0       0
     B3u       13      13       0       0       0       0
   -------------------------------------------------------
    Total     110     110      17      17      17       0
   -------------------------------------------------------

  ==> Integral Setup <==

  ==> DiskDFJK: Density-Fitted J/K Matrices <==

    J tasked:                  Yes
    K tasked:                  Yes
    wK tasked:                 Yes
    Omega:               3.000E-01
    OpenMP threads:             24
    Integrals threads:          24
    Memory [MiB]:           102668
    Algorithm:                Core
    Integral Cache:           NONE
    Schwarz Cutoff:          1E-12
    Fitting Condition:       1E-10

   => Auxiliary Basis Set <=

  Basis Set: (AUG-CC-PV(T+D)Z AUX)
    Blend: AUG-CC-PVTZ-JKFIT
    Number of shells: 84
    Number of basis function: 292
    Number of Cartesian functions: 360
    Spherical Harmonics?: true
    Max angular momentum: 4

  Cached 100.0% of DFT collocation blocks in 0.320 [GiB].

  Minimum eigenvalue in the overlap matrix is 4.5520014416E-04.
  Using Symmetric Orthogonalization.

  SCF Guess: Superposition of Atomic Densities via on-the-fly atomic UHF.

  ==> Iterations <==

                           Total Energy        Delta E     RMS |[F,P]|

   @DF-RKS iter SAD:  -920.23091319019534   -9.20231e+02   0.00000e+00 
   @DF-RKS iter   1:  -920.34787959223434   -1.16966e-01   5.24419e-03 DIIS
   @DF-RKS iter   2:  -920.36119504733915   -1.33155e-02   2.85355e-03 DIIS
   @DF-RKS iter   3:  -920.36511339221215   -3.91834e-03   3.70888e-04 DIIS
   @DF-RKS iter   4:  -920.36522683752355   -1.13445e-04   1.22199e-04 DIIS
   @DF-RKS iter   5:  -920.36524316044029   -1.63229e-05   1.74591e-05 DIIS
   @DF-RKS iter   6:  -920.36524377740227   -6.16962e-07   1.75326e-06 DIIS
   @DF-RKS iter   7:  -920.36524378359422   -6.19195e-09   2.60483e-07 DIIS
   @DF-RKS iter   8:  -920.36524378370825   -1.14028e-10   3.74293e-08 DIIS
   @DF-RKS iter   9:  -920.36524378371121   -2.95586e-12   2.19375e-09 DIIS
  Energy and wave function converged.


  ==> Post-Iterations <==

    Orbital Energies [Eh]
    ---------------------

    Doubly Occupied:                                                      

       1B1u -101.949483     1Ag  -101.949479     2Ag    -9.702828  
       2B1u   -9.702789     3Ag    -7.410872     3B1u   -7.410748  
       1B3g   -7.398147     1B2g   -7.398147     1B2u   -7.398144  
       1B3u   -7.398144     4Ag    -1.058762     4B1u   -0.889834  
       5Ag    -0.565322     2B2u   -0.516196     2B3u   -0.516196  
       2B3g   -0.405107     2B2g   -0.405107  

    Virtual:                                                              

       5B1u   -0.037604     6B1u    0.064744     6Ag     0.078545  
       3B2u    0.083202     3B3u    0.083202     7Ag     0.105436  
       3B2g    0.113128     3B3g    0.113128     7B1u    0.222859  
       1B1g    0.236537     8Ag     0.236538     4B3u    0.261442  
       4B2u    0.261442     9Ag     0.335523     8B1u    0.348834  
       1Au     0.348834     9B1u    0.414785     4B2g    0.438207  
       4B3g    0.438207     5B2u    0.536068     5B3u    0.536068  
      10B1u    0.633064     5B2g    0.648481     5B3g    0.648481  
       6B3u    0.651965     6B2u    0.651965    10Ag     0.671935  
      11Ag     0.679356    12Ag     0.696617     2B1g    0.696623  
      11B1u    0.757317     2Au     0.757321    13Ag     0.760126  
       6B2g    0.818233     6B3g    0.818233    12B1u    0.903938  
       3B1g    0.989128    14Ag     0.989133     7B2u    0.998168  
       7B3u    0.998168     7B3g    1.140214     7B2g    1.140214  
       8B2u    1.254365     8B3u    1.254365    13B1u    1.270614  
       3Au     1.355646    14B1u    1.355671    15Ag     1.528992  
       8B2g    1.539884     8B3g    1.539884    15B1u    1.711273  
      16Ag     2.008769     4B1g    2.008804     9B2u    2.033206  
       9B3u    2.033206    16B1u    2.090227    17B1u    2.092866  
       4Au     2.092899     9B3g    2.246623     9B2g    2.246623  
      17Ag     2.334309    10B2u    2.372801    10B3u    2.372801  
      18Ag     2.463011    10B3g    2.599417    10B2g    2.599417  
      11B2u    2.721147    11B3u    2.721147    19Ag     2.721216  
      12B2u    2.754898    12B3u    2.754898     5B1g    2.757043  
      20Ag     2.757072    11B3g    2.812205    11B2g    2.812205  
       5Au     2.891401    18B1u    2.891448    19B1u    2.992310  
      12B3g    3.097730    12B2g    3.097730    20B1u    4.013466  
      21Ag     5.124475    21B1u    6.452172     6B1g    8.254308  
      22Ag     8.254353    13B2u    8.286942    13B3u    8.286942  
       6Au     8.293724    22B1u    8.293769    13B3g    8.373158  
      13B2g    8.373158    23B1u    8.389351    23Ag     8.533032  

    Final Occupation by Irrep:
             Ag   B1g   B2g   B3g    Au   B1u   B2u   B3u 
    DOCC [     5,    0,    2,    2,    0,    4,    2,    2 ]

  @DF-RKS Final Energy:  -920.36524378371121

   => Energetics <=

    Nuclear Repulsion Energy =             76.5972368154087633
    One-Electron Energy =               -1422.4840417707978304
    Two-Electron Energy =                 469.0227918087247758
    DFT Exchange-Correlation Energy =     -43.6435413319216821
    Empirical Dispersion Energy =           0.0000000000000000
    VV10 Nonlocal Energy =                  0.1423106948748481
    Total Energy =                       -920.3652437837112075

Computation Completed


Properties will be evaluated at   0.000000,   0.000000,   0.000000 [a0]

Properties computed using the SCF density matrix

  Nuclear Dipole Moment: [e a0]
     X:     0.0000      Y:     0.0000      Z:     0.0000

  Electronic Dipole Moment: [e a0]
     X:     0.0000      Y:     0.0000      Z:     0.0000

  Dipole Moment: [e a0]
     X:     0.0000      Y:     0.0000      Z:     0.0000     Total:     0.0000

  Dipole Moment: [D]
     X:     0.0000      Y:     0.0000      Z:     0.0000     Total:     0.0000


*** tstop() called on bp1-compute00190.data.bp.acrc.priv at Tue Apr 27 17:28:56 2021
Module time:
	user time   =      54.69 seconds =       0.91 minutes
	system time =       2.30 seconds =       0.04 minutes
	total time  =          3 seconds =       0.05 minutes
Total time:
	user time   =      54.69 seconds =       0.91 minutes
	system time =       2.30 seconds =       0.04 minutes
	total time  =          3 seconds =       0.05 minutes

  //>>>>>>>>>>>>>>>>>>>>>>>>>>>>>>>>>>>//
  //    Loading displacement 2 of 3    //
  //<<<<<<<<<<<<<<<<<<<<<<<<<<<<<<<<<<<//

*** tstart() called on bp1-compute00190.data.bp.acrc.priv
*** at Tue Apr 27 17:28:56 2021

   => Loading Basis Set <=

    Name: AUG-CC-PV(T+D)Z
    Role: ORBITAL
    Keyword: BASIS
    atoms 1-2 entry CL         line  1012 file /work/zw18965/.conda/envs/p4env/share/psi4/basis/aug-cc-pv_tpd_z.gbs 


         ---------------------------------------------------------
                                   SCF
               by Justin Turney, Rob Parrish, Andy Simmonett
                          and Daniel G. A. Smith
                              RKS Reference
                       24 Threads, 137329 MiB Core
         ---------------------------------------------------------

  ==> Geometry <==

    Molecular point group: d2h
    Full point group: D_inf_h

    Geometry (in Angstrom), charge = 0, multiplicity = 1:

       Center              X                  Y                   Z               Mass       
    ------------   -----------------  -----------------  -----------------  -----------------
         CL           0.000000000000     0.000000000000    -0.998604444681    34.968852682000
         CL           0.000000000000     0.000000000000     0.998604444681    34.968852682000

  Running in d2h symmetry.

  Rotational constants: A = ************  B =      0.24171  C =      0.24171 [cm^-1]
  Rotational constants: A = ************  B =   7246.34206  C =   7246.34206 [MHz]
  Nuclear repulsion =   76.572968755638541

  Charge       = 0
  Multiplicity = 1
  Electrons    = 34
  Nalpha       = 17
  Nbeta        = 17

  ==> Algorithm <==

  SCF Algorithm Type is DF.
  DIIS enabled.
  MOM disabled.
  Fractional occupation disabled.
  Guess Type is SAD.
  Energy threshold   = 1.00e-08
  Density threshold  = 1.00e-08
  Integral threshold = 0.00e+00

  ==> Primary Basis <==

  Basis Set: AUG-CC-PV(T+D)Z
    Blend: AUG-CC-PV(T+D)Z
    Number of shells: 34
    Number of basis function: 110
    Number of Cartesian functions: 130
    Spherical Harmonics?: true
    Max angular momentum: 3

  ==> DFT Potential <==

   => Composite Functional: WB97M-V <= 

    wB97M-V Hyb-GGA Exchange-Correlation Functional

    N. Mardirossian and M. Head-Gordon, J. Chem. Phys. 144, 214110 (2016)

    Deriv               =              1
    GGA                 =           TRUE
    Meta                =           TRUE

    Exchange Hybrid     =           TRUE
    MP2 Hybrid          =          FALSE

   => Exchange-Correlation Functionals <=

    1.0000   wB97M-V exchange-correlation functional

   => Exact (HF) Exchange <=

    0.8500            HF,LR [omega = 0.3000]
    0.1500               HF 

   => VV10 Non-Local Parameters <=

    VV10 B              =     6.0000E+00
    VV10 C              =     1.0000E-02

   => Molecular Quadrature <=

    Radial Scheme          =       TREUTLER
    Pruning Scheme         =           FLAT
    Nuclear Scheme         =       TREUTLER

    BS radius alpha        =              1
    Pruning alpha          =              1
    Radial Points          =             75
    Spherical Points       =            302
    Total Points           =          44810
    Total Blocks           =            420
    Max Points             =            256
    Max Functions          =            110

   => Loading Basis Set <=

    Name: (AUG-CC-PV(T+D)Z AUX)
    Role: JKFIT
    Keyword: DF_BASIS_SCF
    atoms 1-2 entry CL         line   816 file /work/zw18965/.conda/envs/p4env/share/psi4/basis/aug-cc-pvtz-jkfit.gbs 

  ==> Pre-Iterations <==

   -------------------------------------------------------
    Irrep   Nso     Nmo     Nalpha   Nbeta   Ndocc  Nsocc
   -------------------------------------------------------
     Ag        23      23       0       0       0       0
     B1g        6       6       0       0       0       0
     B2g       13      13       0       0       0       0
     B3g       13      13       0       0       0       0
     Au         6       6       0       0       0       0
     B1u       23      23       0       0       0       0
     B2u       13      13       0       0       0       0
     B3u       13      13       0       0       0       0
   -------------------------------------------------------
    Total     110     110      17      17      17       0
   -------------------------------------------------------

  ==> Integral Setup <==

  ==> DiskDFJK: Density-Fitted J/K Matrices <==

    J tasked:                  Yes
    K tasked:                  Yes
    wK tasked:                 Yes
    Omega:               3.000E-01
    OpenMP threads:             24
    Integrals threads:          24
    Memory [MiB]:           102668
    Algorithm:                Core
    Integral Cache:           NONE
    Schwarz Cutoff:          1E-12
    Fitting Condition:       1E-10

   => Auxiliary Basis Set <=

  Basis Set: (AUG-CC-PV(T+D)Z AUX)
    Blend: AUG-CC-PVTZ-JKFIT
    Number of shells: 84
    Number of basis function: 292
    Number of Cartesian functions: 360
    Spherical Harmonics?: true
    Max angular momentum: 4

  Cached 100.0% of DFT collocation blocks in 0.320 [GiB].

  Minimum eigenvalue in the overlap matrix is 4.5588991981E-04.
  Using Symmetric Orthogonalization.

  SCF Guess: Superposition of Atomic Densities via on-the-fly atomic UHF.

  ==> Iterations <==

                           Total Energy        Delta E     RMS |[F,P]|

   @DF-RKS iter SAD:  -920.23009870714645   -9.20230e+02   0.00000e+00 
   @DF-RKS iter   1:  -920.34788926447789   -1.17791e-01   5.24279e-03 DIIS
   @DF-RKS iter   2:  -920.36119427841822   -1.33050e-02   2.85236e-03 DIIS
   @DF-RKS iter   3:  -920.36510997755113   -3.91570e-03   3.70837e-04 DIIS
   @DF-RKS iter   4:  -920.36522335840721   -1.13381e-04   1.22098e-04 DIIS
   @DF-RKS iter   5:  -920.36523965916365   -1.63008e-05   1.74540e-05 DIIS
   @DF-RKS iter   6:  -920.36524027600694   -6.16843e-07   1.75290e-06 DIIS
   @DF-RKS iter   7:  -920.36524028219287   -6.18593e-09   2.60487e-07 DIIS
   @DF-RKS iter   8:  -920.36524028230713   -1.14255e-10   3.74208e-08 DIIS
   @DF-RKS iter   9:  -920.36524028230849   -1.36424e-12   2.19237e-09 DIIS
  Energy and wave function converged.


  ==> Post-Iterations <==

    Orbital Energies [Eh]
    ---------------------

    Doubly Occupied:                                                      

       1B1u -101.949512     1Ag  -101.949507     2Ag    -9.702848  
       2B1u   -9.702809     3Ag    -7.410893     3B1u   -7.410770  
       1B2g   -7.398166     1B3g   -7.398166     1B3u   -7.398163  
       1B2u   -7.398163     4Ag    -1.058603     4B1u   -0.889901  
       5Ag    -0.565248     2B2u   -0.516120     2B3u   -0.516120  
       2B3g   -0.405165     2B2g   -0.405165  

    Virtual:                                                              

       5B1u   -0.037788     6B1u    0.064719     6Ag     0.078545  
       3B2u    0.083208     3B3u    0.083208     7Ag     0.105451  
       3B2g    0.113125     3B3g    0.113125     7B1u    0.222853  
       1B1g    0.236558     8Ag     0.236558     4B3u    0.261419  
       4B2u    0.261419     9Ag     0.335556     8B1u    0.348799  
       1Au     0.348800     9B1u    0.414698     4B2g    0.438165  
       4B3g    0.438165     5B2u    0.536078     5B3u    0.536078  
      10B1u    0.633113     5B2g    0.648452     5B3g    0.648452  
       6B3u    0.652014     6B2u    0.652014    10Ag     0.671932  
      11Ag     0.679376    12Ag     0.696664     2B1g    0.696669  
      11B1u    0.757293     2Au     0.757297    13Ag     0.760075  
       6B2g    0.818126     6B3g    0.818126    12B1u    0.903682  
       3B1g    0.989039    14Ag     0.989044     7B2u    0.998221  
       7B3u    0.998221     7B3g    1.140149     7B2g    1.140149  
       8B3u    1.254124     8B2u    1.254124    13B1u    1.270301  
       3Au     1.355492    14B1u    1.355516    15Ag     1.528812  
       8B2g    1.539849     8B3g    1.539849    15B1u    1.711229  
      16Ag     2.008772     4B1g    2.008806     9B3u    2.033056  
       9B2u    2.033056    16B1u    2.090473    17B1u    2.092816  
       4Au     2.092848     9B2g    2.246683     9B3g    2.246683  
      17Ag     2.334371    10B3u    2.372810    10B2u    2.372810  
      18Ag     2.462187    10B2g    2.598993    10B3g    2.598993  
      19Ag     2.721366    11B3u    2.721577    11B2u    2.721577  
      12B2u    2.754911    12B3u    2.754911     5B1g    2.757156  
      20Ag     2.757186    11B3g    2.812183    11B2g    2.812183  
       5Au     2.891256    18B1u    2.891303    19B1u    2.992054  
      12B2g    3.097257    12B3g    3.097257    20B1u    4.012140  
      21Ag     5.123878    21B1u    6.451886     6B1g    8.254290  
      22Ag     8.254335    13B3u    8.286832    13B2u    8.286832  
       6Au     8.293697    22B1u    8.293742    13B2g    8.373113  
      13B3g    8.373113    23B1u    8.389605    23Ag     8.532932  

    Final Occupation by Irrep:
             Ag   B1g   B2g   B3g    Au   B1u   B2u   B3u 
    DOCC [     5,    0,    2,    2,    0,    4,    2,    2 ]

  @DF-RKS Final Energy:  -920.36524028230849

   => Energetics <=

    Nuclear Repulsion Energy =             76.5729687556385414
    One-Electron Energy =               -1422.4355868732288855
    Two-Electron Energy =                 468.9984169291162175
    DFT Exchange-Correlation Energy =     -43.6433509883534256
    Empirical Dispersion Energy =           0.0000000000000000
    VV10 Nonlocal Energy =                  0.1423118945189481
    Total Energy =                       -920.3652402823084913

Computation Completed


Properties will be evaluated at   0.000000,   0.000000,   0.000000 [a0]

Properties computed using the SCF density matrix

  Nuclear Dipole Moment: [e a0]
     X:     0.0000      Y:     0.0000      Z:     0.0000

  Electronic Dipole Moment: [e a0]
     X:     0.0000      Y:     0.0000      Z:     0.0000

  Dipole Moment: [e a0]
     X:     0.0000      Y:     0.0000      Z:     0.0000     Total:     0.0000

  Dipole Moment: [D]
     X:     0.0000      Y:     0.0000      Z:     0.0000     Total:     0.0000


*** tstop() called on bp1-compute00190.data.bp.acrc.priv at Tue Apr 27 17:28:58 2021
Module time:
	user time   =      62.13 seconds =       1.04 minutes
	system time =       2.51 seconds =       0.04 minutes
	total time  =          2 seconds =       0.03 minutes
Total time:
	user time   =     117.00 seconds =       1.95 minutes
	system time =       4.82 seconds =       0.08 minutes
	total time  =          5 seconds =       0.08 minutes

  //>>>>>>>>>>>>>>>>>>>>>>>>>>>>>>>>>>>//
  //    Loading displacement 3 of 3    //
  //<<<<<<<<<<<<<<<<<<<<<<<<<<<<<<<<<<<//

*** tstart() called on bp1-compute00190.data.bp.acrc.priv
*** at Tue Apr 27 17:28:58 2021

   => Loading Basis Set <=

    Name: AUG-CC-PV(T+D)Z
    Role: ORBITAL
    Keyword: BASIS
    atoms 1-2 entry CL         line  1012 file /work/zw18965/.conda/envs/p4env/share/psi4/basis/aug-cc-pv_tpd_z.gbs 


         ---------------------------------------------------------
                                   SCF
               by Justin Turney, Rob Parrish, Andy Simmonett
                          and Daniel G. A. Smith
                              RKS Reference
                       24 Threads, 137329 MiB Core
         ---------------------------------------------------------

  ==> Geometry <==

    Molecular point group: d2h
    Full point group: D_inf_h

    Geometry (in Angstrom), charge = 0, multiplicity = 1:

       Center              X                  Y                   Z               Mass       
    ------------   -----------------  -----------------  -----------------  -----------------
         CL           0.000000000000     0.000000000000    -0.997971675319    34.968852682000
         CL           0.000000000000     0.000000000000     0.997971675319    34.968852682000

  Running in d2h symmetry.

  Rotational constants: A = ************  B =      0.24202  C =      0.24202 [cm^-1]
  Rotational constants: A = ************  B =   7255.53414  C =   7255.53414 [MHz]
  Nuclear repulsion =   76.621520262474121

  Charge       = 0
  Multiplicity = 1
  Electrons    = 34
  Nalpha       = 17
  Nbeta        = 17

  ==> Algorithm <==

  SCF Algorithm Type is DF.
  DIIS enabled.
  MOM disabled.
  Fractional occupation disabled.
  Guess Type is SAD.
  Energy threshold   = 1.00e-08
  Density threshold  = 1.00e-08
  Integral threshold = 0.00e+00

  ==> Primary Basis <==

  Basis Set: AUG-CC-PV(T+D)Z
    Blend: AUG-CC-PV(T+D)Z
    Number of shells: 34
    Number of basis function: 110
    Number of Cartesian functions: 130
    Spherical Harmonics?: true
    Max angular momentum: 3

  ==> DFT Potential <==

   => Composite Functional: WB97M-V <= 

    wB97M-V Hyb-GGA Exchange-Correlation Functional

    N. Mardirossian and M. Head-Gordon, J. Chem. Phys. 144, 214110 (2016)

    Deriv               =              1
    GGA                 =           TRUE
    Meta                =           TRUE

    Exchange Hybrid     =           TRUE
    MP2 Hybrid          =          FALSE

   => Exchange-Correlation Functionals <=

    1.0000   wB97M-V exchange-correlation functional

   => Exact (HF) Exchange <=

    0.8500            HF,LR [omega = 0.3000]
    0.1500               HF 

   => VV10 Non-Local Parameters <=

    VV10 B              =     6.0000E+00
    VV10 C              =     1.0000E-02

   => Molecular Quadrature <=

    Radial Scheme          =       TREUTLER
    Pruning Scheme         =           FLAT
    Nuclear Scheme         =       TREUTLER

    BS radius alpha        =              1
    Pruning alpha          =              1
    Radial Points          =             75
    Spherical Points       =            302
    Total Points           =          44810
    Total Blocks           =            420
    Max Points             =            256
    Max Functions          =            110

   => Loading Basis Set <=

    Name: (AUG-CC-PV(T+D)Z AUX)
    Role: JKFIT
    Keyword: DF_BASIS_SCF
    atoms 1-2 entry CL         line   816 file /work/zw18965/.conda/envs/p4env/share/psi4/basis/aug-cc-pvtz-jkfit.gbs 

  ==> Pre-Iterations <==

   -------------------------------------------------------
    Irrep   Nso     Nmo     Nalpha   Nbeta   Ndocc  Nsocc
   -------------------------------------------------------
     Ag        23      23       0       0       0       0
     B1g        6       6       0       0       0       0
     B2g       13      13       0       0       0       0
     B3g       13      13       0       0       0       0
     Au         6       6       0       0       0       0
     B1u       23      23       0       0       0       0
     B2u       13      13       0       0       0       0
     B3u       13      13       0       0       0       0
   -------------------------------------------------------
    Total     110     110      17      17      17       0
   -------------------------------------------------------

  ==> Integral Setup <==

  ==> DiskDFJK: Density-Fitted J/K Matrices <==

    J tasked:                  Yes
    K tasked:                  Yes
    wK tasked:                 Yes
    Omega:               3.000E-01
    OpenMP threads:             24
    Integrals threads:          24
    Memory [MiB]:           102668
    Algorithm:                Core
    Integral Cache:           NONE
    Schwarz Cutoff:          1E-12
    Fitting Condition:       1E-10

   => Auxiliary Basis Set <=

  Basis Set: (AUG-CC-PV(T+D)Z AUX)
    Blend: AUG-CC-PVTZ-JKFIT
    Number of shells: 84
    Number of basis function: 292
    Number of Cartesian functions: 360
    Spherical Harmonics?: true
    Max angular momentum: 4

  Cached 100.0% of DFT collocation blocks in 0.320 [GiB].

  Minimum eigenvalue in the overlap matrix is 4.5451137604E-04.
  Using Symmetric Orthogonalization.

  SCF Guess: Superposition of Atomic Densities via on-the-fly atomic UHF.

  ==> Iterations <==

                           Total Energy        Delta E     RMS |[F,P]|

   @DF-RKS iter SAD:  -920.23169668563969   -9.20232e+02   0.00000e+00 
   @DF-RKS iter   1:  -920.34787007647378   -1.16173e-01   5.24562e-03 DIIS
   @DF-RKS iter   2:  -920.36119552271816   -1.33254e-02   2.85475e-03 DIIS
   @DF-RKS iter   3:  -920.36511650621719   -3.92098e-03   3.70938e-04 DIIS
   @DF-RKS iter   4:  -920.36523000841873   -1.13502e-04   1.22295e-04 DIIS
   @DF-RKS iter   5:  -920.36524635111084   -1.63427e-05   1.74635e-05 DIIS
   @DF-RKS iter   6:  -920.36524696816582   -6.17055e-07   1.75356e-06 DIIS
   @DF-RKS iter   7:  -920.36524697436346   -6.19764e-09   2.60478e-07 DIIS
   @DF-RKS iter   8:  -920.36524697447760   -1.14142e-10   3.74347e-08 DIIS
   @DF-RKS iter   9:  -920.36524697447965   -2.04636e-12   2.19492e-09 DIIS
  Energy and wave function converged.


  ==> Post-Iterations <==

    Orbital Energies [Eh]
    ---------------------

    Doubly Occupied:                                                      

       1B1u -101.949455     1Ag  -101.949451     2Ag    -9.702809  
       2B1u   -9.702770     3Ag    -7.410851     3B1u   -7.410726  
       1B3g   -7.398127     1B2g   -7.398127     1B2u   -7.398124  
       1B3u   -7.398124     4Ag    -1.058921     4B1u   -0.889767  
       5Ag    -0.565397     2B2u   -0.516272     2B3u   -0.516272  
       2B3g   -0.405050     2B2g   -0.405050  

    Virtual:                                                              

       5B1u   -0.037420     6B1u    0.064770     6Ag     0.078546  
       3B2u    0.083196     3B3u    0.083196     7Ag     0.105421  
       3B3g    0.113131     3B2g    0.113131     7B1u    0.222865  
       1B1g    0.236517     8Ag     0.236518     4B3u    0.261464  
       4B2u    0.261464     9Ag     0.335490     8B1u    0.348869  
       1Au     0.348869     9B1u    0.414873     4B2g    0.438249  
       4B3g    0.438249     5B2u    0.536058     5B3u    0.536058  
      10B1u    0.633016     5B2g    0.648509     5B3g    0.648509  
       6B2u    0.651917     6B3u    0.651917    10Ag     0.671937  
      11Ag     0.679336    12Ag     0.696571     2B1g    0.696577  
      11B1u    0.757341     2Au     0.757345    13Ag     0.760177  
       6B3g    0.818341     6B2g    0.818341    12B1u    0.904194  
       3B1g    0.989218    14Ag     0.989222     7B3u    0.998115  
       7B2u    0.998115     7B2g    1.140278     7B3g    1.140278  
       8B2u    1.254607     8B3u    1.254607    13B1u    1.270928  
       3Au     1.355801    14B1u    1.355826    15Ag     1.529172  
       8B3g    1.539919     8B2g    1.539919    15B1u    1.711317  
      16Ag     2.008767     4B1g    2.008801     9B3u    2.033357  
       9B2u    2.033357    16B1u    2.089980    17B1u    2.092917  
       4Au     2.092950     9B3g    2.246562     9B2g    2.246562  
      17Ag     2.334245    10B2u    2.372792    10B3u    2.372792  
      18Ag     2.463836    10B3g    2.599841    10B2g    2.599841  
      11B2u    2.720717    11B3u    2.720717    19Ag     2.721068  
      12B3u    2.754885    12B2u    2.754885     5B1g    2.756929  
      20Ag     2.756958    11B2g    2.812226    11B3g    2.812226  
       5Au     2.891547    18B1u    2.891594    19B1u    2.992567  
      12B2g    3.098205    12B3g    3.098205    20B1u    4.014790  
      21Ag     5.125073    21B1u    6.452458     6B1g    8.254326  
      22Ag     8.254371    13B3u    8.287051    13B2u    8.287051  
       6Au     8.293750    22B1u    8.293795    13B2g    8.373203  
      13B3g    8.373203    23B1u    8.389099    23Ag     8.533131  

    Final Occupation by Irrep:
             Ag   B1g   B2g   B3g    Au   B1u   B2u   B3u 
    DOCC [     5,    0,    2,    2,    0,    4,    2,    2 ]

  @DF-RKS Final Energy:  -920.36524697447965

   => Energetics <=

    Nuclear Repulsion Energy =             76.6215202624741210
    One-Electron Energy =               -1422.5325265334379310
    Two-Electron Energy =                 469.0471817233893717
    DFT Exchange-Correlation Energy =     -43.6437319222166380
    Empirical Dispersion Energy =           0.0000000000000000
    VV10 Nonlocal Energy =                  0.1423094953115334
    Total Energy =                       -920.3652469744794189

Computation Completed


Properties will be evaluated at   0.000000,   0.000000,   0.000000 [a0]

Properties computed using the SCF density matrix

  Nuclear Dipole Moment: [e a0]
     X:     0.0000      Y:     0.0000      Z:     0.0000

  Electronic Dipole Moment: [e a0]
     X:     0.0000      Y:     0.0000      Z:     0.0000

  Dipole Moment: [e a0]
     X:     0.0000      Y:     0.0000      Z:     0.0000     Total:     0.0000

  Dipole Moment: [D]
     X:     0.0000      Y:     0.0000      Z:     0.0000     Total:     0.0000


*** tstop() called on bp1-compute00190.data.bp.acrc.priv at Tue Apr 27 17:29:01 2021
Module time:
	user time   =      56.05 seconds =       0.93 minutes
	system time =       1.66 seconds =       0.03 minutes
	total time  =          3 seconds =       0.05 minutes
Total time:
	user time   =     173.21 seconds =       2.89 minutes
	system time =       6.49 seconds =       0.11 minutes
	total time  =          8 seconds =       0.13 minutes

         ----------------------------------------------------------
                                   FINDIF
                     R. A. King and Jonathon Misiewicz
         ---------------------------------------------------------

  Computing gradient from energies.
    Using 3-point formula.
    Energy without displacement: -920.3652437837
    Check energies below for precision!
    Forces are for mass-weighted, symmetry-adapted cartesians (in au).

     Coord      Energy(-1)        Energy(+1)            Force
        0   -920.3652402823   -920.3652469745     -0.0006692171


-------------------------------------------------------------
  ## New Matrix (Symmetry 0) ##
  Irrep: 1 Size: 2 x 3

                 1                   2                   3

    1     0.00000000000000     0.00000000000000    -0.00279829008452
    2     0.00000000000000     0.00000000000000     0.00279829008452




			-----------------------------------------
			 OPTKING 2.0: for geometry optimizations 
			  - R.A. King,  Bethel University        
			-----------------------------------------
	At level 1: Red. Int., RFO, no backsteps, dynamic trust

	Internal coordinates to be generated automatically.
	Detected frag 1 with atoms:  1 2
	---Fragment 1 Bond Connectivity---
	 1 : 2
	 2 : 1

	---Fragment 1 Geometry and Gradient---
	 CL          0.0000000000        0.0000000000       -1.8864910277
	 CL          0.0000000000        0.0000000000        1.8864910277
	             0.0000000000        0.0000000000       -0.0027982901
	             0.0000000000        0.0000000000        0.0027982901

	Previous optimization step data not found.  Starting new optimization.

	---Fragment 1 Intrafragment Coordinates---
	 - Coordinate -           - BOHR/RAD -       - ANG/DEG -
	 R(1,2)           =         3.772982	       1.996576

	Current energy   :      -920.3652437837

	Generating empirical Hessian (Schlegel '84) for each fragment.
	Taking RFO optimization step.
	Going to follow RFO solution 1.
	Using RFO vector 1.
	Norm of target step-size    0.00800
	Projected energy change by RFO approximation:         0.0000096021

	Back-transformation to cartesian coordinates...
	Successfully converged to displaced geometry.

	--- Internal Coordinate Step in ANG or DEG, aJ/ANG or AJ/DEG ---
	 ---------------------------------------------------------------------------
	   Coordinate                Previous        Force       Change         New 
	   ----------                --------       ------       ------       ------
	    1 R(1,2)          =      1.996576    -0.023054    -0.004232     1.992344
	 ---------------------------------------------------------------------------
	Successfully symmetrized geometry.

  ==> Convergence Check <==

  Measures of convergence in internal coordinates in au.
  Criteria marked as inactive (o), active & met (*), and active & unmet ( ).
  --------------------------------------------------------------------------------------------- ~
   Step     Total Energy     Delta E     MAX Force     RMS Force      MAX Disp      RMS Disp    ~
  --------------------------------------------------------------------------------------------- ~
    Convergence Criteria    1.00e-06 *    3.00e-04 *             o    1.20e-03 *             o  ~
  --------------------------------------------------------------------------------------------- ~
      1    -920.36524378   -9.20e+02      2.80e-03      2.80e-03 o    8.00e-03      8.00e-03 o  ~
  ---------------------------------------------------------------------------------------------

	Writing optimization data to binary file.
	Structure for next step:
	Cartesian Geometry (in Angstrom)
	   CL     0.0000000000   0.0000000000  -0.9961719062
	   CL     0.0000000000   0.0000000000   0.9961719062
			--------------------------
			 OPTKING Finished Execution 
			--------------------------

    Structure for next step:
    Molecular point group: d2h
    Full point group: D_inf_h

    Geometry (in Angstrom), charge = 0, multiplicity = 1:

    CL           0.000000000000     0.000000000000    -0.996171910072
    CL           0.000000000000     0.000000000000     0.996171910072

gradient() will perform gradient computation by finite difference of analytic energies.

         ----------------------------------------------------------
                                   FINDIF
                     R. A. King and Jonathon Misiewicz
         ---------------------------------------------------------

  Using finite-differences of energies to determine gradients.
    Generating geometries for use with 3-point formula.
    Displacement size will be 5.00e-03.
    Number of atoms is 2.
    Number of symmetric SALCs is 1.
    Translations projected? 1. Rotations projected? 1.
    Number of geometries (including reference) is 3.

  //>>>>>>>>>>>>>>>>>>>>>>>>>>>>>>>>>>>//
  //    Loading displacement 1 of 3    //
  //<<<<<<<<<<<<<<<<<<<<<<<<<<<<<<<<<<<//

*** tstart() called on bp1-compute00190.data.bp.acrc.priv
*** at Tue Apr 27 17:29:01 2021

   => Loading Basis Set <=

    Name: AUG-CC-PV(T+D)Z
    Role: ORBITAL
    Keyword: BASIS
    atoms 1-2 entry CL         line  1012 file /work/zw18965/.conda/envs/p4env/share/psi4/basis/aug-cc-pv_tpd_z.gbs 


         ---------------------------------------------------------
                                   SCF
               by Justin Turney, Rob Parrish, Andy Simmonett
                          and Daniel G. A. Smith
                              RKS Reference
                       24 Threads, 137329 MiB Core
         ---------------------------------------------------------

  ==> Geometry <==

    Molecular point group: d2h
    Full point group: D_inf_h

    Geometry (in Angstrom), charge = 0, multiplicity = 1:

       Center              X                  Y                   Z               Mass       
    ------------   -----------------  -----------------  -----------------  -----------------
         CL           0.000000000000     0.000000000000    -0.996171910072    34.968852682000
         CL           0.000000000000     0.000000000000     0.996171910072    34.968852682000

  Running in d2h symmetry.

  Rotational constants: A = ************  B =      0.24289  C =      0.24289 [cm^-1]
  Rotational constants: A = ************  B =   7281.77470  C =   7281.77470 [MHz]
  Nuclear repulsion =   76.759950936877829

  Charge       = 0
  Multiplicity = 1
  Electrons    = 34
  Nalpha       = 17
  Nbeta        = 17

  ==> Algorithm <==

  SCF Algorithm Type is DF.
  DIIS enabled.
  MOM disabled.
  Fractional occupation disabled.
  Guess Type is READ.
  Energy threshold   = 1.00e-08
  Density threshold  = 1.00e-08
  Integral threshold = 0.00e+00

  ==> Primary Basis <==

  Basis Set: AUG-CC-PV(T+D)Z
    Blend: AUG-CC-PV(T+D)Z
    Number of shells: 34
    Number of basis function: 110
    Number of Cartesian functions: 130
    Spherical Harmonics?: true
    Max angular momentum: 3

  ==> DFT Potential <==

   => Composite Functional: WB97M-V <= 

    wB97M-V Hyb-GGA Exchange-Correlation Functional

    N. Mardirossian and M. Head-Gordon, J. Chem. Phys. 144, 214110 (2016)

    Deriv               =              1
    GGA                 =           TRUE
    Meta                =           TRUE

    Exchange Hybrid     =           TRUE
    MP2 Hybrid          =          FALSE

   => Exchange-Correlation Functionals <=

    1.0000   wB97M-V exchange-correlation functional

   => Exact (HF) Exchange <=

    0.8500            HF,LR [omega = 0.3000]
    0.1500               HF 

   => VV10 Non-Local Parameters <=

    VV10 B              =     6.0000E+00
    VV10 C              =     1.0000E-02

   => Molecular Quadrature <=

    Radial Scheme          =       TREUTLER
    Pruning Scheme         =           FLAT
    Nuclear Scheme         =       TREUTLER

    BS radius alpha        =              1
    Pruning alpha          =              1
    Radial Points          =             75
    Spherical Points       =            302
    Total Points           =          44810
    Total Blocks           =            420
    Max Points             =            256
    Max Functions          =            110

   => Loading Basis Set <=

    Name: (AUG-CC-PV(T+D)Z AUX)
    Role: JKFIT
    Keyword: DF_BASIS_SCF
    atoms 1-2 entry CL         line   816 file /work/zw18965/.conda/envs/p4env/share/psi4/basis/aug-cc-pvtz-jkfit.gbs 

   => Loading Basis Set <=

    Name: AUG-CC-PV(T+D)Z
    Role: ORBITAL
    Keyword: BASIS
    atoms 1-2 entry CL         line  1012 file /work/zw18965/.conda/envs/p4env/share/psi4/basis/aug-cc-pv_tpd_z.gbs 

  Reading orbitals from file 180, no projection.

  ==> Pre-Iterations <==

   -------------------------------------------------------
    Irrep   Nso     Nmo     Nalpha   Nbeta   Ndocc  Nsocc
   -------------------------------------------------------
     Ag        23      23       0       0       0       0
     B1g        6       6       0       0       0       0
     B2g       13      13       0       0       0       0
     B3g       13      13       0       0       0       0
     Au         6       6       0       0       0       0
     B1u       23      23       0       0       0       0
     B2u       13      13       0       0       0       0
     B3u       13      13       0       0       0       0
   -------------------------------------------------------
    Total     110     110      17      17      17       0
   -------------------------------------------------------

  ==> Integral Setup <==

  ==> DiskDFJK: Density-Fitted J/K Matrices <==

    J tasked:                  Yes
    K tasked:                  Yes
    wK tasked:                 Yes
    Omega:               3.000E-01
    OpenMP threads:             24
    Integrals threads:          24
    Memory [MiB]:           102668
    Algorithm:                Core
    Integral Cache:           NONE
    Schwarz Cutoff:          1E-12
    Fitting Condition:       1E-10

   => Auxiliary Basis Set <=

  Basis Set: (AUG-CC-PV(T+D)Z AUX)
    Blend: AUG-CC-PVTZ-JKFIT
    Number of shells: 84
    Number of basis function: 292
    Number of Cartesian functions: 360
    Spherical Harmonics?: true
    Max angular momentum: 4

  Cached 100.0% of DFT collocation blocks in 0.320 [GiB].

  Minimum eigenvalue in the overlap matrix is 4.5061237325E-04.
  Using Symmetric Orthogonalization.

  SCF Guess: Orbitals guess was supplied from a previous computation.

  ==> Iterations <==

                           Total Energy        Delta E     RMS |[F,P]|

   @DF-RKS iter   0:  -920.36720750491952   -9.20367e+02   2.07316e-04 
   @DF-RKS iter   1:  -920.36525770792423    1.94980e-03   4.33638e-05 DIIS
   @DF-RKS iter   2:  -920.36525850953853   -8.01614e-07   3.36803e-05 DIIS
   @DF-RKS iter   3:  -920.36525915973027   -6.50192e-07   1.88640e-06 DIIS
   @DF-RKS iter   4:  -920.36525916420180   -4.47153e-09   4.79948e-07 DIIS
   @DF-RKS iter   5:  -920.36525916450876   -3.06954e-10   1.43768e-07 DIIS
   @DF-RKS iter   6:  -920.36525916452740   -1.86446e-11   7.94088e-09 DIIS
  Energy and wave function converged.


  ==> Post-Iterations <==

    Orbital Energies [Eh]
    ---------------------

    Doubly Occupied:                                                      

       1B1u -101.949292     1Ag  -101.949288     2Ag    -9.702699  
       2B1u   -9.702659     3Ag    -7.410731     3B1u   -7.410603  
       1B3g   -7.398016     1B2g   -7.398016     1B2u   -7.398014  
       1B3u   -7.398014     4Ag    -1.059829     4B1u   -0.889384  
       5Ag    -0.565819     2B2u   -0.516709     2B3u   -0.516709  
       2B2g   -0.404721     2B3g   -0.404721  

    Virtual:                                                              

       5B1u   -0.036371     6B1u    0.064919     6Ag     0.078551  
       3B2u    0.083160     3B3u    0.083160     7Ag     0.105335  
       3B2g    0.113149     3B3g    0.113149     7B1u    0.222898  
       1B1g    0.236402     8Ag     0.236403     4B3u    0.261595  
       4B2u    0.261595     9Ag     0.335300     8B1u    0.349067  
       1Au     0.349067     9B1u    0.415373     4B3g    0.438488  
       4B2g    0.438488     5B3u    0.535999     5B2u    0.535999  
      10B1u    0.632743     5B3g    0.648672     5B2g    0.648672  
       6B3u    0.651643     6B2u    0.651643    10Ag     0.671933  
      11Ag     0.679227    12Ag     0.696305     2B1g    0.696311  
      11B1u    0.757478     2Au     0.757482    13Ag     0.760478  
       6B2g    0.818954     6B3g    0.818954    12B1u    0.905659  
       3B1g    0.989727    14Ag     0.989732     7B2u    0.997814  
       7B3u    0.997814     7B2g    1.140647     7B3g    1.140647  
       8B3u    1.255979     8B2u    1.255979    13B1u    1.272715  
       3Au     1.356681    14B1u    1.356706    15Ag     1.530195  
       8B3g    1.540117     8B2g    1.540117    15B1u    1.711562  
      16Ag     2.008754     4B1g    2.008787     9B3u    2.034216  
       9B2u    2.034216    16B1u    2.088577    17B1u    2.093207  
       4Au     2.093239     9B2g    2.246210     9B3g    2.246210  
      17Ag     2.333839    10B3u    2.372742    10B2u    2.372742  
      18Ag     2.468561    10B2g    2.602263    10B3g    2.602263  
      11B3u    2.718274    11B2u    2.718274    19Ag     2.720274  
      12B2u    2.754810    12B3u    2.754810     5B1g    2.756273  
      20Ag     2.756300    11B3g    2.812349    11B2g    2.812349  
       5Au     2.892386    18B1u    2.892430    19B1u    2.994033  
      12B2g    3.100911    12B3g    3.100911    20B1u    4.022279  
      21Ag     5.128491    21B1u    6.454068     6B1g    8.254427  
      22Ag     8.254473    13B2u    8.287668    13B3u    8.287668  
       6Au     8.293899    22B1u    8.293945    13B3g    8.373459  
      13B2g    8.373459    23B1u    8.387701    23Ag     8.533666  

    Final Occupation by Irrep:
             Ag   B1g   B2g   B3g    Au   B1u   B2u   B3u 
    DOCC [     5,    0,    2,    2,    0,    4,    2,    2 ]

  @DF-RKS Final Energy:  -920.36525916452740

   => Energetics <=

    Nuclear Repulsion Energy =             76.7599509368778286
    One-Electron Energy =               -1422.8089051906013083
    Two-Electron Energy =                 469.1862133451000432
    DFT Exchange-Correlation Energy =     -43.6448209292385911
    Empirical Dispersion Energy =           0.0000000000000000
    VV10 Nonlocal Energy =                  0.1423026733346219
    Total Energy =                       -920.3652591645274015

Computation Completed


Properties will be evaluated at   0.000000,   0.000000,   0.000000 [a0]

Properties computed using the SCF density matrix

  Nuclear Dipole Moment: [e a0]
     X:     0.0000      Y:     0.0000      Z:     0.0000

  Electronic Dipole Moment: [e a0]
     X:     0.0000      Y:     0.0000      Z:     0.0000

  Dipole Moment: [e a0]
     X:     0.0000      Y:     0.0000      Z:     0.0000     Total:     0.0000

  Dipole Moment: [D]
     X:     0.0000      Y:     0.0000      Z:     0.0000     Total:     0.0000


*** tstop() called on bp1-compute00190.data.bp.acrc.priv at Tue Apr 27 17:29:03 2021
Module time:
	user time   =      43.17 seconds =       0.72 minutes
	system time =       1.11 seconds =       0.02 minutes
	total time  =          2 seconds =       0.03 minutes
Total time:
	user time   =     216.74 seconds =       3.61 minutes
	system time =       7.62 seconds =       0.13 minutes
	total time  =         10 seconds =       0.17 minutes

  //>>>>>>>>>>>>>>>>>>>>>>>>>>>>>>>>>>>//
  //    Loading displacement 2 of 3    //
  //<<<<<<<<<<<<<<<<<<<<<<<<<<<<<<<<<<<//

*** tstart() called on bp1-compute00190.data.bp.acrc.priv
*** at Tue Apr 27 17:29:03 2021

   => Loading Basis Set <=

    Name: AUG-CC-PV(T+D)Z
    Role: ORBITAL
    Keyword: BASIS
    atoms 1-2 entry CL         line  1012 file /work/zw18965/.conda/envs/p4env/share/psi4/basis/aug-cc-pv_tpd_z.gbs 


         ---------------------------------------------------------
                                   SCF
               by Justin Turney, Rob Parrish, Andy Simmonett
                          and Daniel G. A. Smith
                              RKS Reference
                       24 Threads, 137329 MiB Core
         ---------------------------------------------------------

  ==> Geometry <==

    Molecular point group: d2h
    Full point group: D_inf_h

    Geometry (in Angstrom), charge = 0, multiplicity = 1:

       Center              X                  Y                   Z               Mass       
    ------------   -----------------  -----------------  -----------------  -----------------
         CL           0.000000000000     0.000000000000    -0.996488294753    34.968852682000
         CL           0.000000000000     0.000000000000     0.996488294753    34.968852682000

  Running in d2h symmetry.

  Rotational constants: A = ************  B =      0.24274  C =      0.24274 [cm^-1]
  Rotational constants: A = ************  B =   7277.15151  C =   7277.15151 [MHz]
  Nuclear repulsion =   76.735579679600008

  Charge       = 0
  Multiplicity = 1
  Electrons    = 34
  Nalpha       = 17
  Nbeta        = 17

  ==> Algorithm <==

  SCF Algorithm Type is DF.
  DIIS enabled.
  MOM disabled.
  Fractional occupation disabled.
  Guess Type is READ.
  Energy threshold   = 1.00e-08
  Density threshold  = 1.00e-08
  Integral threshold = 0.00e+00

  ==> Primary Basis <==

  Basis Set: AUG-CC-PV(T+D)Z
    Blend: AUG-CC-PV(T+D)Z
    Number of shells: 34
    Number of basis function: 110
    Number of Cartesian functions: 130
    Spherical Harmonics?: true
    Max angular momentum: 3

  ==> DFT Potential <==

   => Composite Functional: WB97M-V <= 

    wB97M-V Hyb-GGA Exchange-Correlation Functional

    N. Mardirossian and M. Head-Gordon, J. Chem. Phys. 144, 214110 (2016)

    Deriv               =              1
    GGA                 =           TRUE
    Meta                =           TRUE

    Exchange Hybrid     =           TRUE
    MP2 Hybrid          =          FALSE

   => Exchange-Correlation Functionals <=

    1.0000   wB97M-V exchange-correlation functional

   => Exact (HF) Exchange <=

    0.8500            HF,LR [omega = 0.3000]
    0.1500               HF 

   => VV10 Non-Local Parameters <=

    VV10 B              =     6.0000E+00
    VV10 C              =     1.0000E-02

   => Molecular Quadrature <=

    Radial Scheme          =       TREUTLER
    Pruning Scheme         =           FLAT
    Nuclear Scheme         =       TREUTLER

    BS radius alpha        =              1
    Pruning alpha          =              1
    Radial Points          =             75
    Spherical Points       =            302
    Total Points           =          44810
    Total Blocks           =            420
    Max Points             =            256
    Max Functions          =            110

   => Loading Basis Set <=

    Name: (AUG-CC-PV(T+D)Z AUX)
    Role: JKFIT
    Keyword: DF_BASIS_SCF
    atoms 1-2 entry CL         line   816 file /work/zw18965/.conda/envs/p4env/share/psi4/basis/aug-cc-pvtz-jkfit.gbs 

   => Loading Basis Set <=

    Name: AUG-CC-PV(T+D)Z
    Role: ORBITAL
    Keyword: BASIS
    atoms 1-2 entry CL         line  1012 file /work/zw18965/.conda/envs/p4env/share/psi4/basis/aug-cc-pv_tpd_z.gbs 

  Reading orbitals from file 180, no projection.

  ==> Pre-Iterations <==

   -------------------------------------------------------
    Irrep   Nso     Nmo     Nalpha   Nbeta   Ndocc  Nsocc
   -------------------------------------------------------
     Ag        23      23       0       0       0       0
     B1g        6       6       0       0       0       0
     B2g       13      13       0       0       0       0
     B3g       13      13       0       0       0       0
     Au         6       6       0       0       0       0
     B1u       23      23       0       0       0       0
     B2u       13      13       0       0       0       0
     B3u       13      13       0       0       0       0
   -------------------------------------------------------
    Total     110     110      17      17      17       0
   -------------------------------------------------------

  ==> Integral Setup <==

  ==> DiskDFJK: Density-Fitted J/K Matrices <==

    J tasked:                  Yes
    K tasked:                  Yes
    wK tasked:                 Yes
    Omega:               3.000E-01
    OpenMP threads:             24
    Integrals threads:          24
    Memory [MiB]:           102668
    Algorithm:                Core
    Integral Cache:           NONE
    Schwarz Cutoff:          1E-12
    Fitting Condition:       1E-10

   => Auxiliary Basis Set <=

  Basis Set: (AUG-CC-PV(T+D)Z AUX)
    Blend: AUG-CC-PVTZ-JKFIT
    Number of shells: 84
    Number of basis function: 292
    Number of Cartesian functions: 360
    Spherical Harmonics?: true
    Max angular momentum: 4

  Cached 100.0% of DFT collocation blocks in 0.320 [GiB].

  Minimum eigenvalue in the overlap matrix is 4.5129544458E-04.
  Using Symmetric Orthogonalization.

  SCF Guess: Orbitals guess was supplied from a previous computation.

  ==> Iterations <==

                           Total Energy        Delta E     RMS |[F,P]|

   @DF-RKS iter   0:  -920.36496700299313   -9.20365e+02   3.10673e-05 
   @DF-RKS iter   1:  -920.36525772754385   -2.90725e-04   6.49317e-06 DIIS
   @DF-RKS iter   2:  -920.36525774552763   -1.79838e-08   5.04106e-06 DIIS
   @DF-RKS iter   3:  -920.36525776009148   -1.45639e-08   2.82600e-07 DIIS
   @DF-RKS iter   4:  -920.36525776019198   -1.00499e-10   7.20333e-08 DIIS
   @DF-RKS iter   5:  -920.36525776019903   -7.04858e-12   2.15533e-08 DIIS
   @DF-RKS iter   6:  -920.36525776019903    0.00000e+00   1.19048e-09 DIIS
  Energy and wave function converged.


  ==> Post-Iterations <==

    Orbital Energies [Eh]
    ---------------------

    Doubly Occupied:                                                      

       1B1u -101.949321     1Ag  -101.949316     2Ag    -9.702718  
       2B1u   -9.702678     3Ag    -7.410752     3B1u   -7.410625  
       1B3g   -7.398036     1B2g   -7.398036     1B2u   -7.398033  
       1B3u   -7.398033     4Ag    -1.059669     4B1u   -0.889451  
       5Ag    -0.565745     2B3u   -0.516632     2B2u   -0.516632  
       2B2g   -0.404779     2B3g   -0.404779  

    Virtual:                                                              

       5B1u   -0.036556     6B1u    0.064893     6Ag     0.078550  
       3B3u    0.083167     3B2u    0.083167     7Ag     0.105350  
       3B3g    0.113146     3B2g    0.113146     7B1u    0.222892  
       1B1g    0.236422     8Ag     0.236423     4B2u    0.261572  
       4B3u    0.261572     9Ag     0.335333     8B1u    0.349032  
       1Au     0.349032     9B1u    0.415285     4B3g    0.438446  
       4B2g    0.438446     5B2u    0.536010     5B3u    0.536010  
      10B1u    0.632791     5B3g    0.648643     5B2g    0.648643  
       6B3u    0.651691     6B2u    0.651691    10Ag     0.671935  
      11Ag     0.679246    12Ag     0.696352     2B1g    0.696358  
      11B1u    0.757454     2Au     0.757458    13Ag     0.760424  
       6B3g    0.818846     6B2g    0.818846    12B1u    0.905401  
       3B1g    0.989637    14Ag     0.989642     7B3u    0.997867  
       7B2u    0.997867     7B2g    1.140582     7B3g    1.140582  
       8B3u    1.255738     8B2u    1.255738    13B1u    1.272400  
       3Au     1.356527    14B1u    1.356551    15Ag     1.530016  
       8B3g    1.540082     8B2g    1.540082    15B1u    1.711519  
      16Ag     2.008756     4B1g    2.008790     9B2u    2.034065  
       9B3u    2.034065    16B1u    2.088823    17B1u    2.093156  
       4Au     2.093188     9B2g    2.246273     9B3g    2.246273  
      17Ag     2.333916    10B3u    2.372750    10B2u    2.372750  
      18Ag     2.467726    10B2g    2.601836    10B3g    2.601836  
      11B3u    2.718704    11B2u    2.718704    19Ag     2.720408  
      12B3u    2.754824    12B2u    2.754824     5B1g    2.756389  
      20Ag     2.756416    11B2g    2.812327    11B3g    2.812327  
       5Au     2.892237    18B1u    2.892282    19B1u    2.993775  
      12B3g    3.100435    12B2g    3.100435    20B1u    4.020968  
      21Ag     5.127888    21B1u    6.453787     6B1g    8.254409  
      22Ag     8.254455    13B2u    8.287560    13B3u    8.287560  
       6Au     8.293873    22B1u    8.293919    13B3g    8.373414  
      13B2g    8.373414    23B1u    8.387942    23Ag     8.533576  

    Final Occupation by Irrep:
             Ag   B1g   B2g   B3g    Au   B1u   B2u   B3u 
    DOCC [     5,    0,    2,    2,    0,    4,    2,    2 ]

  @DF-RKS Final Energy:  -920.36525776019903

   => Energetics <=

    Nuclear Repulsion Energy =             76.7355796796000078
    One-Electron Energy =               -1422.7602482816532756
    Two-Electron Energy =                 469.1617357885715478
    DFT Exchange-Correlation Energy =     -43.6446288189485330
    Empirical Dispersion Energy =           0.0000000000000000
    VV10 Nonlocal Energy =                  0.1423038722312380
    Total Energy =                       -920.3652577601989151

Computation Completed


Properties will be evaluated at   0.000000,   0.000000,   0.000000 [a0]

Properties computed using the SCF density matrix

  Nuclear Dipole Moment: [e a0]
     X:     0.0000      Y:     0.0000      Z:     0.0000

  Electronic Dipole Moment: [e a0]
     X:     0.0000      Y:     0.0000      Z:     0.0000

  Dipole Moment: [e a0]
     X:     0.0000      Y:     0.0000      Z:     0.0000     Total:     0.0000

  Dipole Moment: [D]
     X:     0.0000      Y:     0.0000      Z:     0.0000     Total:     0.0000


*** tstop() called on bp1-compute00190.data.bp.acrc.priv at Tue Apr 27 17:29:05 2021
Module time:
	user time   =      47.16 seconds =       0.79 minutes
	system time =       1.53 seconds =       0.03 minutes
	total time  =          2 seconds =       0.03 minutes
Total time:
	user time   =     264.03 seconds =       4.40 minutes
	system time =       9.16 seconds =       0.15 minutes
	total time  =         12 seconds =       0.20 minutes

  //>>>>>>>>>>>>>>>>>>>>>>>>>>>>>>>>>>>//
  //    Loading displacement 3 of 3    //
  //<<<<<<<<<<<<<<<<<<<<<<<<<<<<<<<<<<<//

*** tstart() called on bp1-compute00190.data.bp.acrc.priv
*** at Tue Apr 27 17:29:05 2021

   => Loading Basis Set <=

    Name: AUG-CC-PV(T+D)Z
    Role: ORBITAL
    Keyword: BASIS
    atoms 1-2 entry CL         line  1012 file /work/zw18965/.conda/envs/p4env/share/psi4/basis/aug-cc-pv_tpd_z.gbs 


         ---------------------------------------------------------
                                   SCF
               by Justin Turney, Rob Parrish, Andy Simmonett
                          and Daniel G. A. Smith
                              RKS Reference
                       24 Threads, 137329 MiB Core
         ---------------------------------------------------------

  ==> Geometry <==

    Molecular point group: d2h
    Full point group: D_inf_h

    Geometry (in Angstrom), charge = 0, multiplicity = 1:

       Center              X                  Y                   Z               Mass       
    ------------   -----------------  -----------------  -----------------  -----------------
         CL           0.000000000000     0.000000000000    -0.995855525391    34.968852682000
         CL           0.000000000000     0.000000000000     0.995855525391    34.968852682000

  Running in d2h symmetry.

  Rotational constants: A = ************  B =      0.24305  C =      0.24305 [cm^-1]
  Rotational constants: A = ************  B =   7286.40229  C =   7286.40229 [MHz]
  Nuclear repulsion =   76.784337679720110

  Charge       = 0
  Multiplicity = 1
  Electrons    = 34
  Nalpha       = 17
  Nbeta        = 17

  ==> Algorithm <==

  SCF Algorithm Type is DF.
  DIIS enabled.
  MOM disabled.
  Fractional occupation disabled.
  Guess Type is READ.
  Energy threshold   = 1.00e-08
  Density threshold  = 1.00e-08
  Integral threshold = 0.00e+00

  ==> Primary Basis <==

  Basis Set: AUG-CC-PV(T+D)Z
    Blend: AUG-CC-PV(T+D)Z
    Number of shells: 34
    Number of basis function: 110
    Number of Cartesian functions: 130
    Spherical Harmonics?: true
    Max angular momentum: 3

  ==> DFT Potential <==

   => Composite Functional: WB97M-V <= 

    wB97M-V Hyb-GGA Exchange-Correlation Functional

    N. Mardirossian and M. Head-Gordon, J. Chem. Phys. 144, 214110 (2016)

    Deriv               =              1
    GGA                 =           TRUE
    Meta                =           TRUE

    Exchange Hybrid     =           TRUE
    MP2 Hybrid          =          FALSE

   => Exchange-Correlation Functionals <=

    1.0000   wB97M-V exchange-correlation functional

   => Exact (HF) Exchange <=

    0.8500            HF,LR [omega = 0.3000]
    0.1500               HF 

   => VV10 Non-Local Parameters <=

    VV10 B              =     6.0000E+00
    VV10 C              =     1.0000E-02

   => Molecular Quadrature <=

    Radial Scheme          =       TREUTLER
    Pruning Scheme         =           FLAT
    Nuclear Scheme         =       TREUTLER

    BS radius alpha        =              1
    Pruning alpha          =              1
    Radial Points          =             75
    Spherical Points       =            302
    Total Points           =          44810
    Total Blocks           =            420
    Max Points             =            256
    Max Functions          =            110

   => Loading Basis Set <=

    Name: (AUG-CC-PV(T+D)Z AUX)
    Role: JKFIT
    Keyword: DF_BASIS_SCF
    atoms 1-2 entry CL         line   816 file /work/zw18965/.conda/envs/p4env/share/psi4/basis/aug-cc-pvtz-jkfit.gbs 

   => Loading Basis Set <=

    Name: AUG-CC-PV(T+D)Z
    Role: ORBITAL
    Keyword: BASIS
    atoms 1-2 entry CL         line  1012 file /work/zw18965/.conda/envs/p4env/share/psi4/basis/aug-cc-pv_tpd_z.gbs 

  Reading orbitals from file 180, no projection.

  ==> Pre-Iterations <==

   -------------------------------------------------------
    Irrep   Nso     Nmo     Nalpha   Nbeta   Ndocc  Nsocc
   -------------------------------------------------------
     Ag        23      23       0       0       0       0
     B1g        6       6       0       0       0       0
     B2g       13      13       0       0       0       0
     B3g       13      13       0       0       0       0
     Au         6       6       0       0       0       0
     B1u       23      23       0       0       0       0
     B2u       13      13       0       0       0       0
     B3u       13      13       0       0       0       0
   -------------------------------------------------------
    Total     110     110      17      17      17       0
   -------------------------------------------------------

  ==> Integral Setup <==

  ==> DiskDFJK: Density-Fitted J/K Matrices <==

    J tasked:                  Yes
    K tasked:                  Yes
    wK tasked:                 Yes
    Omega:               3.000E-01
    OpenMP threads:             24
    Integrals threads:          24
    Memory [MiB]:           102668
    Algorithm:                Core
    Integral Cache:           NONE
    Schwarz Cutoff:          1E-12
    Fitting Condition:       1E-10

   => Auxiliary Basis Set <=

  Basis Set: (AUG-CC-PV(T+D)Z AUX)
    Blend: AUG-CC-PVTZ-JKFIT
    Number of shells: 84
    Number of basis function: 292
    Number of Cartesian functions: 360
    Spherical Harmonics?: true
    Max angular momentum: 4

  Cached 100.0% of DFT collocation blocks in 0.320 [GiB].

  Minimum eigenvalue in the overlap matrix is 4.4993029732E-04.
  Using Symmetric Orthogonalization.

  SCF Guess: Orbitals guess was supplied from a previous computation.

  ==> Iterations <==

                           Total Energy        Delta E     RMS |[F,P]|

   @DF-RKS iter   0:  -920.36555159421914   -9.20366e+02   3.11162e-05 
   @DF-RKS iter   1:  -920.36526021922430    2.91375e-04   6.49563e-06 DIIS
   @DF-RKS iter   2:  -920.36526023722547   -1.80012e-08   5.04269e-06 DIIS
   @DF-RKS iter   3:  -920.36526025179421   -1.45687e-08   2.82992e-07 DIIS
   @DF-RKS iter   4:  -920.36526025189517   -1.00954e-10   7.21375e-08 DIIS
   @DF-RKS iter   5:  -920.36526025190176   -6.59384e-12   2.15691e-08 DIIS
   @DF-RKS iter   6:  -920.36526025190165    1.13687e-13   1.18958e-09 DIIS
  Energy and wave function converged.


  ==> Post-Iterations <==

    Orbital Energies [Eh]
    ---------------------

    Doubly Occupied:                                                      

       1B1u -101.949263     1Ag  -101.949259     2Ag    -9.702679  
       2B1u   -9.702639     3Ag    -7.410710     3B1u   -7.410581  
       1B2g   -7.397997     1B3g   -7.397997     1B3u   -7.397994  
       1B2u   -7.397994     4Ag    -1.059990     4B1u   -0.889316  
       5Ag    -0.565893     2B3u   -0.516786     2B2u   -0.516786  
       2B2g   -0.404664     2B3g   -0.404664  

    Virtual:                                                              

       5B1u   -0.036187     6B1u    0.064946     6Ag     0.078552  
       3B3u    0.083154     3B2u    0.083154     7Ag     0.105320  
       3B2g    0.113152     3B3g    0.113152     7B1u    0.222904  
       1B1g    0.236382     8Ag     0.236383     4B3u    0.261618  
       4B2u    0.261618     9Ag     0.335266     8B1u    0.349101  
       1Au     0.349102     9B1u    0.415461     4B2g    0.438530  
       4B3g    0.438530     5B3u    0.535989     5B2u    0.535989  
      10B1u    0.632695     5B3g    0.648700     5B2g    0.648700  
       6B3u    0.651595     6B2u    0.651595    10Ag     0.671929  
      11Ag     0.679210    12Ag     0.696258     2B1g    0.696264  
      11B1u    0.757502     2Au     0.757507    13Ag     0.760533  
       6B3g    0.819063     6B2g    0.819063    12B1u    0.905918  
       3B1g    0.989817    14Ag     0.989821     7B2u    0.997761  
       7B3u    0.997761     7B3g    1.140712     7B2g    1.140712  
       8B3u    1.256220     8B2u    1.256220    13B1u    1.273029  
       3Au     1.356836    14B1u    1.356860    15Ag     1.530375  
       8B3g    1.540151     8B2g    1.540151    15B1u    1.711604  
      16Ag     2.008752     4B1g    2.008785     9B3u    2.034368  
       9B2u    2.034368    16B1u    2.088330    17B1u    2.093259  
       4Au     2.093289     9B3g    2.246148     9B2g    2.246148  
      17Ag     2.333761    10B2u    2.372733    10B3u    2.372733  
      18Ag     2.469396    10B2g    2.602690    10B3g    2.602690  
      11B3u    2.717845    11B2u    2.717845    19Ag     2.720143  
      12B2u    2.754797    12B3u    2.754797     5B1g    2.756156  
      20Ag     2.756182    11B3g    2.812371    11B2g    2.812371  
       5Au     2.892534    18B1u    2.892578    19B1u    2.994292  
      12B3g    3.101389    12B2g    3.101389    20B1u    4.023588  
      21Ag     5.129095    21B1u    6.454349     6B1g    8.254445  
      22Ag     8.254491    13B3u    8.287776    13B2u    8.287776  
       6Au     8.293926    22B1u    8.293971    13B3g    8.373505  
      13B2g    8.373505    23B1u    8.387462    23Ag     8.533756  

    Final Occupation by Irrep:
             Ag   B1g   B2g   B3g    Au   B1u   B2u   B3u 
    DOCC [     5,    0,    2,    2,    0,    4,    2,    2 ]

  @DF-RKS Final Energy:  -920.36526025190165

   => Energetics <=

    Nuclear Repulsion Energy =             76.7843376797201103
    One-Electron Energy =               -1422.8575890903018717
    Two-Electron Energy =                 469.2107027793799716
    DFT Exchange-Correlation Energy =     -43.6450130948704569
    Empirical Dispersion Energy =           0.0000000000000000
    VV10 Nonlocal Energy =                  0.1423014741707032
    Total Energy =                       -920.3652602519016455

Computation Completed


Properties will be evaluated at   0.000000,   0.000000,   0.000000 [a0]

Properties computed using the SCF density matrix

  Nuclear Dipole Moment: [e a0]
     X:     0.0000      Y:     0.0000      Z:     0.0000

  Electronic Dipole Moment: [e a0]
     X:     0.0000      Y:     0.0000      Z:     0.0000

  Dipole Moment: [e a0]
     X:     0.0000      Y:     0.0000      Z:     0.0000     Total:     0.0000

  Dipole Moment: [D]
     X:     0.0000      Y:     0.0000      Z:     0.0000     Total:     0.0000


*** tstop() called on bp1-compute00190.data.bp.acrc.priv at Tue Apr 27 17:29:07 2021
Module time:
	user time   =      42.83 seconds =       0.71 minutes
	system time =       1.20 seconds =       0.02 minutes
	total time  =          2 seconds =       0.03 minutes
Total time:
	user time   =     307.00 seconds =       5.12 minutes
	system time =      10.37 seconds =       0.17 minutes
	total time  =         14 seconds =       0.23 minutes

         ----------------------------------------------------------
                                   FINDIF
                     R. A. King and Jonathon Misiewicz
         ---------------------------------------------------------

  Computing gradient from energies.
    Using 3-point formula.
    Energy without displacement: -920.3652591645
    Check energies below for precision!
    Forces are for mass-weighted, symmetry-adapted cartesians (in au).

     Coord      Energy(-1)        Energy(+1)            Force
        0   -920.3652577602   -920.3652602519     -0.0002491703


-------------------------------------------------------------
  ## New Matrix (Symmetry 0) ##
  Irrep: 1 Size: 2 x 3

                 1                   2                   3

    1     0.00000000000000     0.00000000000000    -0.00104189007787
    2     0.00000000000000     0.00000000000000     0.00104189007787




			-----------------------------------------
			 OPTKING 2.0: for geometry optimizations 
			  - R.A. King,  Bethel University        
			-----------------------------------------
	At level 1: Red. Int., RFO, no backsteps, dynamic trust

	Previous internal coordinate definitions found.
	---Fragment 1 Geometry and Gradient---
	 CL          0.0000000000        0.0000000000       -1.8824920839
	 CL          0.0000000000        0.0000000000        1.8824920839
	             0.0000000000        0.0000000000       -0.0010418901
	             0.0000000000        0.0000000000        0.0010418901

	---Fragment 1 Intrafragment Coordinates---
	 - Coordinate -           - BOHR/RAD -       - ANG/DEG -
	 R(1,2)           =         3.764984	       1.992344

	Current energy   :      -920.3652591645

	Energy change for the previous step:
		Projected    :         0.0000096021
		Actual       :        -0.0000153808

	Performing BFGS update.
	Previous computed or guess Hessian on step 1.
	Steps to be used in Hessian update: 1
	Taking RFO optimization step.
	Going to follow RFO solution 1.
	Using RFO vector 1.
	Norm of target step-size    0.00474
	Projected energy change by RFO approximation:         0.0000063107

	Back-transformation to cartesian coordinates...
	Successfully converged to displaced geometry.

	--- Internal Coordinate Step in ANG or DEG, aJ/ANG or AJ/DEG ---
	 ---------------------------------------------------------------------------
	   Coordinate                Previous        Force       Change         New 
	   ----------                --------       ------       ------       ------
	    1 R(1,2)          =      1.992344    -0.008584    -0.002511     1.989833
	 ---------------------------------------------------------------------------
	Successfully symmetrized geometry.

  ==> Convergence Check <==

  Measures of convergence in internal coordinates in au.
  Criteria marked as inactive (o), active & met (*), and active & unmet ( ).
  ---------------------------------------------------------------------------------------------
   Step     Total Energy     Delta E     MAX Force     RMS Force      MAX Disp      RMS Disp   
  ---------------------------------------------------------------------------------------------
    Convergence Criteria    1.00e-06 *    3.00e-04 *             o    1.20e-03 *             o
  ---------------------------------------------------------------------------------------------
      2    -920.36525916   -1.54e-05      1.04e-03      1.04e-03 o    4.74e-03      4.74e-03 o  ~
  ---------------------------------------------------------------------------------------------

	Writing optimization data to binary file.
	Structure for next step:
	Cartesian Geometry (in Angstrom)
	   CL     0.0000000000   0.0000000000  -0.9949166420
	   CL     0.0000000000   0.0000000000   0.9949166420
			--------------------------
			 OPTKING Finished Execution 
			--------------------------

    Structure for next step:
    Molecular point group: d2h
    Full point group: D_inf_h

    Geometry (in Angstrom), charge = 0, multiplicity = 1:

    CL           0.000000000000     0.000000000000    -0.994916645906
    CL           0.000000000000     0.000000000000     0.994916645906

gradient() will perform gradient computation by finite difference of analytic energies.

         ----------------------------------------------------------
                                   FINDIF
                     R. A. King and Jonathon Misiewicz
         ---------------------------------------------------------

  Using finite-differences of energies to determine gradients.
    Generating geometries for use with 3-point formula.
    Displacement size will be 5.00e-03.
    Number of atoms is 2.
    Number of symmetric SALCs is 1.
    Translations projected? 1. Rotations projected? 1.
    Number of geometries (including reference) is 3.

  //>>>>>>>>>>>>>>>>>>>>>>>>>>>>>>>>>>>//
  //    Loading displacement 1 of 3    //
  //<<<<<<<<<<<<<<<<<<<<<<<<<<<<<<<<<<<//

*** tstart() called on bp1-compute00190.data.bp.acrc.priv
*** at Tue Apr 27 17:29:07 2021

   => Loading Basis Set <=

    Name: AUG-CC-PV(T+D)Z
    Role: ORBITAL
    Keyword: BASIS
    atoms 1-2 entry CL         line  1012 file /work/zw18965/.conda/envs/p4env/share/psi4/basis/aug-cc-pv_tpd_z.gbs 


         ---------------------------------------------------------
                                   SCF
               by Justin Turney, Rob Parrish, Andy Simmonett
                          and Daniel G. A. Smith
                              RKS Reference
                       24 Threads, 137329 MiB Core
         ---------------------------------------------------------

  ==> Geometry <==

    Molecular point group: d2h
    Full point group: D_inf_h

    Geometry (in Angstrom), charge = 0, multiplicity = 1:

       Center              X                  Y                   Z               Mass       
    ------------   -----------------  -----------------  -----------------  -----------------
         CL           0.000000000000     0.000000000000    -0.994916645906    34.968852682000
         CL           0.000000000000     0.000000000000     0.994916645906    34.968852682000

  Running in d2h symmetry.

  Rotational constants: A = ************  B =      0.24351  C =      0.24351 [cm^-1]
  Rotational constants: A = ************  B =   7300.16079  C =   7300.16079 [MHz]
  Nuclear repulsion =   76.856797256781149

  Charge       = 0
  Multiplicity = 1
  Electrons    = 34
  Nalpha       = 17
  Nbeta        = 17

  ==> Algorithm <==

  SCF Algorithm Type is DF.
  DIIS enabled.
  MOM disabled.
  Fractional occupation disabled.
  Guess Type is READ.
  Energy threshold   = 1.00e-08
  Density threshold  = 1.00e-08
  Integral threshold = 0.00e+00

  ==> Primary Basis <==

  Basis Set: AUG-CC-PV(T+D)Z
    Blend: AUG-CC-PV(T+D)Z
    Number of shells: 34
    Number of basis function: 110
    Number of Cartesian functions: 130
    Spherical Harmonics?: true
    Max angular momentum: 3

  ==> DFT Potential <==

   => Composite Functional: WB97M-V <= 

    wB97M-V Hyb-GGA Exchange-Correlation Functional

    N. Mardirossian and M. Head-Gordon, J. Chem. Phys. 144, 214110 (2016)

    Deriv               =              1
    GGA                 =           TRUE
    Meta                =           TRUE

    Exchange Hybrid     =           TRUE
    MP2 Hybrid          =          FALSE

   => Exchange-Correlation Functionals <=

    1.0000   wB97M-V exchange-correlation functional

   => Exact (HF) Exchange <=

    0.8500            HF,LR [omega = 0.3000]
    0.1500               HF 

   => VV10 Non-Local Parameters <=

    VV10 B              =     6.0000E+00
    VV10 C              =     1.0000E-02

   => Molecular Quadrature <=

    Radial Scheme          =       TREUTLER
    Pruning Scheme         =           FLAT
    Nuclear Scheme         =       TREUTLER

    BS radius alpha        =              1
    Pruning alpha          =              1
    Radial Points          =             75
    Spherical Points       =            302
    Total Points           =          44810
    Total Blocks           =            420
    Max Points             =            256
    Max Functions          =            110

   => Loading Basis Set <=

    Name: (AUG-CC-PV(T+D)Z AUX)
    Role: JKFIT
    Keyword: DF_BASIS_SCF
    atoms 1-2 entry CL         line   816 file /work/zw18965/.conda/envs/p4env/share/psi4/basis/aug-cc-pvtz-jkfit.gbs 

   => Loading Basis Set <=

    Name: AUG-CC-PV(T+D)Z
    Role: ORBITAL
    Keyword: BASIS
    atoms 1-2 entry CL         line  1012 file /work/zw18965/.conda/envs/p4env/share/psi4/basis/aug-cc-pv_tpd_z.gbs 

  Reading orbitals from file 180, no projection.

  ==> Pre-Iterations <==

   -------------------------------------------------------
    Irrep   Nso     Nmo     Nalpha   Nbeta   Ndocc  Nsocc
   -------------------------------------------------------
[...]
      20Ag     2.755950    11B3g    2.812413    11B2g    2.812413  
       5Au     2.892828    18B1u    2.892871    19B1u    2.994802  
      12B3g    3.102329    12B2g    3.102329    20B1u    4.026157  
      21Ag     5.130286    21B1u    6.454899     6B1g    8.254481  
      22Ag     8.254527    13B2u    8.287987    13B3u    8.287987  
       6Au     8.293977    22B1u    8.294023    13B3g    8.373594  
      13B2g    8.373594    23B1u    8.386998    23Ag     8.533927  

    Final Occupation by Irrep:
             Ag   B1g   B2g   B3g    Au   B1u   B2u   B3u 
    DOCC [     5,    0,    2,    2,    0,    4,    2,    2 ]

  @DF-RKS Final Energy:  -920.36526146168956

   => Energetics <=

    Nuclear Repulsion Energy =             76.8323644731511024
    One-Electron Energy =               -1422.9534660183066990
    Two-Electron Energy =                 469.2589330279253659
    DFT Exchange-Correlation Energy =     -43.6453920597556433
    Empirical Dispersion Energy =           0.0000000000000000
    VV10 Nonlocal Energy =                  0.1422991152962878
    Total Energy =                       -920.3652614616895562

Computation Completed


Properties will be evaluated at   0.000000,   0.000000,   0.000000 [a0]

Properties computed using the SCF density matrix

  Nuclear Dipole Moment: [e a0]
     X:     0.0000      Y:     0.0000      Z:    -0.0000

  Electronic Dipole Moment: [e a0]
     X:     0.0000      Y:     0.0000      Z:     0.0000

  Dipole Moment: [e a0]
     X:     0.0000      Y:     0.0000      Z:    -0.0000     Total:     0.0000

  Dipole Moment: [D]
     X:     0.0000      Y:     0.0000      Z:    -0.0000     Total:     0.0000


*** tstop() called on bp1-compute00190.data.bp.acrc.priv at Tue Apr 27 17:29:25 2021
Module time:
	user time   =      59.83 seconds =       1.00 minutes
	system time =       1.63 seconds =       0.03 minutes
	total time  =          3 seconds =       0.05 minutes
Total time:
	user time   =     729.92 seconds =      12.17 minutes
	system time =      21.45 seconds =       0.36 minutes
	total time  =         32 seconds =       0.53 minutes

  //>>>>>>>>>>>>>>>>>>>>>>>>>>>>>>>>>>>//
  //    Loading displacement 3 of 3    //
  //<<<<<<<<<<<<<<<<<<<<<<<<<<<<<<<<<<<//

*** tstart() called on bp1-compute00190.data.bp.acrc.priv
*** at Tue Apr 27 17:29:25 2021

   => Loading Basis Set <=

    Name: AUG-CC-PV(T+D)Z
    Role: ORBITAL
    Keyword: BASIS
    atoms 1-2 entry CL         line  1012 file /work/zw18965/.conda/envs/p4env/share/psi4/basis/aug-cc-pv_tpd_z.gbs 


         ---------------------------------------------------------
                                   SCF
               by Justin Turney, Rob Parrish, Andy Simmonett
                          and Daniel G. A. Smith
                              RKS Reference
                       24 Threads, 137329 MiB Core
         ---------------------------------------------------------

  ==> Geometry <==

    Molecular point group: d2h
    Full point group: D_inf_h

    Geometry (in Angstrom), charge = 0, multiplicity = 1:

       Center              X                  Y                   Z               Mass       
    ------------   -----------------  -----------------  -----------------  -----------------
         CL           0.000000000000     0.000000000000    -0.994600261225    34.968852682000
         CL           0.000000000000     0.000000000000     0.994600261225    34.968852682000

  Running in d2h symmetry.

  Rotational constants: A = ************  B =      0.24366  C =      0.24366 [cm^-1]
  Rotational constants: A = ************  B =   7304.80593  C =   7304.80593 [MHz]
  Nuclear repulsion =   76.881245584663020

  Charge       = 0
  Multiplicity = 1
  Electrons    = 34
  Nalpha       = 17
  Nbeta        = 17

  ==> Algorithm <==

  SCF Algorithm Type is DF.
  DIIS enabled.
  MOM disabled.
  Fractional occupation disabled.
  Guess Type is SAD.
  Energy threshold   = 1.00e-10
  Density threshold  = 1.00e-10
  Integral threshold = 0.00e+00

  ==> Primary Basis <==

  Basis Set: AUG-CC-PV(T+D)Z
    Blend: AUG-CC-PV(T+D)Z
    Number of shells: 34
    Number of basis function: 110
    Number of Cartesian functions: 130
    Spherical Harmonics?: true
    Max angular momentum: 3

  ==> DFT Potential <==

   => Composite Functional: WB97M-V <= 

    wB97M-V Hyb-GGA Exchange-Correlation Functional

    N. Mardirossian and M. Head-Gordon, J. Chem. Phys. 144, 214110 (2016)

    Deriv               =              1
    GGA                 =           TRUE
    Meta                =           TRUE

    Exchange Hybrid     =           TRUE
    MP2 Hybrid          =          FALSE

   => Exchange-Correlation Functionals <=

    1.0000   wB97M-V exchange-correlation functional

   => Exact (HF) Exchange <=

    0.8500            HF,LR [omega = 0.3000]
    0.1500               HF 

   => VV10 Non-Local Parameters <=

    VV10 B              =     6.0000E+00
    VV10 C              =     1.0000E-02

   => Molecular Quadrature <=

    Radial Scheme          =       TREUTLER
    Pruning Scheme         =           FLAT
    Nuclear Scheme         =       TREUTLER

    BS radius alpha        =              1
    Pruning alpha          =              1
    Radial Points          =             75
    Spherical Points       =            302
    Total Points           =          44810
    Total Blocks           =            422
    Max Points             =            254
    Max Functions          =            110

   => Loading Basis Set <=

    Name: (AUG-CC-PV(T+D)Z AUX)
    Role: JKFIT
    Keyword: DF_BASIS_SCF
    atoms 1-2 entry CL         line   816 file /work/zw18965/.conda/envs/p4env/share/psi4/basis/aug-cc-pvtz-jkfit.gbs 

  ==> Pre-Iterations <==

   -------------------------------------------------------
    Irrep   Nso     Nmo     Nalpha   Nbeta   Ndocc  Nsocc
   -------------------------------------------------------
     Ag        23      23       0       0       0       0
     B1g        6       6       0       0       0       0
     B2g       13      13       0       0       0       0
     B3g       13      13       0       0       0       0
     Au         6       6       0       0       0       0
     B1u       23      23       0       0       0       0
     B2u       13      13       0       0       0       0
     B3u       13      13       0       0       0       0
   -------------------------------------------------------
    Total     110     110      17      17      17       0
   -------------------------------------------------------

  ==> Integral Setup <==

  ==> DiskDFJK: Density-Fitted J/K Matrices <==

    J tasked:                  Yes
    K tasked:                  Yes
    wK tasked:                 Yes
    Omega:               3.000E-01
    OpenMP threads:             24
    Integrals threads:          24
    Memory [MiB]:           102669
    Algorithm:                Core
    Integral Cache:           NONE
    Schwarz Cutoff:          1E-12
    Fitting Condition:       1E-10

   => Auxiliary Basis Set <=

  Basis Set: (AUG-CC-PV(T+D)Z AUX)
    Blend: AUG-CC-PVTZ-JKFIT
    Number of shells: 84
    Number of basis function: 292
    Number of Cartesian functions: 360
    Spherical Harmonics?: true
    Max angular momentum: 4

  Cached 100.0% of DFT collocation blocks in 0.320 [GiB].

  Minimum eigenvalue in the overlap matrix is 4.4723391774E-04.
  Using Symmetric Orthogonalization.

  SCF Guess: Superposition of Atomic Densities via on-the-fly atomic UHF.

  ==> Iterations <==

                           Total Energy        Delta E     RMS |[F,P]|

   @DF-RKS iter SAD:  -920.24031997849329   -9.20240e+02   0.00000e+00 
   @DF-RKS iter   1:  -920.34774578502072   -1.07426e-01   5.26063e-03 DIIS
   @DF-RKS iter   2:  -920.36118127858003   -1.34355e-02   2.86740e-03 DIIS
   @DF-RKS iter   3:  -920.36513007161329   -3.94879e-03   3.71487e-04 DIIS
   @DF-RKS iter   4:  -920.36524422887385   -1.14157e-04   1.23359e-04 DIIS
   @DF-RKS iter   5:  -920.36526079797227   -1.65691e-05   1.75153e-05 DIIS
   @DF-RKS iter   6:  -920.36526141619458   -6.18222e-07   1.75752e-06 DIIS
   @DF-RKS iter   7:  -920.36526142245759   -6.26301e-09   2.60388e-07 DIIS
   @DF-RKS iter   8:  -920.36526142257196   -1.14369e-10   3.75142e-08 DIIS
   @DF-RKS iter   9:  -920.36526142257435   -2.38742e-12   2.20960e-09 DIIS
   @DF-RKS iter  10:  -920.36526142257458   -2.27374e-13   2.19825e-10 DIIS
   @DF-RKS iter  11:  -920.36526142257412    4.54747e-13   3.54095e-11 DIIS
  Energy and wave function converged.


  ==> Post-Iterations <==

    Orbital Energies [Eh]
    ---------------------

    Doubly Occupied:                                                      

       1B1u -101.949149     1Ag  -101.949145     2Ag    -9.702602  
       2B1u   -9.702561     3Ag    -7.410626     3B1u   -7.410495  
       1B2g   -7.397919     1B3g   -7.397919     1B3u   -7.397916  
       1B2u   -7.397916     4Ag    -1.060629     4B1u   -0.889048  
       5Ag    -0.566187     2B2u   -0.517094     2B3u   -0.517094  
       2B3g   -0.404433     2B2g   -0.404433  

    Virtual:                                                              

       5B1u   -0.035454     6B1u    0.065053     6Ag     0.078555  
       3B2u    0.083129     3B3u    0.083129     7Ag     0.105261  
       3B3g    0.113165     3B2g    0.113165     7B1u    0.222928  
       1B1g    0.236301     8Ag     0.236302     4B2u    0.261709  
       4B3u    0.261709     9Ag     0.335132     8B1u    0.349240  
       1Au     0.349240     9B1u    0.415812     4B3g    0.438696  
       4B2g    0.438696     5B2u    0.535947     5B3u    0.535947  
      10B1u    0.632505     5B3g    0.648812     5B2g    0.648812  
       6B2u    0.651405     6B3u    0.651405    10Ag     0.671908  
      11Ag     0.679142    12Ag     0.696071     2B1g    0.696077  
      11B1u    0.757598     2Au     0.757603    13Ag     0.760755  
       6B3g    0.819495     6B2g    0.819495    12B1u    0.906949  
       3B1g    0.990175    14Ag     0.990179     7B3u    0.997551  
       7B2u    0.997551     7B2g    1.140970     7B3g    1.140970  
       8B3u    1.257176     8B2u    1.257176    13B1u    1.274279  
       3Au     1.357450    14B1u    1.357474    15Ag     1.531086  
       8B3g    1.540288     8B2g    1.540288    15B1u    1.711770  
      16Ag     2.008743     4B1g    2.008776     9B2u    2.034972  
       9B3u    2.034972    16B1u    2.087353    17B1u    2.093461  
       4Au     2.093491     9B3g    2.245896     9B2g    2.245896  
      17Ag     2.333433    10B2u    2.372698    10B3u    2.372698  
      18Ag     2.472724    10B3g    2.604388    10B2g    2.604388  
      11B3u    2.716144    11B2u    2.716144    19Ag     2.719647  
      12B3u    2.754744    12B2u    2.754744     5B1g    2.755686  
      20Ag     2.755712    11B2g    2.812457    11B3g    2.812457  
       5Au     2.893128    18B1u    2.893170    19B1u    2.995321  
      12B3g    3.103287    12B2g    3.103287    20B1u    4.028759  
      21Ag     5.131501    21B1u    6.455456     6B1g    8.254517  
      22Ag     8.254564    13B2u    8.288202    13B3u    8.288202  
       6Au     8.294030    22B1u    8.294076    13B3g    8.373686  
      13B2g    8.373686    23B1u    8.386534    23Ag     8.534096  

    Final Occupation by Irrep:
             Ag   B1g   B2g   B3g    Au   B1u   B2u   B3u 
    DOCC [     5,    0,    2,    2,    0,    4,    2,    2 ]

  @DF-RKS Final Energy:  -920.36526142257412

   => Energetics <=

    Nuclear Repulsion Energy =             76.8812455846630201
    One-Electron Energy =               -1423.0510451826880853
    Two-Electron Energy =                 469.3080197420106856
    DFT Exchange-Correlation Energy =     -43.6457782844077258
    Empirical Dispersion Energy =           0.0000000000000000
    VV10 Nonlocal Energy =                  0.1422967178479733
    Total Energy =                       -920.3652614225741218

Computation Completed


Properties will be evaluated at   0.000000,   0.000000,   0.000000 [a0]

Properties computed using the SCF density matrix

  Nuclear Dipole Moment: [e a0]
     X:     0.0000      Y:     0.0000      Z:     0.0000

  Electronic Dipole Moment: [e a0]
     X:     0.0000      Y:     0.0000      Z:     0.0000

  Dipole Moment: [e a0]
     X:     0.0000      Y:     0.0000      Z:     0.0000     Total:     0.0000

  Dipole Moment: [D]
     X:     0.0000      Y:     0.0000      Z:     0.0000     Total:     0.0000


*** tstop() called on bp1-compute00190.data.bp.acrc.priv at Tue Apr 27 17:29:28 2021
Module time:
	user time   =      60.49 seconds =       1.01 minutes
	system time =       1.42 seconds =       0.02 minutes
	total time  =          3 seconds =       0.05 minutes
Total time:
	user time   =     790.54 seconds =      13.18 minutes
	system time =      22.87 seconds =       0.38 minutes
	total time  =         35 seconds =       0.58 minutes

         ----------------------------------------------------------
                                   FINDIF
                     R. A. King and Jonathon Misiewicz
         ---------------------------------------------------------

  Computing second-derivative from energies using projected, 
  symmetry-adapted, cartesian coordinates.

  3 energies passed in, including the reference geometry.
    Using 3-point formula.
    Energy without displacement: -920.3652616025
    Check energies below for precision!
    0: -1 :      -920.3652614617
    0: 1  :      -920.3652614226

-------------------------------------------------------------


  ==> Harmonic Vibrational Analysis <==

  non-mass-weighted Hessian:       Symmetric? True   Hermitian? True   Lin Dep Dim?  5 (0)
  projection of translations (True) and rotations (True) removed 5 degrees of freedom (5)
  total projector:                 Symmetric? True   Hermitian? True   Lin Dep Dim?  5 (5)
  mass-weighted Hessian:           Symmetric? True   Hermitian? True   Lin Dep Dim?  5 (0)
  pre-proj  low-frequency mode:    0.0000  [cm^-1]
  pre-proj  low-frequency mode:    0.0000  [cm^-1]
  pre-proj  low-frequency mode:    0.0000  [cm^-1]
  pre-proj  low-frequency mode:    0.0000  [cm^-1]
  pre-proj  low-frequency mode:    0.0000  [cm^-1]
  pre-proj  all modes:['0.0000' '0.0000' '0.0000' '0.0000' '0.0000' '582.2682']
  projected mass-weighted Hessian: Symmetric? True   Hermitian? True   Lin Dep Dim?  5 (5)
  post-proj low-frequency mode:    0.0000  [cm^-1] (TR)
  post-proj low-frequency mode:    0.0000  [cm^-1] (TR)
  post-proj low-frequency mode:    0.0000  [cm^-1] (TR)
  post-proj low-frequency mode:    0.0000  [cm^-1] (TR)
  post-proj low-frequency mode:    0.0000  [cm^-1] (TR)
  post-proj  all modes:['0.0000' '0.0000' '0.0000' '0.0000' '0.0000' '582.2682']

  Vibration                       6           
  Freq [cm^-1]                 582.2682       
  Irrep                           Ag          
  Reduced mass [u]             34.9689        
  Force const [mDyne/A]         6.9852        
  Turning point v=0 [a0]        0.0769        
  RMS dev v=0 [a0 u^1/2]        0.3215        
  Char temp [K]                837.7543       
  ----------------------------------------------------------------------------------
      1   CL               0.00  0.00  0.71   
      2   CL               0.00  0.00 -0.71   

  ==> Thermochemistry Components <==

  Entropy, S
    Electronic S            0.000 [cal/(mol K)]        0.000 [J/(mol K)]       0.00000000 [mEh/K] (multiplicity = 1)
    Translational S        38.652 [cal/(mol K)]      161.721 [J/(mol K)]       0.06159614 [mEh/K] (mol. weight = 69.9377 [u], P = 101325.00 [Pa])
    Rotational S           14.016 [cal/(mol K)]       58.644 [J/(mol K)]       0.02233635 [mEh/K] (symmetry no. = 2)
    Vibrational S           0.481 [cal/(mol K)]        2.013 [J/(mol K)]       0.00076680 [mEh/K]
  Total S                  53.150 [cal/(mol K)]      222.378 [J/(mol K)]       0.08469929 [mEh/K]
  Correction S              0.000 [cal/(mol K)]        0.000 [J/(mol K)]       0.00000000 [mEh/K]

  Constant volume heat capacity, Cv
    Electronic Cv           0.000 [cal/(mol K)]        0.000 [J/(mol K)]       0.00000000 [mEh/K]
    Translational Cv        2.981 [cal/(mol K)]       12.472 [J/(mol K)]       0.00475022 [mEh/K]
    Rotational Cv           1.987 [cal/(mol K)]        8.314 [J/(mol K)]       0.00316681 [mEh/K]
    Vibrational Cv          1.070 [cal/(mol K)]        4.475 [J/(mol K)]       0.00170463 [mEh/K]
  Total Cv                  6.038 [cal/(mol K)]       25.262 [J/(mol K)]       0.00962165 [mEh/K]
  Correction Cv             0.000 [cal/(mol K)]        0.000 [J/(mol K)]       0.00000000 [mEh/K]

  Constant pressure heat capacity, Cp
    Electronic Cp           0.000 [cal/(mol K)]        0.000 [J/(mol K)]       0.00000000 [mEh/K]
    Translational Cp        4.968 [cal/(mol K)]       20.786 [J/(mol K)]       0.00791703 [mEh/K]
    Rotational Cp           1.987 [cal/(mol K)]        8.314 [J/(mol K)]       0.00316681 [mEh/K]
    Vibrational Cp          1.070 [cal/(mol K)]        4.475 [J/(mol K)]       0.00170463 [mEh/K]
  Total Cp                  8.025 [cal/(mol K)]       33.576 [J/(mol K)]       0.01278846 [mEh/K]
  Correction Cp             0.000 [cal/(mol K)]        0.000 [J/(mol K)]       0.00000000 [mEh/K]

  ==> Thermochemistry Energy Analysis <==

  Raw electronic energy, E0
  Total E0, Electronic energy at well bottom at 0 [K]                 -920.36526160 [Eh]

  Zero-point energy, ZPE_vib = Sum_i nu_i / 2
    Electronic ZPE          0.000 [kcal/mol]        0.000 [kJ/mol]       0.00000000 [Eh]
    Translational ZPE       0.000 [kcal/mol]        0.000 [kJ/mol]       0.00000000 [Eh]
    Rotational ZPE          0.000 [kcal/mol]        0.000 [kJ/mol]       0.00000000 [Eh]
    Vibrational ZPE         0.832 [kcal/mol]        3.483 [kJ/mol]       0.00132650 [Eh]         291.134 [cm^-1]
  Correction ZPE            0.832 [kcal/mol]        3.483 [kJ/mol]       0.00132650 [Eh]         291.134 [cm^-1]
  Total ZPE, Electronic energy at 0 [K]                               -920.36393510 [Eh]

  Thermal Energy, E (includes ZPE)
    Electronic E            0.000 [kcal/mol]        0.000 [kJ/mol]       0.00000000 [Eh]
    Translational E         0.889 [kcal/mol]        3.718 [kJ/mol]       0.00141628 [Eh]
    Rotational E            0.592 [kcal/mol]        2.479 [kJ/mol]       0.00094418 [Eh]
    Vibrational E           0.939 [kcal/mol]        3.929 [kJ/mol]       0.00149649 [Eh]
  Correction E              2.420 [kcal/mol]       10.126 [kJ/mol]       0.00385695 [Eh]
  Total E, Electronic energy at  298.15 [K]                           -920.36140465 [Eh]

  Enthalpy, H_trans = E_trans + k_B * T
    Electronic H            0.000 [kcal/mol]        0.000 [kJ/mol]       0.00000000 [Eh]
    Translational H         1.481 [kcal/mol]        6.197 [kJ/mol]       0.00236046 [Eh]
    Rotational H            0.592 [kcal/mol]        2.479 [kJ/mol]       0.00094418 [Eh]
    Vibrational H           0.939 [kcal/mol]        3.929 [kJ/mol]       0.00149649 [Eh]
  Correction H              3.013 [kcal/mol]       12.605 [kJ/mol]       0.00480114 [Eh]
  Total H, Enthalpy at  298.15 [K]                                    -920.36046047 [Eh]

  Gibbs free energy, G = H - T * S
    Electronic G            0.000 [kcal/mol]        0.000 [kJ/mol]       0.00000000 [Eh]
    Translational G       -10.043 [kcal/mol]      -42.020 [kJ/mol]      -0.01600443 [Eh]
    Rotational G           -3.586 [kcal/mol]      -15.006 [kJ/mol]      -0.00571540 [Eh]
    Vibrational G           0.796 [kcal/mol]        3.329 [kJ/mol]       0.00126787 [Eh]
  Correction G            -12.834 [kcal/mol]      -53.697 [kJ/mol]      -0.02045196 [Eh]
  Total G, Free enthalpy at  298.15 [K]                               -920.38571356 [Eh]

    Psi4 stopped on: Tuesday, 27 April 2021 05:29PM
    Psi4 wall time for execution: 0:00:34.98

*** Psi4 exiting successfully. Buy a developer a beer!
