
    -----------------------------------------------------------------------
          Psi4: An Open-Source Ab Initio Electronic Structure Package
                               Psi4 1.3.2 release

                         Git: Rev {HEAD} ecbda83 


    R. M. Parrish, L. A. Burns, D. G. A. Smith, A. C. Simmonett,
    A. E. DePrince III, E. G. Hohenstein, U. Bozkaya, A. Yu. Sokolov,
    R. Di Remigio, R. M. Richard, J. F. Gonthier, A. M. James,
    H. R. McAlexander, A. Kumar, M. Saitow, X. Wang, B. P. Pritchard,
    P. Verma, H. F. Schaefer III, K. Patkowski, R. A. King, E. F. Valeev,
    F. A. Evangelista, J. M. Turney, T. D. Crawford, and C. D. Sherrill,
    J. Chem. Theory Comput. 13(7) pp 3185--3197 (2017).
    (doi: 10.1021/acs.jctc.7b00174)


                         Additional Contributions by
    P. Kraus, H. Kruse, M. H. Lechner, M. C. Schieber, R. A. Shaw,
    A. Alenaizan, R. Galvelis, Z. L. Glick, S. Lehtola, and J. P. Misiewicz

    -----------------------------------------------------------------------


    Psi4 started on: Tuesday, 27 April 2021 05:29PM

    Process ID: 184782
    Host:       bp1-compute00116.data.bp.acrc.priv
    PSIDATADIR: /work/zw18965/.conda/envs/p4env/share/psi4
    Memory:     500.0 MiB
    Threads:    24
    
  ==> Input File <==

--------------------------------------------------------------------------
memory 144 GB

molecule {
0 1
Cl 0.0000000000 0.0000000000 0.0000000000
F 0.0000000000 0.0000000000 1.6318233300
}

set dynamic_level 1
set basis aug-cc-pV(T+d)Z
 
optimize("wB97M-V")
frequencies("wB97M-V")
--------------------------------------------------------------------------

  Memory set to 134.110 GiB by Python driver.
gradient() will perform gradient computation by finite difference of analytic energies.

         ----------------------------------------------------------
                                   FINDIF
                     R. A. King and Jonathon Misiewicz
         ---------------------------------------------------------

  Using finite-differences of energies to determine gradients.
    Generating geometries for use with 3-point formula.
    Displacement size will be 5.00e-03.
    Number of atoms is 2.
    Number of symmetric SALCs is 1.
    Translations projected? 1. Rotations projected? 1.
    Number of geometries (including reference) is 3.

  //>>>>>>>>>>>>>>>>>>>>>>>>>>>>>>>>>>>//
  //    Loading displacement 1 of 3    //
  //<<<<<<<<<<<<<<<<<<<<<<<<<<<<<<<<<<<//

*** tstart() called on bp1-compute00116.data.bp.acrc.priv
*** at Tue Apr 27 17:29:57 2021

   => Loading Basis Set <=

    Name: AUG-CC-PV(T+D)Z
    Role: ORBITAL
    Keyword: BASIS
    atoms 1 entry CL         line  1012 file /work/zw18965/.conda/envs/p4env/share/psi4/basis/aug-cc-pv_tpd_z.gbs 
    atoms 2 entry F          line   393 file /work/zw18965/.conda/envs/p4env/share/psi4/basis/aug-cc-pv_tpd_z.gbs 


         ---------------------------------------------------------
                                   SCF
               by Justin Turney, Rob Parrish, Andy Simmonett
                          and Daniel G. A. Smith
                              RKS Reference
                       24 Threads, 137329 MiB Core
         ---------------------------------------------------------

  ==> Geometry <==

    Molecular point group: c2v
    Full point group: C_inf_v

    Geometry (in Angstrom), charge = 0, multiplicity = 1:

       Center              X                  Y                   Z               Mass       
    ------------   -----------------  -----------------  -----------------  -----------------
         CL           0.000000000000     0.000000000000    -0.574460143071    34.968852682000
         F            0.000000000000     0.000000000000     1.057363186929    18.998403162730

  Running in c2v symmetry.

  Rotational constants: A = ************  B =      0.51426  C =      0.51426 [cm^-1]
  Rotational constants: A = ************  B =  15417.10307  C =  15417.10307 [MHz]
  Nuclear repulsion =   49.615734585992229

  Charge       = 0
  Multiplicity = 1
  Electrons    = 26
  Nalpha       = 13
  Nbeta        = 13

  ==> Algorithm <==

  SCF Algorithm Type is DF.
  DIIS enabled.
  MOM disabled.
  Fractional occupation disabled.
  Guess Type is SAD.
  Energy threshold   = 1.00e-08
  Density threshold  = 1.00e-08
  Integral threshold = 0.00e+00

  ==> Primary Basis <==

  Basis Set: AUG-CC-PV(T+D)Z
    Blend: AUG-CC-PV(T+D)Z
    Number of shells: 31
    Number of basis function: 101
    Number of Cartesian functions: 120
    Spherical Harmonics?: true
    Max angular momentum: 3

  ==> DFT Potential <==

   => Composite Functional: WB97M-V <= 

    wB97M-V Hyb-GGA Exchange-Correlation Functional

    N. Mardirossian and M. Head-Gordon, J. Chem. Phys. 144, 214110 (2016)

    Deriv               =              1
    GGA                 =           TRUE
    Meta                =           TRUE

    Exchange Hybrid     =           TRUE
    MP2 Hybrid          =          FALSE

   => Exchange-Correlation Functionals <=

    1.0000   wB97M-V exchange-correlation functional

   => Exact (HF) Exchange <=

    0.8500            HF,LR [omega = 0.3000]
    0.1500               HF 

   => VV10 Non-Local Parameters <=

    VV10 B              =     6.0000E+00
    VV10 C              =     1.0000E-02

   => Molecular Quadrature <=

    Radial Scheme          =       TREUTLER
    Pruning Scheme         =           FLAT
    Nuclear Scheme         =       TREUTLER

    BS radius alpha        =              1
    Pruning alpha          =              1
    Radial Points          =             75
    Spherical Points       =            302
    Total Points           =          45035
    Total Blocks           =            420
    Max Points             =            256
    Max Functions          =            101

   => Loading Basis Set <=

    Name: (AUG-CC-PV(T+D)Z AUX)
    Role: JKFIT
    Keyword: DF_BASIS_SCF
    atoms 1 entry CL         line   816 file /work/zw18965/.conda/envs/p4env/share/psi4/basis/aug-cc-pvtz-jkfit.gbs 
    atoms 2 entry F          line   348 file /work/zw18965/.conda/envs/p4env/share/psi4/basis/aug-cc-pvtz-jkfit.gbs 

  ==> Pre-Iterations <==

   -------------------------------------------------------
    Irrep   Nso     Nmo     Nalpha   Nbeta   Ndocc  Nsocc
   -------------------------------------------------------
     A1        42      42       0       0       0       0
     A2        11      11       0       0       0       0
     B1        24      24       0       0       0       0
     B2        24      24       0       0       0       0
   -------------------------------------------------------
    Total     101     101      13      13      13       0
   -------------------------------------------------------

  ==> Integral Setup <==

  ==> DiskDFJK: Density-Fitted J/K Matrices <==

    J tasked:                  Yes
    K tasked:                  Yes
    wK tasked:                 Yes
    Omega:               3.000E-01
    OpenMP threads:             24
    Integrals threads:          24
    Memory [MiB]:           102693
    Algorithm:                Core
    Integral Cache:           NONE
    Schwarz Cutoff:          1E-12
    Fitting Condition:       1E-10

   => Auxiliary Basis Set <=

  Basis Set: (AUG-CC-PV(T+D)Z AUX)
    Blend: AUG-CC-PVTZ-JKFIT
    Number of shells: 72
    Number of basis function: 250
    Number of Cartesian functions: 311
    Spherical Harmonics?: true
    Max angular momentum: 4

  Cached 100.0% of DFT collocation blocks in 0.296 [GiB].

  Minimum eigenvalue in the overlap matrix is 1.0040372003E-03.
  Using Symmetric Orthogonalization.

  SCF Guess: Superposition of Atomic Densities via on-the-fly atomic UHF.

  ==> Iterations <==

                           Total Energy        Delta E     RMS |[F,P]|

   @DF-RKS iter SAD:  -559.73087145660975   -5.59731e+02   0.00000e+00 
   @DF-RKS iter   1:  -559.95339653788540   -2.22525e-01   4.87789e-03 DIIS
   @DF-RKS iter   2:  -559.96635175670292   -1.29552e-02   3.66598e-03 DIIS
   @DF-RKS iter   3:  -559.97563247210417   -9.28072e-03   1.09642e-03 DIIS
   @DF-RKS iter   4:  -559.97666067832586   -1.02821e-03   1.76688e-04 DIIS
   @DF-RKS iter   5:  -559.97671113564411   -5.04573e-05   5.17245e-05 DIIS
   @DF-RKS iter   6:  -559.97671564585016   -4.51021e-06   9.89691e-06 DIIS
   @DF-RKS iter   7:  -559.97671599124385   -3.45394e-07   2.46313e-06 DIIS
   @DF-RKS iter   8:  -559.97671600784167   -1.65978e-08   7.16630e-07 DIIS
   @DF-RKS iter   9:  -559.97671600885428   -1.01261e-09   6.66744e-08 DIIS
   @DF-RKS iter  10:  -559.97671600886997   -1.56888e-11   8.36955e-09 DIIS
  Energy and wave function converged.


  ==> Post-Iterations <==

    Orbital Energies [Eh]
    ---------------------

    Doubly Occupied:                                                      

       1A1  -101.981233     2A1   -24.964667     3A1    -9.731671  
       4A1    -7.442429     1B2    -7.425804     1B1    -7.425804  
       5A1    -1.380540     6A1    -0.962028     7A1    -0.642741  
       2B2    -0.606515     2B1    -0.606515     3B2    -0.436885  
       3B1    -0.436885  

    Virtual:                                                              

       8A1    -0.032714     9A1     0.071474     4B2     0.083209  
       4B1     0.083209    10A1     0.088936    11A1     0.180213  
       5B2     0.199390     5B1     0.199390     1A2     0.271940  
      12A1     0.271941    13A1     0.337960     6B1     0.340463  
       6B2     0.340463    14A1     0.406558     7B1     0.541988  
       7B2     0.541988    15A1     0.578166    16A1     0.709701  
       2A2     0.709702     8B2     0.710265     8B1     0.710265  
      17A1     0.746297    18A1     0.808245     3A2     0.808249  
      19A1     0.865685     9B2     0.979481     9B1     0.979481  
      10B1     1.056541    10B2     1.056541    20A1     1.096622  
      11B1     1.106166    11B2     1.106166     4A2     1.191878  
      21A1     1.191883    22A1     1.200991    12B2     1.479774  
      12B1     1.479774    23A1     1.527547     5A2     2.017397  
      24A1     2.017410    25A1     2.109346    26A1     2.131568  
      13B2     2.134051    13B1     2.134051    14B1     2.341762  
      14B2     2.341762    15B1     2.561292    15B2     2.561292  
       6A2     2.576281    27A1     2.576302    28A1     2.611443  
      16B2     2.709651    16B1     2.709651    17B2     2.783367  
      17B1     2.783367     7A2     2.809285    29A1     2.809290  
      30A1     2.943433    31A1     2.944072     8A2     2.944080  
      18B1     2.992669    18B2     2.992669    32A1     3.461553  
      19B1     3.584513    19B2     3.584513    33A1     3.728330  
      20B1     4.897338    20B2     4.897338    34A1     5.213358  
      35A1     5.867243     9A2     8.245580    36A1     8.245585  
      21B1     8.286137    21B2     8.286137    37A1     8.335614  
      22B1     8.386935    22B2     8.386935    38A1     8.456658  
      10A2     8.456703    23B1     8.746921    23B2     8.746921  
      39A1     8.778259    40A1     8.815710    11A2     8.815811  
      24B1     8.906718    24B2     8.906718    41A1     9.308912  
      42A1    13.626023  

    Final Occupation by Irrep:
             A1    A2    B1    B2 
    DOCC [     7,    0,    3,    3 ]

  @DF-RKS Final Energy:  -559.97671600886997

   => Energetics <=

    Nuclear Repulsion Energy =             49.6157345859922287
    One-Electron Energy =                -872.6307874925777242
    Two-Electron Energy =                 292.4388425548731902
    DFT Exchange-Correlation Energy =     -29.5103499878005522
    Empirical Dispersion Energy =           0.0000000000000000
    VV10 Nonlocal Energy =                  0.1098443306429334
    Total Energy =                       -559.9767160088699711

Computation Completed


Properties will be evaluated at   0.000000,   0.000000,   0.000000 [a0]

Properties computed using the SCF density matrix

  Nuclear Dipole Moment: [e a0]
     X:     0.0000      Y:     0.0000      Z:    -0.4716

  Electronic Dipole Moment: [e a0]
     X:     0.0000      Y:     0.0000      Z:     0.1208

  Dipole Moment: [e a0]
     X:     0.0000      Y:     0.0000      Z:    -0.3508     Total:     0.3508

  Dipole Moment: [D]
     X:     0.0000      Y:     0.0000      Z:    -0.8916     Total:     0.8916


*** tstop() called on bp1-compute00116.data.bp.acrc.priv at Tue Apr 27 17:30:00 2021
Module time:
	user time   =      62.23 seconds =       1.04 minutes
	system time =       3.83 seconds =       0.06 minutes
	total time  =          3 seconds =       0.05 minutes
Total time:
	user time   =      62.23 seconds =       1.04 minutes
	system time =       3.83 seconds =       0.06 minutes
	total time  =          3 seconds =       0.05 minutes

  //>>>>>>>>>>>>>>>>>>>>>>>>>>>>>>>>>>>//
  //    Loading displacement 2 of 3    //
  //<<<<<<<<<<<<<<<<<<<<<<<<<<<<<<<<<<<//

*** tstart() called on bp1-compute00116.data.bp.acrc.priv
*** at Tue Apr 27 17:30:00 2021

   => Loading Basis Set <=

    Name: AUG-CC-PV(T+D)Z
    Role: ORBITAL
    Keyword: BASIS
    atoms 1 entry CL         line  1012 file /work/zw18965/.conda/envs/p4env/share/psi4/basis/aug-cc-pv_tpd_z.gbs 
    atoms 2 entry F          line   393 file /work/zw18965/.conda/envs/p4env/share/psi4/basis/aug-cc-pv_tpd_z.gbs 


         ---------------------------------------------------------
                                   SCF
               by Justin Turney, Rob Parrish, Andy Simmonett
                          and Daniel G. A. Smith
                              RKS Reference
                       24 Threads, 137329 MiB Core
         ---------------------------------------------------------

  ==> Geometry <==

    Molecular point group: c2v
    Full point group: C_inf_v

    Geometry (in Angstrom), charge = 0, multiplicity = 1:

       Center              X                  Y                   Z               Mass       
    ------------   -----------------  -----------------  -----------------  -----------------
         CL           0.000000000000     0.000000000000    -0.574725618192    34.968852682000
         F            0.000000000000     0.000000000000     1.057851825912    18.998403162730

  Running in c2v symmetry.

  Rotational constants: A = ************  B =      0.51378  C =      0.51378 [cm^-1]
  Rotational constants: A = ************  B =  15402.86354  C =  15402.86354 [MHz]
  Nuclear repulsion =   49.592816270318309

  Charge       = 0
  Multiplicity = 1
  Electrons    = 26
  Nalpha       = 13
  Nbeta        = 13

  ==> Algorithm <==

  SCF Algorithm Type is DF.
  DIIS enabled.
  MOM disabled.
  Fractional occupation disabled.
  Guess Type is SAD.
  Energy threshold   = 1.00e-08
  Density threshold  = 1.00e-08
  Integral threshold = 0.00e+00

  ==> Primary Basis <==

  Basis Set: AUG-CC-PV(T+D)Z
    Blend: AUG-CC-PV(T+D)Z
    Number of shells: 31
    Number of basis function: 101
    Number of Cartesian functions: 120
    Spherical Harmonics?: true
    Max angular momentum: 3

  ==> DFT Potential <==

   => Composite Functional: WB97M-V <= 

    wB97M-V Hyb-GGA Exchange-Correlation Functional

    N. Mardirossian and M. Head-Gordon, J. Chem. Phys. 144, 214110 (2016)

    Deriv               =              1
    GGA                 =           TRUE
    Meta                =           TRUE

    Exchange Hybrid     =           TRUE
    MP2 Hybrid          =          FALSE

   => Exchange-Correlation Functionals <=

    1.0000   wB97M-V exchange-correlation functional

   => Exact (HF) Exchange <=

    0.8500            HF,LR [omega = 0.3000]
    0.1500               HF 

   => VV10 Non-Local Parameters <=

    VV10 B              =     6.0000E+00
    VV10 C              =     1.0000E-02

   => Molecular Quadrature <=

    Radial Scheme          =       TREUTLER
    Pruning Scheme         =           FLAT
    Nuclear Scheme         =       TREUTLER

    BS radius alpha        =              1
    Pruning alpha          =              1
    Radial Points          =             75
    Spherical Points       =            302
    Total Points           =          45035
    Total Blocks           =            420
    Max Points             =            256
    Max Functions          =            101

   => Loading Basis Set <=

    Name: (AUG-CC-PV(T+D)Z AUX)
    Role: JKFIT
    Keyword: DF_BASIS_SCF
    atoms 1 entry CL         line   816 file /work/zw18965/.conda/envs/p4env/share/psi4/basis/aug-cc-pvtz-jkfit.gbs 
    atoms 2 entry F          line   348 file /work/zw18965/.conda/envs/p4env/share/psi4/basis/aug-cc-pvtz-jkfit.gbs 

  ==> Pre-Iterations <==

   -------------------------------------------------------
    Irrep   Nso     Nmo     Nalpha   Nbeta   Ndocc  Nsocc
   -------------------------------------------------------
     A1        42      42       0       0       0       0
     A2        11      11       0       0       0       0
     B1        24      24       0       0       0       0
     B2        24      24       0       0       0       0
   -------------------------------------------------------
    Total     101     101      13      13      13       0
   -------------------------------------------------------

  ==> Integral Setup <==

  ==> DiskDFJK: Density-Fitted J/K Matrices <==

    J tasked:                  Yes
    K tasked:                  Yes
    wK tasked:                 Yes
    Omega:               3.000E-01
    OpenMP threads:             24
    Integrals threads:          24
    Memory [MiB]:           102693
    Algorithm:                Core
    Integral Cache:           NONE
    Schwarz Cutoff:          1E-12
    Fitting Condition:       1E-10

   => Auxiliary Basis Set <=

  Basis Set: (AUG-CC-PV(T+D)Z AUX)
    Blend: AUG-CC-PVTZ-JKFIT
    Number of shells: 72
    Number of basis function: 250
    Number of Cartesian functions: 311
    Spherical Harmonics?: true
    Max angular momentum: 4

  Cached 100.0% of DFT collocation blocks in 0.296 [GiB].

  Minimum eigenvalue in the overlap matrix is 1.0059377780E-03.
  Using Symmetric Orthogonalization.

  SCF Guess: Superposition of Atomic Densities via on-the-fly atomic UHF.

  ==> Iterations <==

                           Total Energy        Delta E     RMS |[F,P]|

   @DF-RKS iter SAD:  -559.72978075070159   -5.59730e+02   0.00000e+00 
   @DF-RKS iter   1:  -559.95340393769709   -2.23623e-01   4.87664e-03 DIIS
   @DF-RKS iter   2:  -559.96631621009760   -1.29123e-02   3.67016e-03 DIIS
   @DF-RKS iter   3:  -559.97562461940333   -9.30841e-03   1.09747e-03 DIIS
   @DF-RKS iter   4:  -559.97665505850910   -1.03044e-03   1.76478e-04 DIIS
   @DF-RKS iter   5:  -559.97670541514060   -5.03566e-05   5.17061e-05 DIIS
   @DF-RKS iter   6:  -559.97670992111262   -4.50597e-06   9.89569e-06 DIIS
   @DF-RKS iter   7:  -559.97671026631758   -3.45205e-07   2.46149e-06 DIIS
   @DF-RKS iter   8:  -559.97671028290029   -1.65827e-08   7.17651e-07 DIIS
   @DF-RKS iter   9:  -559.97671028391539   -1.01511e-09   6.66543e-08 DIIS
   @DF-RKS iter  10:  -559.97671028393052   -1.51203e-11   8.37367e-09 DIIS
  Energy and wave function converged.


  ==> Post-Iterations <==

    Orbital Energies [Eh]
    ---------------------

    Doubly Occupied:                                                      

       1A1  -101.981294     2A1   -24.964636     3A1    -9.731723  
       4A1    -7.442482     1B1    -7.425857     1B2    -7.425857  
       5A1    -1.380265     6A1    -0.962082     7A1    -0.642602  
       2B1    -0.606346     2B2    -0.606346     3B1    -0.436978  
       3B2    -0.436978  

    Virtual:                                                              

       8A1    -0.032971     9A1     0.071484     4B2     0.083211  
       4B1     0.083211    10A1     0.088877    11A1     0.180207  
       5B2     0.199398     5B1     0.199398     1A2     0.271934  
      12A1     0.271934    13A1     0.337980     6B2     0.340388  
       6B1     0.340388    14A1     0.406421     7B2     0.541988  
       7B1     0.541988    15A1     0.578210    16A1     0.709691  
       2A2     0.709692     8B2     0.710237     8B1     0.710237  
      17A1     0.746214    18A1     0.808223     3A2     0.808227  
      19A1     0.865631     9B1     0.979498     9B2     0.979498  
      10B1     1.056528    10B2     1.056528    20A1     1.096333  
      11B1     1.105874    11B2     1.105874     4A2     1.191734  
      21A1     1.191739    22A1     1.201245    12B1     1.479754  
      12B2     1.479754    23A1     1.527291     5A2     2.017358  
      24A1     2.017372    25A1     2.108922    26A1     2.131753  
      13B2     2.133930    13B1     2.133930    14B1     2.341549  
      14B2     2.341549    15B2     2.561378    15B1     2.561378  
       6A2     2.576567    27A1     2.576588    28A1     2.610856  
      16B2     2.709653    16B1     2.709653    17B2     2.783399  
      17B1     2.783399     7A2     2.809220    29A1     2.809225  
      30A1     2.943131    31A1     2.943613     8A2     2.943622  
      18B2     2.992223    18B1     2.992223    32A1     3.460060  
      19B1     3.583733    19B2     3.583733    33A1     3.729422  
      20B1     4.897312    20B2     4.897312    34A1     5.213020  
      35A1     5.864718     9A2     8.245524    36A1     8.245529  
      21B2     8.286067    21B1     8.286067    37A1     8.334928  
      22B1     8.387011    22B2     8.387011    38A1     8.456594  
      10A2     8.456639    23B1     8.746475    23B2     8.746475  
      39A1     8.778988    40A1     8.815740    11A2     8.815841  
      24B2     8.906640    24B1     8.906640    41A1     9.307521  
      42A1    13.623635  

    Final Occupation by Irrep:
             A1    A2    B1    B2 
    DOCC [     7,    0,    3,    3 ]

  @DF-RKS Final Energy:  -559.97671028393052

   => Energetics <=

    Nuclear Repulsion Energy =             49.5928162703183091
    One-Electron Energy =                -872.5856458541111351
    Two-Electron Energy =                 292.4163355606421533
    DFT Exchange-Correlation Energy =     -29.5100618621260296
    Empirical Dispersion Energy =           0.0000000000000000
    VV10 Nonlocal Energy =                  0.1098456013461390
    Total Energy =                       -559.9767102839305153

Computation Completed


Properties will be evaluated at   0.000000,   0.000000,   0.000000 [a0]

Properties computed using the SCF density matrix

  Nuclear Dipole Moment: [e a0]
     X:     0.0000      Y:     0.0000      Z:    -0.4718

  Electronic Dipole Moment: [e a0]
     X:     0.0000      Y:     0.0000      Z:     0.1201

  Dipole Moment: [e a0]
     X:     0.0000      Y:     0.0000      Z:    -0.3517     Total:     0.3517

  Dipole Moment: [D]
     X:     0.0000      Y:     0.0000      Z:    -0.8940     Total:     0.8940


*** tstop() called on bp1-compute00116.data.bp.acrc.priv at Tue Apr 27 17:30:03 2021
Module time:
	user time   =      66.89 seconds =       1.11 minutes
	system time =       2.94 seconds =       0.05 minutes
	total time  =          3 seconds =       0.05 minutes
Total time:
	user time   =     129.25 seconds =       2.15 minutes
	system time =       6.78 seconds =       0.11 minutes
	total time  =          6 seconds =       0.10 minutes

  //>>>>>>>>>>>>>>>>>>>>>>>>>>>>>>>>>>>//
  //    Loading displacement 3 of 3    //
  //<<<<<<<<<<<<<<<<<<<<<<<<<<<<<<<<<<<//

*** tstart() called on bp1-compute00116.data.bp.acrc.priv
*** at Tue Apr 27 17:30:03 2021

   => Loading Basis Set <=

    Name: AUG-CC-PV(T+D)Z
    Role: ORBITAL
    Keyword: BASIS
    atoms 1 entry CL         line  1012 file /work/zw18965/.conda/envs/p4env/share/psi4/basis/aug-cc-pv_tpd_z.gbs 
    atoms 2 entry F          line   393 file /work/zw18965/.conda/envs/p4env/share/psi4/basis/aug-cc-pv_tpd_z.gbs 


         ---------------------------------------------------------
                                   SCF
               by Justin Turney, Rob Parrish, Andy Simmonett
                          and Daniel G. A. Smith
                              RKS Reference
                       24 Threads, 137329 MiB Core
         ---------------------------------------------------------

  ==> Geometry <==

    Molecular point group: c2v
    Full point group: C_inf_v

    Geometry (in Angstrom), charge = 0, multiplicity = 1:

       Center              X                  Y                   Z               Mass       
    ------------   -----------------  -----------------  -----------------  -----------------
         CL           0.000000000000     0.000000000000    -0.574194667950    34.968852682000
         F            0.000000000000     0.000000000000     1.056874547947    18.998403162730

  Running in c2v symmetry.

  Rotational constants: A = ************  B =      0.51473  C =      0.51473 [cm^-1]
  Rotational constants: A = ************  B =  15431.36236  C =  15431.36236 [MHz]
  Nuclear repulsion =   49.638674093930597

  Charge       = 0
  Multiplicity = 1
  Electrons    = 26
  Nalpha       = 13
  Nbeta        = 13

  ==> Algorithm <==

  SCF Algorithm Type is DF.
  DIIS enabled.
  MOM disabled.
  Fractional occupation disabled.
  Guess Type is SAD.
  Energy threshold   = 1.00e-08
  Density threshold  = 1.00e-08
  Integral threshold = 0.00e+00

  ==> Primary Basis <==

  Basis Set: AUG-CC-PV(T+D)Z
    Blend: AUG-CC-PV(T+D)Z
    Number of shells: 31
    Number of basis function: 101
    Number of Cartesian functions: 120
    Spherical Harmonics?: true
    Max angular momentum: 3

  ==> DFT Potential <==

   => Composite Functional: WB97M-V <= 

    wB97M-V Hyb-GGA Exchange-Correlation Functional

    N. Mardirossian and M. Head-Gordon, J. Chem. Phys. 144, 214110 (2016)

    Deriv               =              1
    GGA                 =           TRUE
    Meta                =           TRUE

    Exchange Hybrid     =           TRUE
    MP2 Hybrid          =          FALSE

   => Exchange-Correlation Functionals <=

    1.0000   wB97M-V exchange-correlation functional

   => Exact (HF) Exchange <=

    0.8500            HF,LR [omega = 0.3000]
    0.1500               HF 

   => VV10 Non-Local Parameters <=

    VV10 B              =     6.0000E+00
    VV10 C              =     1.0000E-02

   => Molecular Quadrature <=

    Radial Scheme          =       TREUTLER
    Pruning Scheme         =           FLAT
    Nuclear Scheme         =       TREUTLER

    BS radius alpha        =              1
    Pruning alpha          =              1
    Radial Points          =             75
    Spherical Points       =            302
    Total Points           =          45035
    Total Blocks           =            420
    Max Points             =            256
    Max Functions          =            101

   => Loading Basis Set <=

    Name: (AUG-CC-PV(T+D)Z AUX)
    Role: JKFIT
    Keyword: DF_BASIS_SCF
    atoms 1 entry CL         line   816 file /work/zw18965/.conda/envs/p4env/share/psi4/basis/aug-cc-pvtz-jkfit.gbs 
    atoms 2 entry F          line   348 file /work/zw18965/.conda/envs/p4env/share/psi4/basis/aug-cc-pvtz-jkfit.gbs 

  ==> Pre-Iterations <==

   -------------------------------------------------------
    Irrep   Nso     Nmo     Nalpha   Nbeta   Ndocc  Nsocc
   -------------------------------------------------------
     A1        42      42       0       0       0       0
     A2        11      11       0       0       0       0
     B1        24      24       0       0       0       0
     B2        24      24       0       0       0       0
   -------------------------------------------------------
    Total     101     101      13      13      13       0
   -------------------------------------------------------

  ==> Integral Setup <==

  ==> DiskDFJK: Density-Fitted J/K Matrices <==

    J tasked:                  Yes
    K tasked:                  Yes
    wK tasked:                 Yes
    Omega:               3.000E-01
    OpenMP threads:             24
    Integrals threads:          24
    Memory [MiB]:           102693
    Algorithm:                Core
    Integral Cache:           NONE
    Schwarz Cutoff:          1E-12
    Fitting Condition:       1E-10

   => Auxiliary Basis Set <=

  Basis Set: (AUG-CC-PV(T+D)Z AUX)
    Blend: AUG-CC-PVTZ-JKFIT
    Number of shells: 72
    Number of basis function: 250
    Number of Cartesian functions: 311
    Spherical Harmonics?: true
    Max angular momentum: 4

  Cached 100.0% of DFT collocation blocks in 0.296 [GiB].

  Minimum eigenvalue in the overlap matrix is 1.0021414187E-03.
  Using Symmetric Orthogonalization.

  SCF Guess: Superposition of Atomic Densities via on-the-fly atomic UHF.

  ==> Iterations <==

                           Total Energy        Delta E     RMS |[F,P]|

   @DF-RKS iter SAD:  -559.73196492129819   -5.59732e+02   0.00000e+00 
   @DF-RKS iter   1:  -559.95338845466108   -2.21424e-01   4.87914e-03 DIIS
   @DF-RKS iter   2:  -559.96638654405024   -1.29981e-02   3.66182e-03 DIIS
   @DF-RKS iter   3:  -559.97563970709530   -9.25316e-03   1.09536e-03 DIIS
   @DF-RKS iter   4:  -559.97666567245813   -1.02597e-03   1.76898e-04 DIIS
   @DF-RKS iter   5:  -559.97671623059102   -5.05581e-05   5.17427e-05 DIIS
   @DF-RKS iter   6:  -559.97672074497586   -4.51438e-06   9.89809e-06 DIIS
   @DF-RKS iter   7:  -559.97672109055486   -3.45579e-07   2.46477e-06 DIIS
   @DF-RKS iter   8:  -559.97672110716735   -1.66125e-08   7.15606e-07 DIIS
   @DF-RKS iter   9:  -559.97672110817746   -1.01011e-09   6.66944e-08 DIIS
   @DF-RKS iter  10:  -559.97672110819337   -1.59162e-11   8.36545e-09 DIIS
  Energy and wave function converged.


  ==> Post-Iterations <==

    Orbital Energies [Eh]
    ---------------------

    Doubly Occupied:                                                      

       1A1  -101.981171     2A1   -24.964698     3A1    -9.731618  
       4A1    -7.442376     1B2    -7.425750     1B1    -7.425750  
       5A1    -1.380815     6A1    -0.961975     7A1    -0.642880  
       2B2    -0.606684     2B1    -0.606684     3B1    -0.436793  
       3B2    -0.436793  

    Virtual:                                                              

       8A1    -0.032458     9A1     0.071464     4B1     0.083208  
       4B2     0.083208    10A1     0.088995    11A1     0.180219  
       5B2     0.199381     5B1     0.199381     1A2     0.271947  
      12A1     0.271947    13A1     0.337940     6B2     0.340538  
       6B1     0.340538    14A1     0.406696     7B1     0.541988  
       7B2     0.541988    15A1     0.578122    16A1     0.709711  
       2A2     0.709712     8B1     0.710292     8B2     0.710292  
      17A1     0.746380    18A1     0.808268     3A2     0.808272  
      19A1     0.865740     9B1     0.979464     9B2     0.979464  
      10B1     1.056553    10B2     1.056553    20A1     1.096910  
      11B2     1.106458    11B1     1.106458     4A2     1.192022  
      21A1     1.192027    22A1     1.200738    12B1     1.479794  
      12B2     1.479794    23A1     1.527803     5A2     2.017436  
      24A1     2.017449    25A1     2.109769    26A1     2.131382  
      13B2     2.134171    13B1     2.134171    14B2     2.341975  
      14B1     2.341975    15B2     2.561207    15B1     2.561207  
       6A2     2.575995    27A1     2.576016    28A1     2.612031  
      16B1     2.709650    16B2     2.709650    17B1     2.783335  
      17B2     2.783335     7A2     2.809350    29A1     2.809356  
      30A1     2.943735    31A1     2.944531     8A2     2.944540  
      18B1     2.993116    18B2     2.993116    32A1     3.463051  
      19B2     3.585292    19B1     3.585292    33A1     3.727236  
      20B2     4.897365    20B1     4.897365    34A1     5.213696  
      35A1     5.869769     9A2     8.245635    36A1     8.245640  
      21B2     8.286206    21B1     8.286206    37A1     8.336301  
      22B1     8.386858    22B2     8.386858    38A1     8.456722  
      10A2     8.456768    23B1     8.747366    23B2     8.747366  
      39A1     8.777531    40A1     8.815680    11A2     8.815781  
      24B2     8.906799    24B1     8.906799    41A1     9.310304  
      42A1    13.628402  

    Final Occupation by Irrep:
             A1    A2    B1    B2 
    DOCC [     7,    0,    3,    3 ]

  @DF-RKS Final Energy:  -559.97672110819337

   => Energetics <=

    Nuclear Repulsion Energy =             49.6386740939305966
    One-Electron Energy =                -872.6759680268743296
    Two-Electron Energy =                 292.4613683585554327
    DFT Exchange-Correlation Energy =     -29.5106385939879097
    Empirical Dispersion Energy =           0.0000000000000000
    VV10 Nonlocal Energy =                  0.1098430601828826
    Total Energy =                       -559.9767211081932601

Computation Completed


Properties will be evaluated at   0.000000,   0.000000,   0.000000 [a0]

Properties computed using the SCF density matrix

  Nuclear Dipole Moment: [e a0]
     X:     0.0000      Y:     0.0000      Z:    -0.4714

  Electronic Dipole Moment: [e a0]
     X:     0.0000      Y:     0.0000      Z:     0.1215

  Dipole Moment: [e a0]
     X:     0.0000      Y:     0.0000      Z:    -0.3498     Total:     0.3498

  Dipole Moment: [D]
     X:     0.0000      Y:     0.0000      Z:    -0.8892     Total:     0.8892


*** tstop() called on bp1-compute00116.data.bp.acrc.priv at Tue Apr 27 17:30:05 2021
Module time:
	user time   =      61.66 seconds =       1.03 minutes
	system time =       2.04 seconds =       0.03 minutes
	total time  =          2 seconds =       0.03 minutes
Total time:
	user time   =     191.05 seconds =       3.18 minutes
	system time =       8.83 seconds =       0.15 minutes
	total time  =          8 seconds =       0.13 minutes

         ----------------------------------------------------------
                                   FINDIF
                     R. A. King and Jonathon Misiewicz
         ---------------------------------------------------------

  Computing gradient from energies.
    Using 3-point formula.
    Energy without displacement: -559.9767160089
    Check energies below for precision!
    Forces are for mass-weighted, symmetry-adapted cartesians (in au).

     Coord      Energy(-1)        Energy(+1)            Force
        0   -559.9767102839   -559.9767211082     -0.0010824263


-------------------------------------------------------------
  ## New Matrix (Symmetry 0) ##
  Irrep: 1 Size: 2 x 3

                 1                   2                   3

    1     0.00000000000000     0.00000000000000    -0.00379780274462
    2     0.00000000000000     0.00000000000000     0.00379780274462




			-----------------------------------------
			 OPTKING 2.0: for geometry optimizations 
			  - R.A. King,  Bethel University        
			-----------------------------------------
	At level 1: Red. Int., RFO, no backsteps, dynamic trust

	Internal coordinates to be generated automatically.
	Detected frag 1 with atoms:  1 2
	---Fragment 1 Bond Connectivity---
	 1 : 2
	 2 : 1

	---Fragment 1 Geometry and Gradient---
	 CL          0.0000000000        0.0000000000       -1.0855723404
	 F           0.0000000000        0.0000000000        1.9981268384
	             0.0000000000        0.0000000000       -0.0037978027
	             0.0000000000        0.0000000000        0.0037978027

	Previous optimization step data not found.  Starting new optimization.

	---Fragment 1 Intrafragment Coordinates---
	 - Coordinate -           - BOHR/RAD -       - ANG/DEG -
	 R(1,2)           =         3.083699	       1.631823

	Current energy   :      -559.9767160089

	Generating empirical Hessian (Schlegel '84) for each fragment.
	Taking RFO optimization step.
	Going to follow RFO solution 1.
	Using RFO vector 1.
	Norm of target step-size    0.00834
	Projected energy change by RFO approximation:         0.0000031108

	Back-transformation to cartesian coordinates...
	Successfully converged to displaced geometry.

	--- Internal Coordinate Step in ANG or DEG, aJ/ANG or AJ/DEG ---
	 ---------------------------------------------------------------------------
	   Coordinate                Previous        Force       Change         New 
	   ----------                --------       ------       ------       ------
	    1 R(1,2)          =      1.631823    -0.031289    -0.004414     1.627409
	 ---------------------------------------------------------------------------
	Successfully symmetrized geometry.

  ==> Convergence Check <==

  Measures of convergence in internal coordinates in au.
  Criteria marked as inactive (o), active & met (*), and active & unmet ( ).
  --------------------------------------------------------------------------------------------- ~
   Step     Total Energy     Delta E     MAX Force     RMS Force      MAX Disp      RMS Disp    ~
  --------------------------------------------------------------------------------------------- ~
    Convergence Criteria    1.00e-06 *    3.00e-04 *             o    1.20e-03 *             o  ~
  --------------------------------------------------------------------------------------------- ~
      1    -559.97671601   -5.60e+02      3.80e-03      3.80e-03 o    8.34e-03      8.34e-03 o  ~
  ---------------------------------------------------------------------------------------------

	Writing optimization data to binary file.
	Structure for next step:
	Cartesian Geometry (in Angstrom)
	   CL     0.0000000000   0.0000000000  -0.5722530695
	    F     0.0000000000   0.0000000000   1.0551561114
			--------------------------
			 OPTKING Finished Execution 
			--------------------------

    Structure for next step:
    Molecular point group: c2v
    Full point group: C_inf_v

    Geometry (in Angstrom), charge = 0, multiplicity = 1:

    CL           0.000000000000     0.000000000000    -0.572906207050
    F            0.000000000000     0.000000000000     1.054502980241

gradient() will perform gradient computation by finite difference of analytic energies.

         ----------------------------------------------------------
                                   FINDIF
                     R. A. King and Jonathon Misiewicz
         ---------------------------------------------------------

  Using finite-differences of energies to determine gradients.
    Generating geometries for use with 3-point formula.
    Displacement size will be 5.00e-03.
    Number of atoms is 2.
    Number of symmetric SALCs is 1.
    Translations projected? 1. Rotations projected? 1.
    Number of geometries (including reference) is 3.

  //>>>>>>>>>>>>>>>>>>>>>>>>>>>>>>>>>>>//
  //    Loading displacement 1 of 3    //
  //<<<<<<<<<<<<<<<<<<<<<<<<<<<<<<<<<<<//

*** tstart() called on bp1-compute00116.data.bp.acrc.priv
*** at Tue Apr 27 17:30:05 2021

   => Loading Basis Set <=

    Name: AUG-CC-PV(T+D)Z
    Role: ORBITAL
    Keyword: BASIS
    atoms 1 entry CL         line  1012 file /work/zw18965/.conda/envs/p4env/share/psi4/basis/aug-cc-pv_tpd_z.gbs 
    atoms 2 entry F          line   393 file /work/zw18965/.conda/envs/p4env/share/psi4/basis/aug-cc-pv_tpd_z.gbs 


         ---------------------------------------------------------
                                   SCF
               by Justin Turney, Rob Parrish, Andy Simmonett
                          and Daniel G. A. Smith
                              RKS Reference
                       24 Threads, 137329 MiB Core
         ---------------------------------------------------------

  ==> Geometry <==

    Molecular point group: c2v
    Full point group: C_inf_v

    Geometry (in Angstrom), charge = 0, multiplicity = 1:

       Center              X                  Y                   Z               Mass       
    ------------   -----------------  -----------------  -----------------  -----------------
         CL           0.000000000000     0.000000000000    -0.572906207050    34.968852682000
         F            0.000000000000     0.000000000000     1.054502980241    18.998403162730

  Running in c2v symmetry.

  Rotational constants: A = ************  B =      0.51705  C =      0.51705 [cm^-1]
  Rotational constants: A = ************  B =  15500.85040  C =  15500.85040 [MHz]
  Nuclear repulsion =   49.750311024904853

  Charge       = 0
  Multiplicity = 1
  Electrons    = 26
  Nalpha       = 13
  Nbeta        = 13

  ==> Algorithm <==

  SCF Algorithm Type is DF.
  DIIS enabled.
  MOM disabled.
  Fractional occupation disabled.
  Guess Type is READ.
  Energy threshold   = 1.00e-08
  Density threshold  = 1.00e-08
  Integral threshold = 0.00e+00

  ==> Primary Basis <==

  Basis Set: AUG-CC-PV(T+D)Z
    Blend: AUG-CC-PV(T+D)Z
    Number of shells: 31
    Number of basis function: 101
    Number of Cartesian functions: 120
    Spherical Harmonics?: true
    Max angular momentum: 3

  ==> DFT Potential <==

   => Composite Functional: WB97M-V <= 

    wB97M-V Hyb-GGA Exchange-Correlation Functional

    N. Mardirossian and M. Head-Gordon, J. Chem. Phys. 144, 214110 (2016)

    Deriv               =              1
    GGA                 =           TRUE
    Meta                =           TRUE

    Exchange Hybrid     =           TRUE
    MP2 Hybrid          =          FALSE

   => Exchange-Correlation Functionals <=

    1.0000   wB97M-V exchange-correlation functional

   => Exact (HF) Exchange <=

    0.8500            HF,LR [omega = 0.3000]
    0.1500               HF 

   => VV10 Non-Local Parameters <=

    VV10 B              =     6.0000E+00
    VV10 C              =     1.0000E-02

   => Molecular Quadrature <=

    Radial Scheme          =       TREUTLER
    Pruning Scheme         =           FLAT
    Nuclear Scheme         =       TREUTLER

    BS radius alpha        =              1
    Pruning alpha          =              1
    Radial Points          =             75
    Spherical Points       =            302
    Total Points           =          45035
    Total Blocks           =            419
    Max Points             =            256
    Max Functions          =            101

   => Loading Basis Set <=

    Name: (AUG-CC-PV(T+D)Z AUX)
    Role: JKFIT
    Keyword: DF_BASIS_SCF
    atoms 1 entry CL         line   816 file /work/zw18965/.conda/envs/p4env/share/psi4/basis/aug-cc-pvtz-jkfit.gbs 
    atoms 2 entry F          line   348 file /work/zw18965/.conda/envs/p4env/share/psi4/basis/aug-cc-pvtz-jkfit.gbs 

   => Loading Basis Set <=

    Name: AUG-CC-PV(T+D)Z
    Role: ORBITAL
    Keyword: BASIS
    atoms 1 entry CL         line  1012 file /work/zw18965/.conda/envs/p4env/share/psi4/basis/aug-cc-pv_tpd_z.gbs 
    atoms 2 entry F          line   393 file /work/zw18965/.conda/envs/p4env/share/psi4/basis/aug-cc-pv_tpd_z.gbs 

  Reading orbitals from file 180, no projection.

  ==> Pre-Iterations <==

   -------------------------------------------------------
    Irrep   Nso     Nmo     Nalpha   Nbeta   Ndocc  Nsocc
   -------------------------------------------------------
     A1        42      42       0       0       0       0
     A2        11      11       0       0       0       0
     B1        24      24       0       0       0       0
     B2        24      24       0       0       0       0
   -------------------------------------------------------
    Total     101     101      13      13      13       0
   -------------------------------------------------------

  ==> Integral Setup <==

  ==> DiskDFJK: Density-Fitted J/K Matrices <==

    J tasked:                  Yes
    K tasked:                  Yes
    wK tasked:                 Yes
    Omega:               3.000E-01
    OpenMP threads:             24
    Integrals threads:          24
    Memory [MiB]:           102693
    Algorithm:                Core
    Integral Cache:           NONE
    Schwarz Cutoff:          1E-12
    Fitting Condition:       1E-10

   => Auxiliary Basis Set <=

  Basis Set: (AUG-CC-PV(T+D)Z AUX)
    Blend: AUG-CC-PVTZ-JKFIT
    Number of shells: 72
    Number of basis function: 250
    Number of Cartesian functions: 311
    Spherical Harmonics?: true
    Max angular momentum: 4

  Cached 100.0% of DFT collocation blocks in 0.296 [GiB].

  Minimum eigenvalue in the overlap matrix is 9.9300821952E-04.
  Using Symmetric Orthogonalization.

  SCF Guess: Orbitals guess was supplied from a previous computation.

  ==> Iterations <==

                           Total Energy        Delta E     RMS |[F,P]|

   @DF-RKS iter   0:  -559.97845083095251   -5.59978e+02   2.12572e-04 
   @DF-RKS iter   1:  -559.97673532354952    1.71551e-03   3.94546e-05 DIIS
   @DF-RKS iter   2:  -559.97673650185584   -1.17831e-06   2.17321e-05 DIIS
   @DF-RKS iter   3:  -559.97673688093994   -3.79084e-07   1.71342e-06 DIIS
   @DF-RKS iter   4:  -559.97673688661610   -5.67616e-09   7.68440e-07 DIIS
   @DF-RKS iter   5:  -559.97673688729276   -6.76664e-10   4.92888e-07 DIIS
   @DF-RKS iter   6:  -559.97673688753139   -2.38629e-10   9.51530e-08 DIIS
   @DF-RKS iter   7:  -559.97673688754537   -1.39835e-11   1.52605e-08 DIIS
   @DF-RKS iter   8:  -559.97673688754583   -4.54747e-13   4.91824e-09 DIIS
  Energy and wave function converged.


  ==> Post-Iterations <==

    Orbital Energies [Eh]
    ---------------------

    Doubly Occupied:                                                      

       1A1  -101.980870     2A1   -24.964850     3A1    -9.731364  
       4A1    -7.442116     1B2    -7.425492     1B1    -7.425492  
       5A1    -1.382161     6A1    -0.961713     7A1    -0.643555  
       2B2    -0.607508     2B1    -0.607508     3B1    -0.436341  
       3B2    -0.436341  

    Virtual:                                                              

       8A1    -0.031214     9A1     0.071415     4B1     0.083203  
       4B2     0.083203    10A1     0.089285    11A1     0.180246  
       5B2     0.199340     5B1     0.199340     1A2     0.271978  
      12A1     0.271978    13A1     0.337843     6B1     0.340904  
       6B2     0.340904    14A1     0.407367     7B2     0.541986  
       7B1     0.541986    15A1     0.577908    16A1     0.709758  
       2A2     0.709759     8B1     0.710428     8B2     0.710428  
      17A1     0.746778    18A1     0.808379     3A2     0.808382  
      19A1     0.866015     9B1     0.979380     9B2     0.979380  
      10B2     1.056611    10B1     1.056611    20A1     1.098307  
      11B1     1.107878    11B2     1.107878     4A2     1.192720  
      21A1     1.192725    22A1     1.199524    12B1     1.479883  
      12B2     1.479883    23A1     1.529044     5A2     2.017625  
      24A1     2.017638    25A1     2.111816    26A1     2.130477  
      13B1     2.134742    13B2     2.134742    14B2     2.343025  
      14B1     2.343025    15B2     2.560808    15B1     2.560808  
       6A2     2.574599    27A1     2.574619    28A1     2.614907  
      16B2     2.709641    16B1     2.709641    17B1     2.783179  
      17B2     2.783179     7A2     2.809671    29A1     2.809677  
      30A1     2.945205    31A1     2.946771     8A2     2.946780  
      18B1     2.995289    18B2     2.995289    32A1     3.470366  
      19B2     3.589064    19B1     3.589064    33A1     3.721891  
      20B1     4.897496    20B2     4.897496    34A1     5.215343  
      35A1     5.882066     9A2     8.245904    36A1     8.245908  
      21B2     8.286555    21B1     8.286555    37A1     8.339646  
      22B2     8.386482    22B1     8.386482    38A1     8.457034  
      10A2     8.457081    23B1     8.749501    23B2     8.749501  
      39A1     8.774014    40A1     8.815534    11A2     8.815633  
      24B2     8.907214    24B1     8.907214    41A1     9.317095  
      42A1    13.639789  

    Final Occupation by Irrep:
             A1    A2    B1    B2 
    DOCC [     7,    0,    3,    3 ]

  @DF-RKS Final Energy:  -559.97673688754583

   => Energetics <=

    Nuclear Repulsion Energy =             49.7503110249048532
    One-Electron Energy =                -872.8958005799438524
    Two-Electron Energy =                 292.5709618017483535
    DFT Exchange-Correlation Energy =     -29.5120460315197448
    Empirical Dispersion Energy =           0.0000000000000000
    VV10 Nonlocal Energy =                  0.1098368972645489
    Total Energy =                       -559.9767368875458260

Computation Completed


Properties will be evaluated at   0.000000,   0.000000,   0.000000 [a0]

Properties computed using the SCF density matrix

  Nuclear Dipole Moment: [e a0]
     X:     0.0000      Y:     0.0000      Z:    -0.4703

  Electronic Dipole Moment: [e a0]
     X:     0.0000      Y:     0.0000      Z:     0.1250

  Dipole Moment: [e a0]
     X:     0.0000      Y:     0.0000      Z:    -0.3453     Total:     0.3453

  Dipole Moment: [D]
     X:     0.0000      Y:     0.0000      Z:    -0.8777     Total:     0.8777


*** tstop() called on bp1-compute00116.data.bp.acrc.priv at Tue Apr 27 17:30:07 2021
Module time:
	user time   =      46.03 seconds =       0.77 minutes
	system time =       1.44 seconds =       0.02 minutes
	total time  =          2 seconds =       0.03 minutes
Total time:
	user time   =     237.97 seconds =       3.97 minutes
	system time =      10.32 seconds =       0.17 minutes
	total time  =         10 seconds =       0.17 minutes

  //>>>>>>>>>>>>>>>>>>>>>>>>>>>>>>>>>>>//
  //    Loading displacement 2 of 3    //
  //<<<<<<<<<<<<<<<<<<<<<<<<<<<<<<<<<<<//

*** tstart() called on bp1-compute00116.data.bp.acrc.priv
*** at Tue Apr 27 17:30:07 2021

   => Loading Basis Set <=

    Name: AUG-CC-PV(T+D)Z
    Role: ORBITAL
    Keyword: BASIS
    atoms 1 entry CL         line  1012 file /work/zw18965/.conda/envs/p4env/share/psi4/basis/aug-cc-pv_tpd_z.gbs 
    atoms 2 entry F          line   393 file /work/zw18965/.conda/envs/p4env/share/psi4/basis/aug-cc-pv_tpd_z.gbs 


         ---------------------------------------------------------
                                   SCF
               by Justin Turney, Rob Parrish, Andy Simmonett
                          and Daniel G. A. Smith
                              RKS Reference
                       24 Threads, 137329 MiB Core
         ---------------------------------------------------------

  ==> Geometry <==

    Molecular point group: c2v
    Full point group: C_inf_v

    Geometry (in Angstrom), charge = 0, multiplicity = 1:

       Center              X                  Y                   Z               Mass       
    ------------   -----------------  -----------------  -----------------  -----------------
         CL           0.000000000000     0.000000000000    -0.573171682171    34.968852682000
         F            0.000000000000     0.000000000000     1.054991619224    18.998403162730

  Running in c2v symmetry.

  Rotational constants: A = ************  B =      0.51657  C =      0.51657 [cm^-1]
  Rotational constants: A = ************  B =  15486.49471  C =  15486.49471 [MHz]
  Nuclear repulsion =   49.727268243394811

  Charge       = 0
  Multiplicity = 1
  Electrons    = 26
  Nalpha       = 13
  Nbeta        = 13

  ==> Algorithm <==

  SCF Algorithm Type is DF.
  DIIS enabled.
  MOM disabled.
  Fractional occupation disabled.
  Guess Type is READ.
  Energy threshold   = 1.00e-08
  Density threshold  = 1.00e-08
  Integral threshold = 0.00e+00

  ==> Primary Basis <==

  Basis Set: AUG-CC-PV(T+D)Z
    Blend: AUG-CC-PV(T+D)Z
    Number of shells: 31
    Number of basis function: 101
    Number of Cartesian functions: 120
    Spherical Harmonics?: true
    Max angular momentum: 3

  ==> DFT Potential <==

   => Composite Functional: WB97M-V <= 

    wB97M-V Hyb-GGA Exchange-Correlation Functional

    N. Mardirossian and M. Head-Gordon, J. Chem. Phys. 144, 214110 (2016)

    Deriv               =              1
    GGA                 =           TRUE
    Meta                =           TRUE

    Exchange Hybrid     =           TRUE
    MP2 Hybrid          =          FALSE

   => Exchange-Correlation Functionals <=

    1.0000   wB97M-V exchange-correlation functional

   => Exact (HF) Exchange <=

    0.8500            HF,LR [omega = 0.3000]
    0.1500               HF 

   => VV10 Non-Local Parameters <=

    VV10 B              =     6.0000E+00
    VV10 C              =     1.0000E-02

   => Molecular Quadrature <=

    Radial Scheme          =       TREUTLER
    Pruning Scheme         =           FLAT
    Nuclear Scheme         =       TREUTLER

    BS radius alpha        =              1
    Pruning alpha          =              1
    Radial Points          =             75
    Spherical Points       =            302
    Total Points           =          45035
    Total Blocks           =            419
    Max Points             =            256
    Max Functions          =            101

   => Loading Basis Set <=

    Name: (AUG-CC-PV(T+D)Z AUX)
    Role: JKFIT
    Keyword: DF_BASIS_SCF
    atoms 1 entry CL         line   816 file /work/zw18965/.conda/envs/p4env/share/psi4/basis/aug-cc-pvtz-jkfit.gbs 
    atoms 2 entry F          line   348 file /work/zw18965/.conda/envs/p4env/share/psi4/basis/aug-cc-pvtz-jkfit.gbs 

   => Loading Basis Set <=

    Name: AUG-CC-PV(T+D)Z
    Role: ORBITAL
    Keyword: BASIS
    atoms 1 entry CL         line  1012 file /work/zw18965/.conda/envs/p4env/share/psi4/basis/aug-cc-pv_tpd_z.gbs 
    atoms 2 entry F          line   393 file /work/zw18965/.conda/envs/p4env/share/psi4/basis/aug-cc-pv_tpd_z.gbs 

  Reading orbitals from file 180, no projection.

  ==> Pre-Iterations <==

   -------------------------------------------------------
    Irrep   Nso     Nmo     Nalpha   Nbeta   Ndocc  Nsocc
   -------------------------------------------------------
     A1        42      42       0       0       0       0
     A2        11      11       0       0       0       0
     B1        24      24       0       0       0       0
     B2        24      24       0       0       0       0
   -------------------------------------------------------
    Total     101     101      13      13      13       0
   -------------------------------------------------------

  ==> Integral Setup <==

  ==> DiskDFJK: Density-Fitted J/K Matrices <==

    J tasked:                  Yes
    K tasked:                  Yes
    wK tasked:                 Yes
    Omega:               3.000E-01
    OpenMP threads:             24
    Integrals threads:          24
    Memory [MiB]:           102693
    Algorithm:                Core
    Integral Cache:           NONE
    Schwarz Cutoff:          1E-12
    Fitting Condition:       1E-10

   => Auxiliary Basis Set <=

  Basis Set: (AUG-CC-PV(T+D)Z AUX)
    Blend: AUG-CC-PVTZ-JKFIT
    Number of shells: 72
    Number of basis function: 250
    Number of Cartesian functions: 311
    Spherical Harmonics?: true
    Max angular momentum: 4

  Cached 100.0% of DFT collocation blocks in 0.296 [GiB].

  Minimum eigenvalue in the overlap matrix is 9.9488085972E-04.
  Using Symmetric Orthogonalization.

  SCF Guess: Orbitals guess was supplied from a previous computation.

  ==> Iterations <==

                           Total Energy        Delta E     RMS |[F,P]|

   @DF-RKS iter   0:  -559.97644423906524   -5.59976e+02   3.64246e-05 
   @DF-RKS iter   1:  -559.97673481497202   -2.90576e-04   6.75469e-06 DIIS
   @DF-RKS iter   2:  -559.97673484951281   -3.45408e-08   3.71835e-06 DIIS
   @DF-RKS iter   3:  -559.97673486059796   -1.10851e-08   2.91040e-07 DIIS
   @DF-RKS iter   4:  -559.97673486076587   -1.67915e-10   1.20677e-07 DIIS
   @DF-RKS iter   5:  -559.97673486078361   -1.77351e-11   7.74677e-08 DIIS
   @DF-RKS iter   6:  -559.97673486078997   -6.36646e-12   1.72058e-08 DIIS
   @DF-RKS iter   7:  -559.97673486079054   -5.68434e-13   2.61470e-09 DIIS
  Energy and wave function converged.


  ==> Post-Iterations <==

    Orbital Energies [Eh]
    ---------------------

    Doubly Occupied:                                                      

       1A1  -101.980932     2A1   -24.964819     3A1    -9.731417  
       4A1    -7.442170     1B2    -7.425546     1B1    -7.425546  
       5A1    -1.381882     6A1    -0.961767     7A1    -0.643416  
       2B2    -0.607337     2B1    -0.607337     3B2    -0.436434  
       3B1    -0.436434  

    Virtual:                                                              

       8A1    -0.031470     9A1     0.071425     4B1     0.083204  
       4B2     0.083204    10A1     0.089225    11A1     0.180241  
       5B1     0.199348     5B2     0.199348     1A2     0.271971  
      12A1     0.271972    13A1     0.337863     6B1     0.340829  
       6B2     0.340829    14A1     0.407228     7B1     0.541987  
       7B2     0.541987    15A1     0.577952    16A1     0.709748  
       2A2     0.709749     8B2     0.710400     8B1     0.710400  
      17A1     0.746697    18A1     0.808356     3A2     0.808359  
      19A1     0.865957     9B2     0.979397     9B1     0.979397  
      10B1     1.056599    10B2     1.056599    20A1     1.098020  
      11B2     1.107585    11B1     1.107585     4A2     1.192576  
      21A1     1.192581    22A1     1.199773    12B1     1.479866  
      12B2     1.479866    23A1     1.528789     5A2     2.017586  
      24A1     2.017599    25A1     2.111395    26A1     2.130664  
      13B1     2.134626    13B2     2.134626    14B2     2.342807  
      14B1     2.342807    15B2     2.560888    15B1     2.560888  
       6A2     2.574887    27A1     2.574908    28A1     2.614312  
      16B1     2.709643    16B2     2.709643    17B2     2.783211  
      17B1     2.783211     7A2     2.809605    29A1     2.809611  
      30A1     2.944902    31A1     2.946308     8A2     2.946317  
      18B2     2.994841    18B1     2.994841    32A1     3.468852  
      19B1     3.588288    19B2     3.588288    33A1     3.722997  
      20B2     4.897469    20B1     4.897469    34A1     5.215003  
      35A1     5.879528     9A2     8.245849    36A1     8.245852  
      21B1     8.286482    21B2     8.286482    37A1     8.338955  
      22B2     8.386559    22B1     8.386559    38A1     8.456969  
      10A2     8.457016    23B1     8.749064    23B2     8.749064  
      39A1     8.774736    40A1     8.815564    11A2     8.815664  
      24B1     8.907125    24B2     8.907125    41A1     9.315692  
      42A1    13.637464  

    Final Occupation by Irrep:
             A1    A2    B1    B2 
    DOCC [     7,    0,    3,    3 ]

  @DF-RKS Final Energy:  -559.97673486079054

   => Energetics <=

    Nuclear Repulsion Energy =             49.7272682433948106
    One-Electron Energy =                -872.8504302223044533
    Two-Electron Energy =                 292.5483439905888190
    DFT Exchange-Correlation Energy =     -29.5117550390435675
    Empirical Dispersion Energy =           0.0000000000000000
    VV10 Nonlocal Energy =                  0.1098381665737871
    Total Energy =                       -559.9767348607905433

Computation Completed


Properties will be evaluated at   0.000000,   0.000000,   0.000000 [a0]

Properties computed using the SCF density matrix

  Nuclear Dipole Moment: [e a0]
     X:     0.0000      Y:     0.0000      Z:    -0.4705

  Electronic Dipole Moment: [e a0]
     X:     0.0000      Y:     0.0000      Z:     0.1243

  Dipole Moment: [e a0]
     X:     0.0000      Y:     0.0000      Z:    -0.3462     Total:     0.3462

  Dipole Moment: [D]
     X:     0.0000      Y:     0.0000      Z:    -0.8800     Total:     0.8800


*** tstop() called on bp1-compute00116.data.bp.acrc.priv at Tue Apr 27 17:30:09 2021
Module time:
	user time   =      47.98 seconds =       0.80 minutes
	system time =       1.81 seconds =       0.03 minutes
	total time  =          2 seconds =       0.03 minutes
Total time:
	user time   =     286.08 seconds =       4.77 minutes
	system time =      12.13 seconds =       0.20 minutes
	total time  =         12 seconds =       0.20 minutes

  //>>>>>>>>>>>>>>>>>>>>>>>>>>>>>>>>>>>//
  //    Loading displacement 3 of 3    //
  //<<<<<<<<<<<<<<<<<<<<<<<<<<<<<<<<<<<//

*** tstart() called on bp1-compute00116.data.bp.acrc.priv
*** at Tue Apr 27 17:30:09 2021

   => Loading Basis Set <=

    Name: AUG-CC-PV(T+D)Z
    Role: ORBITAL
    Keyword: BASIS
    atoms 1 entry CL         line  1012 file /work/zw18965/.conda/envs/p4env/share/psi4/basis/aug-cc-pv_tpd_z.gbs 
    atoms 2 entry F          line   393 file /work/zw18965/.conda/envs/p4env/share/psi4/basis/aug-cc-pv_tpd_z.gbs 


         ---------------------------------------------------------
                                   SCF
               by Justin Turney, Rob Parrish, Andy Simmonett
                          and Daniel G. A. Smith
                              RKS Reference
                       24 Threads, 137329 MiB Core
         ---------------------------------------------------------

  ==> Geometry <==

    Molecular point group: c2v
    Full point group: C_inf_v

    Geometry (in Angstrom), charge = 0, multiplicity = 1:

       Center              X                  Y                   Z               Mass       
    ------------   -----------------  -----------------  -----------------  -----------------
         CL           0.000000000000     0.000000000000    -0.572640731929    34.968852682000
         F            0.000000000000     0.000000000000     1.054014341258    18.998403162730

  Running in c2v symmetry.

  Rotational constants: A = ************  B =      0.51753  C =      0.51753 [cm^-1]
  Rotational constants: A = ************  B =  15515.22606  C =  15515.22606 [MHz]
  Nuclear repulsion =   49.773375171591589

  Charge       = 0
  Multiplicity = 1
  Electrons    = 26
  Nalpha       = 13
  Nbeta        = 13

  ==> Algorithm <==

  SCF Algorithm Type is DF.
  DIIS enabled.
  MOM disabled.
  Fractional occupation disabled.
  Guess Type is READ.
  Energy threshold   = 1.00e-08
  Density threshold  = 1.00e-08
  Integral threshold = 0.00e+00

  ==> Primary Basis <==

  Basis Set: AUG-CC-PV(T+D)Z
    Blend: AUG-CC-PV(T+D)Z
    Number of shells: 31
    Number of basis function: 101
    Number of Cartesian functions: 120
    Spherical Harmonics?: true
    Max angular momentum: 3

  ==> DFT Potential <==

   => Composite Functional: WB97M-V <= 

    wB97M-V Hyb-GGA Exchange-Correlation Functional

    N. Mardirossian and M. Head-Gordon, J. Chem. Phys. 144, 214110 (2016)

    Deriv               =              1
    GGA                 =           TRUE
    Meta                =           TRUE

    Exchange Hybrid     =           TRUE
    MP2 Hybrid          =          FALSE

   => Exchange-Correlation Functionals <=

    1.0000   wB97M-V exchange-correlation functional

   => Exact (HF) Exchange <=

    0.8500            HF,LR [omega = 0.3000]
    0.1500               HF 

   => VV10 Non-Local Parameters <=

    VV10 B              =     6.0000E+00
    VV10 C              =     1.0000E-02

   => Molecular Quadrature <=

    Radial Scheme          =       TREUTLER
    Pruning Scheme         =           FLAT
    Nuclear Scheme         =       TREUTLER

    BS radius alpha        =              1
    Pruning alpha          =              1
    Radial Points          =             75
    Spherical Points       =            302
    Total Points           =          45035
    Total Blocks           =            419
    Max Points             =            256
    Max Functions          =            101

   => Loading Basis Set <=

    Name: (AUG-CC-PV(T+D)Z AUX)
    Role: JKFIT
    Keyword: DF_BASIS_SCF
    atoms 1 entry CL         line   816 file /work/zw18965/.conda/envs/p4env/share/psi4/basis/aug-cc-pvtz-jkfit.gbs 
    atoms 2 entry F          line   348 file /work/zw18965/.conda/envs/p4env/share/psi4/basis/aug-cc-pvtz-jkfit.gbs 

   => Loading Basis Set <=

    Name: AUG-CC-PV(T+D)Z
    Role: ORBITAL
    Keyword: BASIS
    atoms 1 entry CL         line  1012 file /work/zw18965/.conda/envs/p4env/share/psi4/basis/aug-cc-pv_tpd_z.gbs 
    atoms 2 entry F          line   393 file /work/zw18965/.conda/envs/p4env/share/psi4/basis/aug-cc-pv_tpd_z.gbs 

  Reading orbitals from file 180, no projection.

  ==> Pre-Iterations <==

   -------------------------------------------------------
    Irrep   Nso     Nmo     Nalpha   Nbeta   Ndocc  Nsocc
   -------------------------------------------------------
     A1        42      42       0       0       0       0
     A2        11      11       0       0       0       0
     B1        24      24       0       0       0       0
     B2        24      24       0       0       0       0
   -------------------------------------------------------
    Total     101     101      13      13      13       0
   -------------------------------------------------------

  ==> Integral Setup <==

  ==> DiskDFJK: Density-Fitted J/K Matrices <==

    J tasked:                  Yes
    K tasked:                  Yes
    wK tasked:                 Yes
    Omega:               3.000E-01
    OpenMP threads:             24
    Integrals threads:          24
    Memory [MiB]:           102693
    Algorithm:                Core
    Integral Cache:           NONE
    Schwarz Cutoff:          1E-12
    Fitting Condition:       1E-10

   => Auxiliary Basis Set <=

  Basis Set: (AUG-CC-PV(T+D)Z AUX)
    Blend: AUG-CC-PVTZ-JKFIT
    Number of shells: 72
    Number of basis function: 250
    Number of Cartesian functions: 311
    Spherical Harmonics?: true
    Max angular momentum: 4

  Cached 100.0% of DFT collocation blocks in 0.296 [GiB].

  Minimum eigenvalue in the overlap matrix is 9.9114031934E-04.
  Using Symmetric Orthogonalization.

  SCF Guess: Orbitals guess was supplied from a previous computation.

  ==> Iterations <==

                           Total Energy        Delta E     RMS |[F,P]|

   @DF-RKS iter   0:  -559.97703008484052   -5.59977e+02   3.64935e-05 
   @DF-RKS iter   1:  -559.97673822823162    2.91857e-04   6.75989e-06 DIIS
   @DF-RKS iter   2:  -559.97673826283062   -3.45990e-08   3.71973e-06 DIIS
   @DF-RKS iter   3:  -559.97673827391588   -1.10853e-08   2.91063e-07 DIIS
   @DF-RKS iter   4:  -559.97673827408380   -1.67915e-10   1.19556e-07 DIIS
   @DF-RKS iter   5:  -559.97673827410244   -1.86446e-11   7.64509e-08 DIIS
   @DF-RKS iter   6:  -559.97673827410858   -6.13909e-12   1.73347e-08 DIIS
   @DF-RKS iter   7:  -559.97673827410790    6.82121e-13   2.61630e-09 DIIS
  Energy and wave function converged.


  ==> Post-Iterations <==

    Orbital Energies [Eh]
    ---------------------

    Doubly Occupied:                                                      

       1A1  -101.980808     2A1   -24.964882     3A1    -9.731312  
       4A1    -7.442063     1B1    -7.425439     1B2    -7.425439  
       5A1    -1.382440     6A1    -0.961658     7A1    -0.643694  
       2B2    -0.607678     2B1    -0.607678     3B2    -0.436248  
       3B1    -0.436248  

    Virtual:                                                              

       8A1    -0.030958     9A1     0.071406     4B1     0.083201  
       4B2     0.083201    10A1     0.089345    11A1     0.180252  
       5B1     0.199331     5B2     0.199331     1A2     0.271984  
      12A1     0.271985    13A1     0.337823     6B2     0.340980  
       6B1     0.340980    14A1     0.407506     7B2     0.541986  
       7B1     0.541986    15A1     0.577864    16A1     0.709767  
       2A2     0.709768     8B1     0.710457     8B2     0.710457  
      17A1     0.746859    18A1     0.808402     3A2     0.808405  
      19A1     0.866074     9B1     0.979363     9B2     0.979363  
      10B1     1.056623    10B2     1.056623    20A1     1.098594  
      11B1     1.108171    11B2     1.108171     4A2     1.192864  
      21A1     1.192869    22A1     1.199277    12B2     1.479900  
      12B1     1.479900    23A1     1.529299     5A2     2.017665  
      24A1     2.017677    25A1     2.112236    26A1     2.130290  
      13B1     2.134858    13B2     2.134858    14B2     2.343245  
      14B1     2.343245    15B2     2.560729    15B1     2.560729  
       6A2     2.574310    27A1     2.574330    28A1     2.615504  
      16B2     2.709640    16B1     2.709640    17B1     2.783146  
      17B2     2.783146     7A2     2.809738    29A1     2.809744  
      30A1     2.945509    31A1     2.947235     8A2     2.947244  
      18B2     2.995738    18B1     2.995738    32A1     3.471883  
      19B1     3.589839    19B2     3.589839    33A1     3.720782  
      20B1     4.897523    20B2     4.897523    34A1     5.215683  
      35A1     5.884607     9A2     8.245959    36A1     8.245963  
      21B1     8.286629    21B2     8.286629    37A1     8.340338  
      22B2     8.386404    22B1     8.386404    38A1     8.457098  
      10A2     8.457145    23B1     8.749935    23B2     8.749935  
      39A1     8.773293    40A1     8.815503    11A2     8.815602  
      24B1     8.907306    24B2     8.907306    41A1     9.318501  
      42A1    13.642104  

    Final Occupation by Irrep:
             A1    A2    B1    B2 
    DOCC [     7,    0,    3,    3 ]

  @DF-RKS Final Energy:  -559.97673827410790

   => Energetics <=

    Nuclear Repulsion Energy =             49.7733751715915886
    One-Electron Energy =                -872.9412106253711272
    Two-Electron Energy =                 292.5935990537544740
    DFT Exchange-Correlation Energy =     -29.5123375023902561
    Empirical Dispersion Energy =           0.0000000000000000
    VV10 Nonlocal Energy =                  0.1098356283074225
    Total Energy =                       -559.9767382741077881

Computation Completed


Properties will be evaluated at   0.000000,   0.000000,   0.000000 [a0]

Properties computed using the SCF density matrix

  Nuclear Dipole Moment: [e a0]
     X:     0.0000      Y:     0.0000      Z:    -0.4701

  Electronic Dipole Moment: [e a0]
     X:     0.0000      Y:     0.0000      Z:     0.1257

  Dipole Moment: [e a0]
     X:     0.0000      Y:     0.0000      Z:    -0.3444     Total:     0.3444

  Dipole Moment: [D]
     X:     0.0000      Y:     0.0000      Z:    -0.8753     Total:     0.8753


*** tstop() called on bp1-compute00116.data.bp.acrc.priv at Tue Apr 27 17:30:11 2021
Module time:
	user time   =      44.03 seconds =       0.73 minutes
	system time =       1.59 seconds =       0.03 minutes
	total time  =          2 seconds =       0.03 minutes
Total time:
	user time   =     330.25 seconds =       5.50 minutes
	system time =      13.72 seconds =       0.23 minutes
	total time  =         14 seconds =       0.23 minutes

         ----------------------------------------------------------
                                   FINDIF
                     R. A. King and Jonathon Misiewicz
         ---------------------------------------------------------

  Computing gradient from energies.
    Using 3-point formula.
    Energy without displacement: -559.9767368875
    Check energies below for precision!
    Forces are for mass-weighted, symmetry-adapted cartesians (in au).

     Coord      Energy(-1)        Energy(+1)            Force
        0   -559.9767348608   -559.9767382741     -0.0003413317


-------------------------------------------------------------
  ## New Matrix (Symmetry 0) ##
  Irrep: 1 Size: 2 x 3

                 1                   2                   3

    1     0.00000000000000     0.00000000000000    -0.00119759712065
    2     0.00000000000000     0.00000000000000     0.00119759712065




			-----------------------------------------
			 OPTKING 2.0: for geometry optimizations 
			  - R.A. King,  Bethel University        
			-----------------------------------------
	At level 1: Red. Int., RFO, no backsteps, dynamic trust

	Previous internal coordinate definitions found.
	---Fragment 1 Geometry and Gradient---
	 CL          0.0000000000        0.0000000000       -1.0826358269
	 F           0.0000000000        0.0000000000        1.9927218311
	             0.0000000000        0.0000000000       -0.0011975971
	             0.0000000000        0.0000000000        0.0011975971

	---Fragment 1 Intrafragment Coordinates---
	 - Coordinate -           - BOHR/RAD -       - ANG/DEG -
	 R(1,2)           =         3.075358	       1.627409

	Current energy   :      -559.9767368875

	Energy change for the previous step:
		Projected    :         0.0000031108
		Actual       :        -0.0000208787

	Performing BFGS update.
	Previous computed or guess Hessian on step 1.
	Steps to be used in Hessian update: 1
	Taking RFO optimization step.
	Going to follow RFO solution 1.
	Using RFO vector 1.
	Norm of target step-size    0.00384
	Projected energy change by RFO approximation:         0.0000027789

	Back-transformation to cartesian coordinates...
	Successfully converged to displaced geometry.

	--- Internal Coordinate Step in ANG or DEG, aJ/ANG or AJ/DEG ---
	 ---------------------------------------------------------------------------
	   Coordinate                Previous        Force       Change         New 
	   ----------                --------       ------       ------       ------
	    1 R(1,2)          =      1.627409    -0.009867    -0.002033     1.625376
	 ---------------------------------------------------------------------------
	Successfully symmetrized geometry.

  ==> Convergence Check <==

  Measures of convergence in internal coordinates in au.
  Criteria marked as inactive (o), active & met (*), and active & unmet ( ).
  ---------------------------------------------------------------------------------------------
   Step     Total Energy     Delta E     MAX Force     RMS Force      MAX Disp      RMS Disp   
  ---------------------------------------------------------------------------------------------
    Convergence Criteria    1.00e-06 *    3.00e-04 *             o    1.20e-03 *             o
  ---------------------------------------------------------------------------------------------
      2    -559.97673689   -2.09e-05      1.20e-03      1.20e-03 o    3.84e-03      3.84e-03 o  ~
  ---------------------------------------------------------------------------------------------

	Writing optimization data to binary file.
	Structure for next step:
	Cartesian Geometry (in Angstrom)
	   CL     0.0000000000   0.0000000000  -0.5718896916
	    F     0.0000000000   0.0000000000   1.0534864629
			--------------------------
			 OPTKING Finished Execution 
			--------------------------

    Structure for next step:
    Molecular point group: c2v
    Full point group: C_inf_v

    Geometry (in Angstrom), charge = 0, multiplicity = 1:

    CL           0.000000000000     0.000000000000    -0.572190509099
    F            0.000000000000     0.000000000000     1.053185651833

gradient() will perform gradient computation by finite difference of analytic energies.

         ----------------------------------------------------------
                                   FINDIF
                     R. A. King and Jonathon Misiewicz
         ---------------------------------------------------------

  Using finite-differences of energies to determine gradients.
    Generating geometries for use with 3-point formula.
    Displacement size will be 5.00e-03.
    Number of atoms is 2.
    Number of symmetric SALCs is 1.
    Translations projected? 1. Rotations projected? 1.
    Number of geometries (including reference) is 3.

  //>>>>>>>>>>>>>>>>>>>>>>>>>>>>>>>>>>>//
  //    Loading displacement 1 of 3    //
  //<<<<<<<<<<<<<<<<<<<<<<<<<<<<<<<<<<<//

*** tstart() called on bp1-compute00116.data.bp.acrc.priv
*** at Tue Apr 27 17:30:11 2021

   => Loading Basis Set <=

    Name: AUG-CC-PV(T+D)Z
    Role: ORBITAL
    Keyword: BASIS
    atoms 1 entry CL         line  1012 file /work/zw18965/.conda/envs/p4env/share/psi4/basis/aug-cc-pv_tpd_z.gbs 
    atoms 2 entry F          line   393 file /work/zw18965/.conda/envs/p4env/share/psi4/basis/aug-cc-pv_tpd_z.gbs 


         ---------------------------------------------------------
                                   SCF
               by Justin Turney, Rob Parrish, Andy Simmonett
                          and Daniel G. A. Smith
                              RKS Reference
                       24 Threads, 137329 MiB Core
         ---------------------------------------------------------

  ==> Geometry <==

    Molecular point group: c2v
    Full point group: C_inf_v

    Geometry (in Angstrom), charge = 0, multiplicity = 1:

       Center              X                  Y                   Z               Mass       
    ------------   -----------------  -----------------  -----------------  -----------------
         CL           0.000000000000     0.000000000000    -0.572190509099    34.968852682000
         F            0.000000000000     0.000000000000     1.053185651833    18.998403162730

  Running in c2v symmetry.

  Rotational constants: A = ************  B =      0.51835  C =      0.51835 [cm^-1]
  Rotational constants: A = ************  B =  15539.65169  C =  15539.65169 [MHz]
  Nuclear repulsion =   49.812538893205300

  Charge       = 0
  Multiplicity = 1
  Electrons    = 26
  Nalpha       = 13
  Nbeta        = 13

  ==> Algorithm <==

  SCF Algorithm Type is DF.
  DIIS enabled.
  MOM disabled.
  Fractional occupation disabled.
  Guess Type is READ.
  Energy threshold   = 1.00e-08
  Density threshold  = 1.00e-08
  Integral threshold = 0.00e+00

  ==> Primary Basis <==

  Basis Set: AUG-CC-PV(T+D)Z
    Blend: AUG-CC-PV(T+D)Z
    Number of shells: 31
    Number of basis function: 101
    Number of Cartesian functions: 120
    Spherical Harmonics?: true
    Max angular momentum: 3

  ==> DFT Potential <==

   => Composite Functional: WB97M-V <= 

    wB97M-V Hyb-GGA Exchange-Correlation Functional

    N. Mardirossian and M. Head-Gordon, J. Chem. Phys. 144, 214110 (2016)

    Deriv               =              1
    GGA                 =           TRUE
    Meta                =           TRUE

    Exchange Hybrid     =           TRUE
    MP2 Hybrid          =          FALSE

   => Exchange-Correlation Functionals <=

    1.0000   wB97M-V exchange-correlation functional

   => Exact (HF) Exchange <=

    0.8500            HF,LR [omega = 0.3000]
    0.1500               HF 

   => VV10 Non-Local Parameters <=

    VV10 B              =     6.0000E+00
    VV10 C              =     1.0000E-02

   => Molecular Quadrature <=

    Radial Scheme          =       TREUTLER
    Pruning Scheme         =           FLAT
    Nuclear Scheme         =       TREUTLER

    BS radius alpha        =              1
    Pruning alpha          =              1
    Radial Points          =             75
    Spherical Points       =            302
    Total Points           =          45035
    Total Blocks           =            419
    Max Points             =            256
    Max Functions          =            101

   => Loading Basis Set <=

    Name: (AUG-CC-PV(T+D)Z AUX)
    Role: JKFIT
    Keyword: DF_BASIS_SCF
    atoms 1 entry CL         line   816 file /work/zw18965/.conda/envs/p4env/share/psi4/basis/aug-cc-pvtz-jkfit.gbs 
    atoms 2 entry F          line   348 file /work/zw18965/.conda/envs/p4env/share/psi4/basis/aug-cc-pvtz-jkfit.gbs 

   => Loading Basis Set <=

    Name: AUG-CC-PV(T+D)Z
    Role: ORBITAL
    Keyword: BASIS
    atoms 1 entry CL         line  1012 file /work/zw18965/.conda/envs/p4env/share/psi4/basis/aug-cc-pv_tpd_z.gbs 
    atoms 2 entry F          line   393 file /work/zw18965/.conda/envs/p4env/share/psi4/basis/aug-cc-pv_tpd_z.gbs 

  Reading orbitals from file 180, no projection.

  ==> Pre-Iterations <==

   -------------------------------------------------------
    Irrep   Nso     Nmo     Nalpha   Nbeta   Ndocc  Nsocc
   -------------------------------------------------------
     A1        42      42       0       0       0       0
     A2        11      11       0       0       0       0
     B1        24      24       0       0       0       0
     B2        24      24       0       0       0       0
   -------------------------------------------------------
[...]
      18B2     2.996051    18B1     2.996051    32A1     3.472941  
      19B2     3.590378    19B1     3.590378    33A1     3.720009  
      20B2     4.897542    20B1     4.897542    34A1     5.215920  
      35A1     5.886376     9A2     8.245998    36A1     8.246001  
      21B2     8.286680    21B1     8.286680    37A1     8.340820  
      22B1     8.386349    22B2     8.386349    38A1     8.457143  
      10A2     8.457190    23B1     8.750237    23B2     8.750237  
      39A1     8.772792    40A1     8.815481    11A2     8.815581  
      24B2     8.907371    24B1     8.907371    41A1     9.319480  
      42A1    13.643708  

    Final Occupation by Irrep:
             A1    A2    B1    B2 
    DOCC [     7,    0,    3,    3 ]

  @DF-RKS Final Energy:  -559.97673885968391

   => Energetics <=

    Nuclear Repulsion Energy =             49.7894384450391456
    One-Electron Energy =                -872.9728340006902272
    Two-Electron Energy =                 292.6093625131146041
    DFT Exchange-Correlation Energy =     -29.5125405624678976
    Empirical Dispersion Energy =           0.0000000000000000
    VV10 Nonlocal Energy =                  0.1098347453203609
    Total Energy =                       -559.9767388596840192

Computation Completed


Properties will be evaluated at   0.000000,   0.000000,   0.000000 [a0]

Properties computed using the SCF density matrix

  Nuclear Dipole Moment: [e a0]
     X:     0.0000      Y:     0.0000      Z:    -0.4699

  Electronic Dipole Moment: [e a0]
     X:     0.0000      Y:     0.0000      Z:     0.1262

  Dipole Moment: [e a0]
     X:     0.0000      Y:     0.0000      Z:    -0.3437     Total:     0.3437

  Dipole Moment: [D]
     X:     0.0000      Y:     0.0000      Z:    -0.8736     Total:     0.8736


*** tstop() called on bp1-compute00116.data.bp.acrc.priv at Tue Apr 27 17:30:31 2021
Module time:
	user time   =      67.22 seconds =       1.12 minutes
	system time =       1.91 seconds =       0.03 minutes
	total time  =          3 seconds =       0.05 minutes
Total time:
	user time   =     787.97 seconds =      13.13 minutes
	system time =      28.13 seconds =       0.47 minutes
	total time  =         34 seconds =       0.57 minutes

  //>>>>>>>>>>>>>>>>>>>>>>>>>>>>>>>>>>>//
  //    Loading displacement 3 of 3    //
  //<<<<<<<<<<<<<<<<<<<<<<<<<<<<<<<<<<<//

*** tstart() called on bp1-compute00116.data.bp.acrc.priv
*** at Tue Apr 27 17:30:31 2021

   => Loading Basis Set <=

    Name: AUG-CC-PV(T+D)Z
    Role: ORBITAL
    Keyword: BASIS
    atoms 1 entry CL         line  1012 file /work/zw18965/.conda/envs/p4env/share/psi4/basis/aug-cc-pv_tpd_z.gbs 
    atoms 2 entry F          line   393 file /work/zw18965/.conda/envs/p4env/share/psi4/basis/aug-cc-pv_tpd_z.gbs 


         ---------------------------------------------------------
                                   SCF
               by Justin Turney, Rob Parrish, Andy Simmonett
                          and Daniel G. A. Smith
                              RKS Reference
                       24 Threads, 137329 MiB Core
         ---------------------------------------------------------

  ==> Geometry <==

    Molecular point group: c2v
    Full point group: C_inf_v

    Geometry (in Angstrom), charge = 0, multiplicity = 1:

       Center              X                  Y                   Z               Mass       
    ------------   -----------------  -----------------  -----------------  -----------------
         CL           0.000000000000     0.000000000000    -0.571925033978    34.968852682000
         F            0.000000000000     0.000000000000     1.052697012850    18.998403162730

  Running in c2v symmetry.

  Rotational constants: A = ************  B =      0.51883  C =      0.51883 [cm^-1]
  Rotational constants: A = ************  B =  15554.08137  C =  15554.08137 [MHz]
  Nuclear repulsion =   49.835660786819368

  Charge       = 0
  Multiplicity = 1
  Electrons    = 26
  Nalpha       = 13
  Nbeta        = 13

  ==> Algorithm <==

  SCF Algorithm Type is DF.
  DIIS enabled.
  MOM disabled.
  Fractional occupation disabled.
  Guess Type is SAD.
  Energy threshold   = 1.00e-10
  Density threshold  = 1.00e-10
  Integral threshold = 0.00e+00

  ==> Primary Basis <==

  Basis Set: AUG-CC-PV(T+D)Z
    Blend: AUG-CC-PV(T+D)Z
    Number of shells: 31
    Number of basis function: 101
    Number of Cartesian functions: 120
    Spherical Harmonics?: true
    Max angular momentum: 3

  ==> DFT Potential <==

   => Composite Functional: WB97M-V <= 

    wB97M-V Hyb-GGA Exchange-Correlation Functional

    N. Mardirossian and M. Head-Gordon, J. Chem. Phys. 144, 214110 (2016)

    Deriv               =              1
    GGA                 =           TRUE
    Meta                =           TRUE

    Exchange Hybrid     =           TRUE
    MP2 Hybrid          =          FALSE

   => Exchange-Correlation Functionals <=

    1.0000   wB97M-V exchange-correlation functional

   => Exact (HF) Exchange <=

    0.8500            HF,LR [omega = 0.3000]
    0.1500               HF 

   => VV10 Non-Local Parameters <=

    VV10 B              =     6.0000E+00
    VV10 C              =     1.0000E-02

   => Molecular Quadrature <=

    Radial Scheme          =       TREUTLER
    Pruning Scheme         =           FLAT
    Nuclear Scheme         =       TREUTLER

    BS radius alpha        =              1
    Pruning alpha          =              1
    Radial Points          =             75
    Spherical Points       =            302
    Total Points           =          45035
    Total Blocks           =            420
    Max Points             =            256
    Max Functions          =            101

   => Loading Basis Set <=

    Name: (AUG-CC-PV(T+D)Z AUX)
    Role: JKFIT
    Keyword: DF_BASIS_SCF
    atoms 1 entry CL         line   816 file /work/zw18965/.conda/envs/p4env/share/psi4/basis/aug-cc-pvtz-jkfit.gbs 
    atoms 2 entry F          line   348 file /work/zw18965/.conda/envs/p4env/share/psi4/basis/aug-cc-pvtz-jkfit.gbs 

  ==> Pre-Iterations <==

   -------------------------------------------------------
    Irrep   Nso     Nmo     Nalpha   Nbeta   Ndocc  Nsocc
   -------------------------------------------------------
     A1        42      42       0       0       0       0
     A2        11      11       0       0       0       0
     B1        24      24       0       0       0       0
     B2        24      24       0       0       0       0
   -------------------------------------------------------
    Total     101     101      13      13      13       0
   -------------------------------------------------------

  ==> Integral Setup <==

  ==> DiskDFJK: Density-Fitted J/K Matrices <==

    J tasked:                  Yes
    K tasked:                  Yes
    wK tasked:                 Yes
    Omega:               3.000E-01
    OpenMP threads:             24
    Integrals threads:          24
    Memory [MiB]:           102693
    Algorithm:                Core
    Integral Cache:           NONE
    Schwarz Cutoff:          1E-12
    Fitting Condition:       1E-10

   => Auxiliary Basis Set <=

  Basis Set: (AUG-CC-PV(T+D)Z AUX)
    Blend: AUG-CC-PVTZ-JKFIT
    Number of shells: 72
    Number of basis function: 250
    Number of Cartesian functions: 311
    Spherical Harmonics?: true
    Max angular momentum: 4

  Cached 100.0% of DFT collocation blocks in 0.296 [GiB].

  Minimum eigenvalue in the overlap matrix is 9.8612816162E-04.
  Using Symmetric Orthogonalization.

  SCF Guess: Superposition of Atomic Densities via on-the-fly atomic UHF.

  ==> Iterations <==

                           Total Energy        Delta E     RMS |[F,P]|

   @DF-RKS iter SAD:  -559.74138680133922   -5.59741e+02   0.00000e+00 
   @DF-RKS iter   1:  -559.95329073650635   -2.11904e-01   4.89011e-03 DIIS
   @DF-RKS iter   2:  -559.96665128581765   -1.33605e-02   3.62698e-03 DIIS
   @DF-RKS iter   3:  -559.97567589277685   -9.02461e-03   1.08609e-03 DIIS
   @DF-RKS iter   4:  -559.97668245966327   -1.00657e-03   1.78726e-04 DIIS
   @DF-RKS iter   5:  -559.97673388773808   -5.14281e-05   5.18929e-05 DIIS
   @DF-RKS iter   6:  -559.97673843723760   -4.54950e-06   9.90843e-06 DIIS
   @DF-RKS iter   7:  -559.97673878438616   -3.47149e-07   2.47870e-06 DIIS
   @DF-RKS iter   8:  -559.97673880112359   -1.67374e-08   7.06729e-07 DIIS
   @DF-RKS iter   9:  -559.97673880211494   -9.91349e-10   6.68522e-08 DIIS
   @DF-RKS iter  10:  -559.97673880213006   -1.51203e-11   8.32948e-09 DIIS
   @DF-RKS iter  11:  -559.97673880213051   -4.54747e-13   1.47692e-09 DIIS
   @DF-RKS iter  12:  -559.97673880213063   -1.13687e-13   1.07803e-10 DIIS
   @DF-RKS iter  13:  -559.97673880213063    0.00000e+00   1.00747e-11 DIIS
  Energy and wave function converged.


  ==> Post-Iterations <==

    Orbital Energies [Eh]
    ---------------------

    Doubly Occupied:                                                      

       1A1  -101.980641     2A1   -24.964967     3A1    -9.731170  
       4A1    -7.441919     1B2    -7.425296     1B1    -7.425296  
       5A1    -1.383196     6A1    -0.961512     7A1    -0.644069  
       2B2    -0.608141     2B1    -0.608141     3B2    -0.435996  
       3B1    -0.435996  

    Virtual:                                                              

       8A1    -0.030268     9A1     0.071379     4B1     0.083198  
       4B2     0.083198    10A1     0.089510    11A1     0.180268  
       5B1     0.199308     5B2     0.199308     1A2     0.272001  
      12A1     0.272002    13A1     0.337769     6B2     0.341185  
       6B1     0.341185    14A1     0.407882     7B2     0.541983  
       7B1     0.541983    15A1     0.577746    16A1     0.709793  
       2A2     0.709794     8B2     0.710533     8B1     0.710533  
      17A1     0.747077    18A1     0.808464     3A2     0.808468  
      19A1     0.866237     9B1     0.979315     9B2     0.979315  
      10B1     1.056656    10B2     1.056656    20A1     1.099367  
      11B1     1.108961    11B2     1.108961     4A2     1.193252  
      21A1     1.193257    22A1     1.198614    12B2     1.479943  
      12B1     1.479943    23A1     1.529987     5A2     2.017771  
      24A1     2.017783    25A1     2.113367    26A1     2.129785  
      13B2     2.135166    13B1     2.135166    14B2     2.343842  
      14B1     2.343842    15B2     2.560520    15B1     2.560520  
       6A2     2.573528    27A1     2.573549    28A1     2.617120  
      16B1     2.709636    16B2     2.709636    17B1     2.783058  
      17B2     2.783058     7A2     2.809919    29A1     2.809926  
      30A1     2.946330    31A1     2.948488     8A2     2.948497  
      18B1     2.996951    18B2     2.996951    32A1     3.475991  
      19B2     3.591924    19B1     3.591924    33A1     3.717781  
      20B2     4.897597    20B1     4.897597    34A1     5.216601  
      35A1     5.891467     9A2     8.246108    36A1     8.246111  
      21B2     8.286830    21B1     8.286830    37A1     8.342206  
      22B2     8.386192    22B1     8.386192    38A1     8.457271  
      10A2     8.457320    23B2     8.751099    23B1     8.751099  
      39A1     8.771356    40A1     8.815420    11A2     8.815518  
      24B1     8.907563    24B2     8.907563    41A1     9.322301  
      42A1    13.648288  

    Final Occupation by Irrep:
             A1    A2    B1    B2 
    DOCC [     7,    0,    3,    3 ]

  @DF-RKS Final Energy:  -559.97673880213063

   => Energetics <=

    Nuclear Repulsion Energy =             49.8356607868193677
    One-Electron Energy =                -873.0638247441420390
    Two-Electron Energy =                 292.6547185139370981
    DFT Exchange-Correlation Energy =     -29.5131255671297055
    Empirical Dispersion Energy =           0.0000000000000000
    VV10 Nonlocal Energy =                  0.1098322083845519
    Total Energy =                       -559.9767388021306260

Computation Completed


Properties will be evaluated at   0.000000,   0.000000,   0.000000 [a0]

Properties computed using the SCF density matrix

  Nuclear Dipole Moment: [e a0]
     X:     0.0000      Y:     0.0000      Z:    -0.4695

  Electronic Dipole Moment: [e a0]
     X:     0.0000      Y:     0.0000      Z:     0.1277

  Dipole Moment: [e a0]
     X:     0.0000      Y:     0.0000      Z:    -0.3418     Total:     0.3418

  Dipole Moment: [D]
     X:     0.0000      Y:     0.0000      Z:    -0.8688     Total:     0.8688


*** tstop() called on bp1-compute00116.data.bp.acrc.priv at Tue Apr 27 17:30:34 2021
Module time:
	user time   =      67.17 seconds =       1.12 minutes
	system time =       1.95 seconds =       0.03 minutes
	total time  =          3 seconds =       0.05 minutes
Total time:
	user time   =     855.27 seconds =      14.25 minutes
	system time =      30.09 seconds =       0.50 minutes
	total time  =         37 seconds =       0.62 minutes

         ----------------------------------------------------------
                                   FINDIF
                     R. A. King and Jonathon Misiewicz
         ---------------------------------------------------------

  Computing second-derivative from energies using projected, 
  symmetry-adapted, cartesian coordinates.

  3 energies passed in, including the reference geometry.
    Using 3-point formula.
    Energy without displacement: -559.9767391545
    Check energies below for precision!
    0: -1 :      -559.9767388597
    0: 1  :      -559.9767388021

-------------------------------------------------------------


  ==> Harmonic Vibrational Analysis <==

  non-mass-weighted Hessian:       Symmetric? True   Hermitian? True   Lin Dep Dim?  5 (0)
  projection of translations (True) and rotations (True) removed 5 degrees of freedom (5)
  total projector:                 Symmetric? True   Hermitian? True   Lin Dep Dim?  5 (5)
  mass-weighted Hessian:           Symmetric? True   Hermitian? True   Lin Dep Dim?  5 (0)
  pre-proj  low-frequency mode:    0.0000i [cm^-1]
  pre-proj  low-frequency mode:    0.0000  [cm^-1]
  pre-proj  low-frequency mode:    0.0000  [cm^-1]
  pre-proj  low-frequency mode:    0.0000  [cm^-1]
  pre-proj  low-frequency mode:    0.0000  [cm^-1]
  pre-proj  all modes:['0.0000i' '0.0000' '0.0000' '0.0000' '0.0000' '827.0645']
  projected mass-weighted Hessian: Symmetric? True   Hermitian? True   Lin Dep Dim?  5 (5)
  post-proj low-frequency mode:    0.0000i [cm^-1] (TR)
  post-proj low-frequency mode:    0.0000  [cm^-1] (TR)
  post-proj low-frequency mode:    0.0000  [cm^-1] (TR)
  post-proj low-frequency mode:    0.0000  [cm^-1] (TR)
  post-proj low-frequency mode:    0.0000  [cm^-1] (TR)
  post-proj  all modes:['0.0000i' '0.0000' '0.0000' '0.0000' '0.0000' '827.0645']

  Vibration                       6           
  Freq [cm^-1]                 827.0645       
  Irrep                           A1          
  Reduced mass [u]             22.6381        
  Force const [mDyne/A]         9.1236        
  Turning point v=0 [a0]        0.0802        
  RMS dev v=0 [a0 u^1/2]        0.2698        
  Char temp [K]               1189.9616       
  ----------------------------------------------------------------------------------
      1   CL               0.00  0.00 -0.48   
      2   F                0.00  0.00  0.88   

  ==> Thermochemistry Components <==

  Entropy, S
    Electronic S            0.000 [cal/(mol K)]        0.000 [J/(mol K)]       0.00000000 [mEh/K] (multiplicity = 1)
    Translational S        37.879 [cal/(mol K)]      158.488 [J/(mol K)]       0.06036475 [mEh/K] (mol. weight = 53.9673 [u], P = 101325.00 [Pa])
    Rotational S           13.892 [cal/(mol K)]       58.126 [J/(mol K)]       0.02213890 [mEh/K] (symmetry no. = 1)
    Vibrational S           0.186 [cal/(mol K)]        0.780 [J/(mol K)]       0.00029702 [mEh/K]
  Total S                  51.958 [cal/(mol K)]      217.393 [J/(mol K)]       0.08280066 [mEh/K]
  Correction S              0.000 [cal/(mol K)]        0.000 [J/(mol K)]       0.00000000 [mEh/K]

  Constant volume heat capacity, Cv
    Electronic Cv           0.000 [cal/(mol K)]        0.000 [J/(mol K)]       0.00000000 [mEh/K]
    Translational Cv        2.981 [cal/(mol K)]       12.472 [J/(mol K)]       0.00475022 [mEh/K]
    Rotational Cv           1.987 [cal/(mol K)]        8.314 [J/(mol K)]       0.00316681 [mEh/K]
    Vibrational Cv          0.607 [cal/(mol K)]        2.540 [J/(mol K)]       0.00096757 [mEh/K]
  Total Cv                  5.575 [cal/(mol K)]       23.327 [J/(mol K)]       0.00888460 [mEh/K]
  Correction Cv             0.000 [cal/(mol K)]        0.000 [J/(mol K)]       0.00000000 [mEh/K]

  Constant pressure heat capacity, Cp
    Electronic Cp           0.000 [cal/(mol K)]        0.000 [J/(mol K)]       0.00000000 [mEh/K]
    Translational Cp        4.968 [cal/(mol K)]       20.786 [J/(mol K)]       0.00791703 [mEh/K]
    Rotational Cp           1.987 [cal/(mol K)]        8.314 [J/(mol K)]       0.00316681 [mEh/K]
    Vibrational Cp          0.607 [cal/(mol K)]        2.540 [J/(mol K)]       0.00096757 [mEh/K]
  Total Cp                  7.562 [cal/(mol K)]       31.641 [J/(mol K)]       0.01205141 [mEh/K]
  Correction Cp             0.000 [cal/(mol K)]        0.000 [J/(mol K)]       0.00000000 [mEh/K]

  ==> Thermochemistry Energy Analysis <==

  Raw electronic energy, E0
  Total E0, Electronic energy at well bottom at 0 [K]                 -559.97673915 [Eh]

  Zero-point energy, ZPE_vib = Sum_i nu_i / 2
    Electronic ZPE          0.000 [kcal/mol]        0.000 [kJ/mol]       0.00000000 [Eh]
    Translational ZPE       0.000 [kcal/mol]        0.000 [kJ/mol]       0.00000000 [Eh]
    Rotational ZPE          0.000 [kcal/mol]        0.000 [kJ/mol]       0.00000000 [Eh]
    Vibrational ZPE         1.182 [kcal/mol]        4.947 [kJ/mol]       0.00188419 [Eh]         413.532 [cm^-1]
  Correction ZPE            1.182 [kcal/mol]        4.947 [kJ/mol]       0.00188419 [Eh]         413.532 [cm^-1]
  Total ZPE, Electronic energy at 0 [K]                               -559.97485496 [Eh]

  Thermal Energy, E (includes ZPE)
    Electronic E            0.000 [kcal/mol]        0.000 [kJ/mol]       0.00000000 [Eh]
    Translational E         0.889 [kcal/mol]        3.718 [kJ/mol]       0.00141628 [Eh]
    Rotational E            0.592 [kcal/mol]        2.479 [kJ/mol]       0.00094418 [Eh]
    Vibrational E           1.227 [kcal/mol]        5.133 [kJ/mol]       0.00195514 [Eh]
  Correction E              2.708 [kcal/mol]       11.331 [kJ/mol]       0.00431560 [Eh]
  Total E, Electronic energy at  298.15 [K]                           -559.97242356 [Eh]

  Enthalpy, H_trans = E_trans + k_B * T
    Electronic H            0.000 [kcal/mol]        0.000 [kJ/mol]       0.00000000 [Eh]
    Translational H         1.481 [kcal/mol]        6.197 [kJ/mol]       0.00236046 [Eh]
    Rotational H            0.592 [kcal/mol]        2.479 [kJ/mol]       0.00094418 [Eh]
    Vibrational H           1.227 [kcal/mol]        5.133 [kJ/mol]       0.00195514 [Eh]
  Correction H              3.301 [kcal/mol]       13.810 [kJ/mol]       0.00525978 [Eh]
  Total H, Enthalpy at  298.15 [K]                                    -559.97147937 [Eh]

  Gibbs free energy, G = H - T * S
    Electronic G            0.000 [kcal/mol]        0.000 [kJ/mol]       0.00000000 [Eh]
    Translational G        -9.813 [kcal/mol]      -41.056 [kJ/mol]      -0.01563729 [Eh]
    Rotational G           -3.550 [kcal/mol]      -14.851 [kJ/mol]      -0.00565653 [Eh]
    Vibrational G           1.171 [kcal/mol]        4.901 [kJ/mol]       0.00186658 [Eh]
  Correction G            -12.191 [kcal/mol]      -51.006 [kJ/mol]      -0.01942724 [Eh]
  Total G, Free enthalpy at  298.15 [K]                               -559.99616639 [Eh]

    Psi4 stopped on: Tuesday, 27 April 2021 05:30PM
    Psi4 wall time for execution: 0:00:39.03

*** Psi4 exiting successfully. Buy a developer a beer!
