
    -----------------------------------------------------------------------
          Psi4: An Open-Source Ab Initio Electronic Structure Package
                               Psi4 1.3.2 release

                         Git: Rev {HEAD} ecbda83 


    R. M. Parrish, L. A. Burns, D. G. A. Smith, A. C. Simmonett,
    A. E. DePrince III, E. G. Hohenstein, U. Bozkaya, A. Yu. Sokolov,
    R. Di Remigio, R. M. Richard, J. F. Gonthier, A. M. James,
    H. R. McAlexander, A. Kumar, M. Saitow, X. Wang, B. P. Pritchard,
    P. Verma, H. F. Schaefer III, K. Patkowski, R. A. King, E. F. Valeev,
    F. A. Evangelista, J. M. Turney, T. D. Crawford, and C. D. Sherrill,
    J. Chem. Theory Comput. 13(7) pp 3185--3197 (2017).
    (doi: 10.1021/acs.jctc.7b00174)


                         Additional Contributions by
    P. Kraus, H. Kruse, M. H. Lechner, M. C. Schieber, R. A. Shaw,
    A. Alenaizan, R. Galvelis, Z. L. Glick, S. Lehtola, and J. P. Misiewicz

    -----------------------------------------------------------------------


    Psi4 started on: Tuesday, 27 April 2021 05:29PM

    Process ID: 53274
    Host:       bp1-compute00190.data.bp.acrc.priv
    PSIDATADIR: /work/zw18965/.conda/envs/p4env/share/psi4
    Memory:     500.0 MiB
    Threads:    24
    
  ==> Input File <==

--------------------------------------------------------------------------
memory 144 GB

molecule {
0 1
C 0.0000000000 0.0000000000 0.0000000000
O 0.0000000000 0.0000000000 1.1626000000
O 0.0000000000 0.0000000000 -1.1626000000
}

set dynamic_level 1
set basis aug-cc-pV(T+d)Z
 
optimize("wB97M-V")
frequencies("wB97M-V")
--------------------------------------------------------------------------

  Memory set to 134.110 GiB by Python driver.
gradient() will perform gradient computation by finite difference of analytic energies.

         ----------------------------------------------------------
                                   FINDIF
                     R. A. King and Jonathon Misiewicz
         ---------------------------------------------------------

  Using finite-differences of energies to determine gradients.
    Generating geometries for use with 3-point formula.
    Displacement size will be 5.00e-03.
    Number of atoms is 3.
    Number of symmetric SALCs is 1.
    Translations projected? 1. Rotations projected? 1.
    Number of geometries (including reference) is 3.

  //>>>>>>>>>>>>>>>>>>>>>>>>>>>>>>>>>>>//
  //    Loading displacement 1 of 3    //
  //<<<<<<<<<<<<<<<<<<<<<<<<<<<<<<<<<<<//

*** tstart() called on bp1-compute00190.data.bp.acrc.priv
*** at Tue Apr 27 17:29:32 2021

   => Loading Basis Set <=

    Name: AUG-CC-PV(T+D)Z
    Role: ORBITAL
    Keyword: BASIS
    atoms 1   entry C          line   255 file /work/zw18965/.conda/envs/p4env/share/psi4/basis/aug-cc-pv_tpd_z.gbs 
    atoms 2-3 entry O          line   347 file /work/zw18965/.conda/envs/p4env/share/psi4/basis/aug-cc-pv_tpd_z.gbs 


         ---------------------------------------------------------
                                   SCF
               by Justin Turney, Rob Parrish, Andy Simmonett
                          and Daniel G. A. Smith
                              RKS Reference
                       24 Threads, 137329 MiB Core
         ---------------------------------------------------------

  ==> Geometry <==

    Molecular point group: d2h
    Full point group: D_inf_h

    Geometry (in Angstrom), charge = 0, multiplicity = 1:

       Center              X                  Y                   Z               Mass       
    ------------   -----------------  -----------------  -----------------  -----------------
         C            0.000000000000     0.000000000000     0.000000000000    12.000000000000
         O            0.000000000000     0.000000000000     1.162600000000    15.994914619570
         O            0.000000000000     0.000000000000    -1.162600000000    15.994914619570

  Running in d2h symmetry.

  Rotational constants: A = ************  B =      0.38987  C =      0.38987 [cm^-1]
  Rotational constants: A = ************  B =  11688.11942  C =  11688.11942 [MHz]
  Nuclear repulsion =   58.261382217237241

  Charge       = 0
  Multiplicity = 1
  Electrons    = 22
  Nalpha       = 11
  Nbeta        = 11

  ==> Algorithm <==

  SCF Algorithm Type is DF.
  DIIS enabled.
  MOM disabled.
  Fractional occupation disabled.
  Guess Type is SAD.
  Energy threshold   = 1.00e-08
  Density threshold  = 1.00e-08
  Integral threshold = 0.00e+00

  ==> Primary Basis <==

  Basis Set: AUG-CC-PV(T+D)Z
    Blend: AUG-CC-PV(T+D)Z
    Number of shells: 42
    Number of basis function: 138
    Number of Cartesian functions: 165
    Spherical Harmonics?: true
    Max angular momentum: 3

  ==> DFT Potential <==

   => Composite Functional: WB97M-V <= 

    wB97M-V Hyb-GGA Exchange-Correlation Functional

    N. Mardirossian and M. Head-Gordon, J. Chem. Phys. 144, 214110 (2016)

    Deriv               =              1
    GGA                 =           TRUE
    Meta                =           TRUE

    Exchange Hybrid     =           TRUE
    MP2 Hybrid          =          FALSE

   => Exchange-Correlation Functionals <=

    1.0000   wB97M-V exchange-correlation functional

   => Exact (HF) Exchange <=

    0.8500            HF,LR [omega = 0.3000]
    0.1500               HF 

   => VV10 Non-Local Parameters <=

    VV10 B              =     6.0000E+00
    VV10 C              =     1.0000E-02

   => Molecular Quadrature <=

    Radial Scheme          =       TREUTLER
    Pruning Scheme         =           FLAT
    Nuclear Scheme         =       TREUTLER

    BS radius alpha        =              1
    Pruning alpha          =              1
    Radial Points          =             75
    Spherical Points       =            302
    Total Points           =          67950
    Total Blocks           =            594
    Max Points             =            256
    Max Functions          =            138

   => Loading Basis Set <=

    Name: (AUG-CC-PV(T+D)Z AUX)
    Role: JKFIT
    Keyword: DF_BASIS_SCF
    atoms 1   entry C          line   162 file /work/zw18965/.conda/envs/p4env/share/psi4/basis/aug-cc-pvtz-jkfit.gbs 
    atoms 2-3 entry O          line   286 file /work/zw18965/.conda/envs/p4env/share/psi4/basis/aug-cc-pvtz-jkfit.gbs 

  ==> Pre-Iterations <==

   -------------------------------------------------------
    Irrep   Nso     Nmo     Nalpha   Nbeta   Ndocc  Nsocc
   -------------------------------------------------------
     Ag        30      30       0       0       0       0
     B1g        8       8       0       0       0       0
     B2g       14      14       0       0       0       0
     B3g       14      14       0       0       0       0
     Au         7       7       0       0       0       0
     B1u       27      27       0       0       0       0
     B2u       19      19       0       0       0       0
     B3u       19      19       0       0       0       0
   -------------------------------------------------------
    Total     138     138      11      11      11       0
   -------------------------------------------------------

  ==> Integral Setup <==

  ==> DiskDFJK: Density-Fitted J/K Matrices <==

    J tasked:                  Yes
    K tasked:                  Yes
    wK tasked:                 Yes
    Omega:               3.000E-01
    OpenMP threads:             24
    Integrals threads:          24
    Memory [MiB]:           102376
    Algorithm:                Core
    Integral Cache:           NONE
    Schwarz Cutoff:          1E-12
    Fitting Condition:       1E-10

   => Auxiliary Basis Set <=

  Basis Set: (AUG-CC-PV(T+D)Z AUX)
    Blend: AUG-CC-PVTZ-JKFIT
    Number of shells: 90
    Number of basis function: 312
    Number of Cartesian functions: 393
    Spherical Harmonics?: true
    Max angular momentum: 4

  Cached 100.0% of DFT collocation blocks in 0.606 [GiB].

  Minimum eigenvalue in the overlap matrix is 3.5251759903E-04.
  Using Symmetric Orthogonalization.

  SCF Guess: Superposition of Atomic Densities via on-the-fly atomic UHF.

  ==> Iterations <==

                           Total Energy        Delta E     RMS |[F,P]|

   @DF-RKS iter SAD:  -187.91085370276716   -1.87911e+02   0.00000e+00 
   @DF-RKS iter   1:  -188.50012632962617   -5.89273e-01   1.13500e-02 DIIS
   @DF-RKS iter   2:  -188.46138653314463    3.87398e-02   1.32821e-02 DIIS
   @DF-RKS iter   3:  -188.61562101979450   -1.54234e-01   5.66313e-04 DIIS
   @DF-RKS iter   4:  -188.61596327336503   -3.42254e-04   1.45128e-04 DIIS
   @DF-RKS iter   5:  -188.61598569234047   -2.24190e-05   1.12294e-05 DIIS
   @DF-RKS iter   6:  -188.61598592868987   -2.36349e-07   2.14459e-06 DIIS
   @DF-RKS iter   7:  -188.61598593818655   -9.49669e-09   3.44670e-07 DIIS
   @DF-RKS iter   8:  -188.61598593845753   -2.70973e-10   3.56461e-08 DIIS
   @DF-RKS iter   9:  -188.61598593846091   -3.38218e-12   6.30880e-09 DIIS
  Energy and wave function converged.


  ==> Post-Iterations <==

    Orbital Energies [Eh]
    ---------------------

    Doubly Occupied:                                                      

       1B1u  -19.420002     1Ag   -19.419942     2Ag   -10.542054  
       3Ag    -1.297526     2B1u   -1.254672     4Ag    -0.686095  
       3B1u   -0.637497     1B3u   -0.636242     1B2u   -0.636242  
       1B3g   -0.480035     1B2g   -0.480035  

    Virtual:                                                              

       5Ag     0.019974     2B3u    0.054773     2B2u    0.054773  
       4B1u    0.058997     3B3u    0.122028     3B2u    0.122028  
       6Ag     0.131201     2B2g    0.136943     2B3g    0.136943  
       7Ag     0.167598     5B1u    0.197116     4B3u    0.216180  
       4B2u    0.216180     1B1g    0.239987     8Ag     0.239987  
       6B1u    0.265112     9Ag     0.357210     5B3u    0.397945  
       5B2u    0.397945     3B2g    0.440435     3B3g    0.440435  
      10Ag     0.460650     7B1u    0.551233     1Au     0.595366  
       8B1u    0.595366    11Ag     0.644143    12Ag     0.711013  
       2B1g    0.711013     4B3g    0.723980     4B2g    0.723980  
       6B3u    0.794540     6B2u    0.794540     9B1u    0.795760  
      13Ag     0.846512    10B1u    0.961988     7B3u    0.965684  
       7B2u    0.965684     3B1g    0.993473    14Ag     0.993473  
       8B3u    1.009860     8B2u    1.009860     5B2g    1.100684  
       5B3g    1.100684    11B1u    1.110356    12B1u    1.246318  
       2Au     1.246323    13B1u    1.249208     6B2g    1.368032  
       6B3g    1.368032    15Ag     1.380606     9B3u    1.494695  
       9B2u    1.494695    16Ag     1.644009     7B2g    1.886142  
       7B3g    1.886142     3Au     2.020177    14B1u    2.020178  
      17Ag     2.072003     4B1g    2.072004    10B3u    2.127146  
      10B2u    2.127146    11B3u    2.136290    11B2u    2.136290  
      18Ag     2.191131    15B1u    2.211072    19Ag     2.296743  
       8B3g    2.318780     8B2g    2.318780    16B1u    2.386787  
       5B1g    2.451865    20Ag     2.451870    17B1u    2.603193  
       4Au     2.603199     9B2g    2.712376     9B3g    2.712376  
      18B1u    2.726175    12B3u    2.745332    12B2u    2.745332  
      13B2u    2.850116    13B3u    2.850116    21Ag     3.129231  
       6B1g    3.129232    14B2u    3.162343    14B3u    3.162343  
      22Ag     3.531609    19B1u    3.641875    10B2g    3.667250  
      10B3g    3.667250    20B1u    3.770379     5Au     3.770386  
      15B2u    3.847889    15B3u    3.847889    23Ag     4.224695  
      11B3g    4.610910    11B2g    4.610910    24Ag     4.945762  
      21B1u    5.162212    16B2u    5.404242    16B3u    5.404242  
      22B1u    5.444096    12B3g    6.094685    12B2g    6.094685  
      17B2u    6.207286    17B3u    6.207286    25Ag     6.330040  
       7B1g    6.330045    23B1u    6.536496     6Au     6.536503  
       8B1g    6.663842    26Ag     6.663855    13B2g    6.769998  
      13B3g    6.769998    24B1u    6.802617     7Au     6.828155  
      25B1u    6.828168    18B3u    6.912357    18B2u    6.912357  
      27Ag     7.011579    28Ag     7.116639    14B2g    7.335780  
      14B3g    7.335780    26B1u    7.635544    19B3u    7.744799  
      19B2u    7.744799    29Ag    13.484298    30Ag    15.633026  
      27B1u   20.674185  

    Final Occupation by Irrep:
             Ag   B1g   B2g   B3g    Au   B1u   B2u   B3u 
    DOCC [     4,    0,    1,    1,    0,    3,    1,    1 ]

  @DF-RKS Final Energy:  -188.61598593846091

   => Energetics <=

    Nuclear Repulsion Energy =             58.2613822172372409
    One-Electron Energy =                -372.4946194211363490
    Two-Electron Energy =                 141.9120416926793098
    DFT Exchange-Correlation Energy =     -16.3865342879138112
    Empirical Dispersion Energy =           0.0000000000000000
    VV10 Nonlocal Energy =                  0.0917438606726630
    Total Energy =                       -188.6159859384609092

Computation Completed


Properties will be evaluated at   0.000000,   0.000000,   0.000000 [a0]

Properties computed using the SCF density matrix

  Nuclear Dipole Moment: [e a0]
     X:     0.0000      Y:     0.0000      Z:     0.0000

  Electronic Dipole Moment: [e a0]
     X:     0.0000      Y:     0.0000      Z:     0.0000

  Dipole Moment: [e a0]
     X:     0.0000      Y:     0.0000      Z:     0.0000     Total:     0.0000

  Dipole Moment: [D]
     X:     0.0000      Y:     0.0000      Z:     0.0000     Total:     0.0000


*** tstop() called on bp1-compute00190.data.bp.acrc.priv at Tue Apr 27 17:29:36 2021
Module time:
	user time   =      81.62 seconds =       1.36 minutes
	system time =       3.87 seconds =       0.06 minutes
	total time  =          4 seconds =       0.07 minutes
Total time:
	user time   =      81.62 seconds =       1.36 minutes
	system time =       3.87 seconds =       0.06 minutes
	total time  =          4 seconds =       0.07 minutes

  //>>>>>>>>>>>>>>>>>>>>>>>>>>>>>>>>>>>//
  //    Loading displacement 2 of 3    //
  //<<<<<<<<<<<<<<<<<<<<<<<<<<<<<<<<<<<//

*** tstart() called on bp1-compute00190.data.bp.acrc.priv
*** at Tue Apr 27 17:29:36 2021

   => Loading Basis Set <=

    Name: AUG-CC-PV(T+D)Z
    Role: ORBITAL
    Keyword: BASIS
    atoms 1   entry C          line   255 file /work/zw18965/.conda/envs/p4env/share/psi4/basis/aug-cc-pv_tpd_z.gbs 
    atoms 2-3 entry O          line   347 file /work/zw18965/.conda/envs/p4env/share/psi4/basis/aug-cc-pv_tpd_z.gbs 


         ---------------------------------------------------------
                                   SCF
               by Justin Turney, Rob Parrish, Andy Simmonett
                          and Daniel G. A. Smith
                              RKS Reference
                       24 Threads, 137329 MiB Core
         ---------------------------------------------------------

  ==> Geometry <==

    Molecular point group: d2h
    Full point group: D_inf_h

    Geometry (in Angstrom), charge = 0, multiplicity = 1:

       Center              X                  Y                   Z               Mass       
    ------------   -----------------  -----------------  -----------------  -----------------
         C            0.000000000000     0.000000000000     0.000000000000    12.000000000000
         O            0.000000000000     0.000000000000     1.162132194659    15.994914619570
         O            0.000000000000     0.000000000000    -1.162132194659    15.994914619570

  Running in d2h symmetry.

  Rotational constants: A = ************  B =      0.39019  C =      0.39019 [cm^-1]
  Rotational constants: A = ************  B =  11697.53120  C =  11697.53120 [MHz]
  Nuclear repulsion =   58.284834786504561

  Charge       = 0
  Multiplicity = 1
  Electrons    = 22
  Nalpha       = 11
  Nbeta        = 11

  ==> Algorithm <==

  SCF Algorithm Type is DF.
  DIIS enabled.
  MOM disabled.
  Fractional occupation disabled.
  Guess Type is SAD.
  Energy threshold   = 1.00e-08
  Density threshold  = 1.00e-08
  Integral threshold = 0.00e+00

  ==> Primary Basis <==

  Basis Set: AUG-CC-PV(T+D)Z
    Blend: AUG-CC-PV(T+D)Z
    Number of shells: 42
    Number of basis function: 138
    Number of Cartesian functions: 165
    Spherical Harmonics?: true
    Max angular momentum: 3

  ==> DFT Potential <==

   => Composite Functional: WB97M-V <= 

    wB97M-V Hyb-GGA Exchange-Correlation Functional

    N. Mardirossian and M. Head-Gordon, J. Chem. Phys. 144, 214110 (2016)

    Deriv               =              1
    GGA                 =           TRUE
    Meta                =           TRUE

    Exchange Hybrid     =           TRUE
    MP2 Hybrid          =          FALSE

   => Exchange-Correlation Functionals <=

    1.0000   wB97M-V exchange-correlation functional

   => Exact (HF) Exchange <=

    0.8500            HF,LR [omega = 0.3000]
    0.1500               HF 

   => VV10 Non-Local Parameters <=

    VV10 B              =     6.0000E+00
    VV10 C              =     1.0000E-02

   => Molecular Quadrature <=

    Radial Scheme          =       TREUTLER
    Pruning Scheme         =           FLAT
    Nuclear Scheme         =       TREUTLER

    BS radius alpha        =              1
    Pruning alpha          =              1
    Radial Points          =             75
    Spherical Points       =            302
    Total Points           =          67950
    Total Blocks           =            594
    Max Points             =            256
    Max Functions          =            138

   => Loading Basis Set <=

    Name: (AUG-CC-PV(T+D)Z AUX)
    Role: JKFIT
    Keyword: DF_BASIS_SCF
    atoms 1   entry C          line   162 file /work/zw18965/.conda/envs/p4env/share/psi4/basis/aug-cc-pvtz-jkfit.gbs 
    atoms 2-3 entry O          line   286 file /work/zw18965/.conda/envs/p4env/share/psi4/basis/aug-cc-pvtz-jkfit.gbs 

  ==> Pre-Iterations <==

   -------------------------------------------------------
    Irrep   Nso     Nmo     Nalpha   Nbeta   Ndocc  Nsocc
   -------------------------------------------------------
     Ag        30      30       0       0       0       0
     B1g        8       8       0       0       0       0
     B2g       14      14       0       0       0       0
     B3g       14      14       0       0       0       0
     Au         7       7       0       0       0       0
     B1u       27      27       0       0       0       0
     B2u       19      19       0       0       0       0
     B3u       19      19       0       0       0       0
   -------------------------------------------------------
    Total     138     138      11      11      11       0
   -------------------------------------------------------

  ==> Integral Setup <==

  ==> DiskDFJK: Density-Fitted J/K Matrices <==

    J tasked:                  Yes
    K tasked:                  Yes
    wK tasked:                 Yes
    Omega:               3.000E-01
    OpenMP threads:             24
    Integrals threads:          24
    Memory [MiB]:           102376
    Algorithm:                Core
    Integral Cache:           NONE
    Schwarz Cutoff:          1E-12
    Fitting Condition:       1E-10

   => Auxiliary Basis Set <=

  Basis Set: (AUG-CC-PV(T+D)Z AUX)
    Blend: AUG-CC-PVTZ-JKFIT
    Number of shells: 90
    Number of basis function: 312
    Number of Cartesian functions: 393
    Spherical Harmonics?: true
    Max angular momentum: 4

  Cached 100.0% of DFT collocation blocks in 0.606 [GiB].

  Minimum eigenvalue in the overlap matrix is 3.5208148053E-04.
  Using Symmetric Orthogonalization.

  SCF Guess: Superposition of Atomic Densities via on-the-fly atomic UHF.

  ==> Iterations <==

                           Total Energy        Delta E     RMS |[F,P]|

   @DF-RKS iter SAD:  -187.91248551348227   -1.87912e+02   0.00000e+00 
   @DF-RKS iter   1:  -188.50019897787396   -5.87713e-01   1.13492e-02 DIIS
   @DF-RKS iter   2:  -188.46180034996709    3.83986e-02   1.32674e-02 DIIS
   @DF-RKS iter   3:  -188.61563277893686   -1.53832e-01   5.66814e-04 DIIS
   @DF-RKS iter   4:  -188.61597561243883   -3.42834e-04   1.45113e-04 DIIS
   @DF-RKS iter   5:  -188.61599801506708   -2.24026e-05   1.12065e-05 DIIS
   @DF-RKS iter   6:  -188.61599825050030   -2.35433e-07   2.13323e-06 DIIS
   @DF-RKS iter   7:  -188.61599825991252   -9.41222e-09   3.41743e-07 DIIS
   @DF-RKS iter   8:  -188.61599826017968   -2.67164e-10   3.53289e-08 DIIS
   @DF-RKS iter   9:  -188.61599826018295   -3.26850e-12   6.27337e-09 DIIS
  Energy and wave function converged.


  ==> Post-Iterations <==

    Orbital Energies [Eh]
    ---------------------

    Doubly Occupied:                                                      

       1B1u  -19.419889     1Ag   -19.419828     2Ag   -10.541835  
       3Ag    -1.297738     2B1u   -1.254887     4Ag    -0.686010  
       3B1u   -0.637525     1B3u   -0.636406     1B2u   -0.636406  
       1B2g   -0.480055     1B3g   -0.480055  

    Virtual:                                                              

       5Ag     0.019997     2B3u    0.054769     2B2u    0.054769  
       4B1u    0.059000     3B3u    0.122341     3B2u    0.122341  
       6Ag     0.131211     2B2g    0.136943     2B3g    0.136943  
       7Ag     0.167702     5B1u    0.197132     4B3u    0.216175  
       4B2u    0.216175     1B1g    0.239983     8Ag     0.239983  
       6B1u    0.265107     9Ag     0.357524     5B3u    0.397988  
       5B2u    0.397988     3B2g    0.440428     3B3g    0.440428  
      10Ag     0.460722     7B1u    0.551269     1Au     0.595366  
       8B1u    0.595366    11Ag     0.644291    12Ag     0.710995  
       2B1g    0.710995     4B3g    0.724116     4B2g    0.724116  
       6B3u    0.794487     6B2u    0.794487     9B1u    0.795926  
      13Ag     0.846600    10B1u    0.962061     7B3u    0.965692  
       7B2u    0.965692     3B1g    0.993644    14Ag     0.993644  
       8B3u    1.009983     8B2u    1.009983     5B3g    1.100706  
       5B2g    1.100706    11B1u    1.111497    12B1u    1.246334  
       2Au     1.246339    13B1u    1.249174     6B3g    1.368338  
       6B2g    1.368338    15Ag     1.380574     9B2u    1.494939  
       9B3u    1.494939    16Ag     1.643872     7B2g    1.886173  
       7B3g    1.886173     3Au     2.020317    14B1u    2.020319  
      17Ag     2.072052     4B1g    2.072052    10B3u    2.127378  
      10B2u    2.127378    11B3u    2.136343    11B2u    2.136343  
      18Ag     2.191403    15B1u    2.210418    19Ag     2.297698  
       8B3g    2.319271     8B2g    2.319271    16B1u    2.386848  
       5B1g    2.452250    20Ag     2.452255    17B1u    2.603188  
       4Au     2.603194     9B3g    2.711998     9B2g    2.711998  
      18B1u    2.726204    12B3u    2.745928    12B2u    2.745928  
      13B3u    2.850277    13B2u    2.850277    21Ag     3.129524  
       6B1g    3.129525    14B2u    3.162401    14B3u    3.162401  
      22Ag     3.533518    19B1u    3.643091    10B3g    3.667695  
      10B2g    3.667695    20B1u    3.771398     5Au     3.771405  
      15B2u    3.848188    15B3u    3.848188    23Ag     4.224914  
      11B2g    4.612548    11B3g    4.612548    24Ag     4.945904  
      21B1u    5.165407    16B3u    5.405740    16B2u    5.405740  
      22B1u    5.442121    12B2g    6.094694    12B3g    6.094694  
      17B3u    6.207420    17B2u    6.207420    25Ag     6.330256  
       7B1g    6.330260    23B1u    6.536912     6Au     6.536919  
       8B1g    6.663960    26Ag     6.663972    13B3g    6.771451  
      13B2g    6.771451    24B1u    6.803767     7Au     6.828550  
      25B1u    6.828563    18B3u    6.912482    18B2u    6.912482  
      27Ag     7.012077    28Ag     7.118126    14B2g    7.335913  
      14B3g    7.335913    26B1u    7.636894    19B3u    7.746412  
      19B2u    7.746412    29Ag    13.495206    30Ag    15.644759  
      27B1u   20.695896  

    Final Occupation by Irrep:
             Ag   B1g   B2g   B3g    Au   B1u   B2u   B3u 
    DOCC [     4,    0,    1,    1,    0,    3,    1,    1 ]

  @DF-RKS Final Energy:  -188.61599826018295

   => Energetics <=

    Nuclear Repulsion Energy =             58.2848347865045611
    One-Electron Energy =                -372.5405087778646021
    Two-Electron Energy =                 141.9352474619225291
    DFT Exchange-Correlation Energy =     -16.3873154205248888
    Empirical Dispersion Energy =           0.0000000000000000
    VV10 Nonlocal Energy =                  0.0917436897794357
    Total Energy =                       -188.6159982601829483

Computation Completed


Properties will be evaluated at   0.000000,   0.000000,   0.000000 [a0]

Properties computed using the SCF density matrix

  Nuclear Dipole Moment: [e a0]
     X:     0.0000      Y:     0.0000      Z:     0.0000

  Electronic Dipole Moment: [e a0]
     X:     0.0000      Y:     0.0000      Z:     0.0000

  Dipole Moment: [e a0]
     X:     0.0000      Y:     0.0000      Z:     0.0000     Total:     0.0000

  Dipole Moment: [D]
     X:     0.0000      Y:     0.0000      Z:     0.0000     Total:     0.0000


*** tstop() called on bp1-compute00190.data.bp.acrc.priv at Tue Apr 27 17:29:40 2021
Module time:
	user time   =      81.35 seconds =       1.36 minutes
	system time =       3.47 seconds =       0.06 minutes
	total time  =          4 seconds =       0.07 minutes
Total time:
	user time   =     163.10 seconds =       2.72 minutes
	system time =       7.35 seconds =       0.12 minutes
	total time  =          8 seconds =       0.13 minutes

  //>>>>>>>>>>>>>>>>>>>>>>>>>>>>>>>>>>>//
  //    Loading displacement 3 of 3    //
  //<<<<<<<<<<<<<<<<<<<<<<<<<<<<<<<<<<<//

*** tstart() called on bp1-compute00190.data.bp.acrc.priv
*** at Tue Apr 27 17:29:40 2021

   => Loading Basis Set <=

    Name: AUG-CC-PV(T+D)Z
    Role: ORBITAL
    Keyword: BASIS
    atoms 1   entry C          line   255 file /work/zw18965/.conda/envs/p4env/share/psi4/basis/aug-cc-pv_tpd_z.gbs 
    atoms 2-3 entry O          line   347 file /work/zw18965/.conda/envs/p4env/share/psi4/basis/aug-cc-pv_tpd_z.gbs 


         ---------------------------------------------------------
                                   SCF
               by Justin Turney, Rob Parrish, Andy Simmonett
                          and Daniel G. A. Smith
                              RKS Reference
                       24 Threads, 137329 MiB Core
         ---------------------------------------------------------

  ==> Geometry <==

    Molecular point group: d2h
    Full point group: D_inf_h

    Geometry (in Angstrom), charge = 0, multiplicity = 1:

       Center              X                  Y                   Z               Mass       
    ------------   -----------------  -----------------  -----------------  -----------------
         C            0.000000000000     0.000000000000     0.000000000000    12.000000000000
         O            0.000000000000     0.000000000000     1.163067805341    15.994914619570
         O            0.000000000000     0.000000000000    -1.163067805341    15.994914619570

  Running in d2h symmetry.

  Rotational constants: A = ************  B =      0.38956  C =      0.38956 [cm^-1]
  Rotational constants: A = ************  B =  11678.71900  C =  11678.71900 [MHz]
  Nuclear repulsion =   58.237948514001836

  Charge       = 0
  Multiplicity = 1
  Electrons    = 22
  Nalpha       = 11
  Nbeta        = 11

  ==> Algorithm <==

  SCF Algorithm Type is DF.
  DIIS enabled.
  MOM disabled.
  Fractional occupation disabled.
  Guess Type is SAD.
  Energy threshold   = 1.00e-08
  Density threshold  = 1.00e-08
  Integral threshold = 0.00e+00

  ==> Primary Basis <==

  Basis Set: AUG-CC-PV(T+D)Z
    Blend: AUG-CC-PV(T+D)Z
    Number of shells: 42
    Number of basis function: 138
    Number of Cartesian functions: 165
    Spherical Harmonics?: true
    Max angular momentum: 3

  ==> DFT Potential <==

   => Composite Functional: WB97M-V <= 

    wB97M-V Hyb-GGA Exchange-Correlation Functional

    N. Mardirossian and M. Head-Gordon, J. Chem. Phys. 144, 214110 (2016)

    Deriv               =              1
    GGA                 =           TRUE
    Meta                =           TRUE

    Exchange Hybrid     =           TRUE
    MP2 Hybrid          =          FALSE

   => Exchange-Correlation Functionals <=

    1.0000   wB97M-V exchange-correlation functional

   => Exact (HF) Exchange <=

    0.8500            HF,LR [omega = 0.3000]
    0.1500               HF 

   => VV10 Non-Local Parameters <=

    VV10 B              =     6.0000E+00
    VV10 C              =     1.0000E-02

   => Molecular Quadrature <=

    Radial Scheme          =       TREUTLER
    Pruning Scheme         =           FLAT
    Nuclear Scheme         =       TREUTLER

    BS radius alpha        =              1
    Pruning alpha          =              1
    Radial Points          =             75
    Spherical Points       =            302
    Total Points           =          67950
    Total Blocks           =            595
    Max Points             =            256
    Max Functions          =            138

   => Loading Basis Set <=

    Name: (AUG-CC-PV(T+D)Z AUX)
    Role: JKFIT
    Keyword: DF_BASIS_SCF
    atoms 1   entry C          line   162 file /work/zw18965/.conda/envs/p4env/share/psi4/basis/aug-cc-pvtz-jkfit.gbs 
    atoms 2-3 entry O          line   286 file /work/zw18965/.conda/envs/p4env/share/psi4/basis/aug-cc-pvtz-jkfit.gbs 

  ==> Pre-Iterations <==

   -------------------------------------------------------
    Irrep   Nso     Nmo     Nalpha   Nbeta   Ndocc  Nsocc
   -------------------------------------------------------
     Ag        30      30       0       0       0       0
     B1g        8       8       0       0       0       0
     B2g       14      14       0       0       0       0
     B3g       14      14       0       0       0       0
     Au         7       7       0       0       0       0
     B1u       27      27       0       0       0       0
     B2u       19      19       0       0       0       0
     B3u       19      19       0       0       0       0
   -------------------------------------------------------
    Total     138     138      11      11      11       0
   -------------------------------------------------------

  ==> Integral Setup <==

  ==> DiskDFJK: Density-Fitted J/K Matrices <==

    J tasked:                  Yes
    K tasked:                  Yes
    wK tasked:                 Yes
    Omega:               3.000E-01
    OpenMP threads:             24
    Integrals threads:          24
    Memory [MiB]:           102376
    Algorithm:                Core
    Integral Cache:           NONE
    Schwarz Cutoff:          1E-12
    Fitting Condition:       1E-10

   => Auxiliary Basis Set <=

  Basis Set: (AUG-CC-PV(T+D)Z AUX)
    Blend: AUG-CC-PVTZ-JKFIT
    Number of shells: 90
    Number of basis function: 312
    Number of Cartesian functions: 393
    Spherical Harmonics?: true
    Max angular momentum: 4

  Cached 100.0% of DFT collocation blocks in 0.606 [GiB].

  Minimum eigenvalue in the overlap matrix is 3.5295494734E-04.
  Using Symmetric Orthogonalization.

  SCF Guess: Superposition of Atomic Densities via on-the-fly atomic UHF.

  ==> Iterations <==

                           Total Energy        Delta E     RMS |[F,P]|

   @DF-RKS iter SAD:  -187.90922267284847   -1.87909e+02   0.00000e+00 
   @DF-RKS iter   1:  -188.50005144326764   -5.90829e-01   1.13507e-02 DIIS
   @DF-RKS iter   2:  -188.46096952580163    3.90819e-02   1.32969e-02 DIIS
   @DF-RKS iter   3:  -188.61560747655201   -1.54638e-01   5.65814e-04 DIIS
   @DF-RKS iter   4:  -188.61594915157235   -3.41675e-04   1.45144e-04 DIIS
   @DF-RKS iter   5:  -188.61597158712379   -2.24356e-05   1.12525e-05 DIIS
   @DF-RKS iter   6:  -188.61597182440275   -2.37279e-07   2.15607e-06 DIIS
   @DF-RKS iter   7:  -188.61597183398541   -9.58266e-09   3.47623e-07 DIIS
   @DF-RKS iter   8:  -188.61597183426068   -2.75264e-10   3.59628e-08 DIIS
   @DF-RKS iter   9:  -188.61597183426403   -3.35376e-12   6.34353e-09 DIIS
  Energy and wave function converged.


  ==> Post-Iterations <==

    Orbital Energies [Eh]
    ---------------------

    Doubly Occupied:                                                      

       1B1u  -19.420115     1Ag   -19.420055     2Ag   -10.542272  
       3Ag    -1.297313     2B1u   -1.254458     4Ag    -0.686181  
       3B1u   -0.637469     1B3u   -0.636078     1B2u   -0.636078  
       1B2g   -0.480016     1B3g   -0.480016  

    Virtual:                                                              

       5Ag     0.019951     2B2u    0.054776     2B3u    0.054776  
       4B1u    0.058995     3B3u    0.121714     3B2u    0.121714  
       6Ag     0.131190     2B2g    0.136944     2B3g    0.136944  
       7Ag     0.167493     5B1u    0.197100     4B2u    0.216184  
       4B3u    0.216184     1B1g    0.239991     8Ag     0.239991  
       6B1u    0.265117     9Ag     0.356896     5B2u    0.397902  
       5B3u    0.397902     3B2g    0.440442     3B3g    0.440442  
      10Ag     0.460577     7B1u    0.551197     1Au     0.595366  
       8B1u    0.595366    11Ag     0.643995    12Ag     0.711031  
       2B1g    0.711031     4B3g    0.723843     4B2g    0.723843  
       6B2u    0.794593     6B3u    0.794593     9B1u    0.795592  
      13Ag     0.846424    10B1u    0.961916     7B2u    0.965677  
       7B3u    0.965677     3B1g    0.993302    14Ag     0.993303  
       8B2u    1.009738     8B3u    1.009738     5B2g    1.100661  
       5B3g    1.100661    11B1u    1.109219    12B1u    1.246301  
       2Au     1.246306    13B1u    1.249242     6B2g    1.367728  
       6B3g    1.367728    15Ag     1.380636     9B2u    1.494451  
       9B3u    1.494451    16Ag     1.644147     7B2g    1.886111  
       7B3g    1.886111     3Au     2.020037    14B1u    2.020039  
      17Ag     2.071955     4B1g    2.071955    10B2u    2.126913  
      10B3u    2.126913    11B3u    2.136236    11B2u    2.136236  
      18Ag     2.190860    15B1u    2.211725    19Ag     2.295788  
       8B3g    2.318291     8B2g    2.318291    16B1u    2.386732  
       5B1g    2.451480    20Ag     2.451484    17B1u    2.603197  
       4Au     2.603204     9B2g    2.712755     9B3g    2.712755  
      18B1u    2.726147    12B2u    2.744728    12B3u    2.744728  
      13B3u    2.849962    13B2u    2.849962    21Ag     3.128938  
       6B1g    3.128939    14B3u    3.162285    14B2u    3.162285  
      22Ag     3.529702    19B1u    3.640660    10B2g    3.666805  
      10B3g    3.666805    20B1u    3.769360     5Au     3.769367  
      15B2u    3.847591    15B3u    3.847591    23Ag     4.224475  
      11B2g    4.609273    11B3g    4.609273    24Ag     4.945623  
      21B1u    5.159012    16B3u    5.402742    16B2u    5.402742  
      22B1u    5.446087    12B3g    6.094675    12B2g    6.094675  
      17B2u    6.207152    17B3u    6.207152    25Ag     6.329825  
       7B1g    6.329830    23B1u    6.536082     6Au     6.536088  
       8B1g    6.663725    26Ag     6.663738    13B2g    6.768548  
      13B3g    6.768548    24B1u    6.801473     7Au     6.827760  
      25B1u    6.827773    18B2u    6.912229    18B3u    6.912229  
      27Ag     7.011083    28Ag     7.115153    14B2g    7.335645  
      14B3g    7.335645    26B1u    7.634197    19B2u    7.743184  
      19B3u    7.743184    29Ag    13.473389    30Ag    15.621326  
      27B1u   20.652478  

    Final Occupation by Irrep:
             Ag   B1g   B2g   B3g    Au   B1u   B2u   B3u 
    DOCC [     4,    0,    1,    1,    0,    3,    1,    1 ]

  @DF-RKS Final Energy:  -188.61597183426403

   => Energetics <=

    Nuclear Repulsion Energy =             58.2379485140018360
    One-Electron Energy =                -372.4487638772679361
    Two-Electron Energy =                 141.8888535399230477
    DFT Exchange-Correlation Energy =     -16.3857540430940958
    Empirical Dispersion Energy =           0.0000000000000000
    VV10 Nonlocal Energy =                  0.0917440321730866
    Total Energy =                       -188.6159718342640303

Computation Completed


Properties will be evaluated at   0.000000,   0.000000,   0.000000 [a0]

Properties computed using the SCF density matrix

  Nuclear Dipole Moment: [e a0]
     X:     0.0000      Y:     0.0000      Z:     0.0000

  Electronic Dipole Moment: [e a0]
     X:     0.0000      Y:     0.0000      Z:     0.0000

  Dipole Moment: [e a0]
     X:     0.0000      Y:     0.0000      Z:     0.0000     Total:     0.0000

  Dipole Moment: [D]
     X:     0.0000      Y:     0.0000      Z:     0.0000     Total:     0.0000


*** tstop() called on bp1-compute00190.data.bp.acrc.priv at Tue Apr 27 17:29:43 2021
Module time:
	user time   =      75.94 seconds =       1.27 minutes
	system time =       2.41 seconds =       0.04 minutes
	total time  =          3 seconds =       0.05 minutes
Total time:
	user time   =     239.18 seconds =       3.99 minutes
	system time =       9.76 seconds =       0.16 minutes
	total time  =         11 seconds =       0.18 minutes

         ----------------------------------------------------------
                                   FINDIF
                     R. A. King and Jonathon Misiewicz
         ---------------------------------------------------------

  Computing gradient from energies.
    Using 3-point formula.
    Energy without displacement: -188.6159859385
    Check energies below for precision!
    Forces are for mass-weighted, symmetry-adapted cartesians (in au).

     Coord      Energy(-1)        Energy(+1)            Force
        0   -188.6159982602   -188.6159718343      0.0026425919


-------------------------------------------------------------
  ## New Matrix (Symmetry 0) ##
  Irrep: 1 Size: 3 x 3

                 1                   2                   3

    1     0.00000000000000     0.00000000000000     0.00000000000000
    2     0.00000000000000     0.00000000000000     0.00747319067767
    3     0.00000000000000     0.00000000000000    -0.00747319067767




			-----------------------------------------
			 OPTKING 2.0: for geometry optimizations 
			  - R.A. King,  Bethel University        
			-----------------------------------------
	At level 1: Red. Int., RFO, no backsteps, dynamic trust

	Internal coordinates to be generated automatically.
	Detected frag 1 with atoms:  1 2 3
	---Fragment 1 Bond Connectivity---
	 1 : 2 3
	 2 : 1
	 3 : 1

	---Fragment 1 Geometry and Gradient---
	 C           0.0000000000        0.0000000000        0.0000000000
	 O           0.0000000000        0.0000000000        2.1969955935
	 O           0.0000000000        0.0000000000       -2.1969955935
	             0.0000000000        0.0000000000        0.0000000000
	             0.0000000000        0.0000000000        0.0074731907
	             0.0000000000        0.0000000000       -0.0074731907

	Previous optimization step data not found.  Starting new optimization.

	---Fragment 1 Intrafragment Coordinates---
	 - Coordinate -           - BOHR/RAD -       - ANG/DEG -
	 R(1,2)           =         2.196996	       1.162600
	 R(1,3)           =         2.196996	       1.162600
	 L(2,1,3)         =         3.141593	     180.000000
	 l(2,1,3)         =         3.141593	     180.000000

	Current energy   :      -188.6159859385

	Generating empirical Hessian (Schlegel '84) for each fragment.
	Taking RFO optimization step.
	Going to follow RFO solution 1.
	Using RFO vector 1.
	Norm of target step-size    0.00838
	Projected energy change by RFO approximation:        -0.0000885607

	Back-transformation to cartesian coordinates...
	Successfully converged to displaced geometry.

	--- Internal Coordinate Step in ANG or DEG, aJ/ANG or AJ/DEG ---
	 ---------------------------------------------------------------------------
	   Coordinate                Previous        Force       Change         New 
	   ----------                --------       ------       ------       ------
	    1 R(1,2)          =      1.162600    -0.061570    -0.003136     1.159464
	    2 R(1,3)          =      1.162600    -0.061570    -0.003136     1.159464
	    3 L(2,1,3)        =    180.000000     0.000000     0.000000   180.000000
	    4 l(2,1,3)        =    180.000000     0.000000     0.000000   180.000000
	 ---------------------------------------------------------------------------
	Successfully symmetrized geometry.

  ==> Convergence Check <==

  Measures of convergence in internal coordinates in au.
  Criteria marked as inactive (o), active & met (*), and active & unmet ( ).
  --------------------------------------------------------------------------------------------- ~
   Step     Total Energy     Delta E     MAX Force     RMS Force      MAX Disp      RMS Disp    ~
  --------------------------------------------------------------------------------------------- ~
    Convergence Criteria    1.00e-06 *    3.00e-04 *             o    1.20e-03 *             o  ~
  --------------------------------------------------------------------------------------------- ~
      1    -188.61598594   -1.89e+02      7.47e-03      5.28e-03 o    5.93e-03      4.19e-03 o  ~
  ---------------------------------------------------------------------------------------------

	Writing optimization data to binary file.
	Structure for next step:
	Cartesian Geometry (in Angstrom)
	    C     0.0000000000   0.0000000000   0.0000000000
	    O     0.0000000000  -0.0000000000   1.1594642789
	    O     0.0000000000  -0.0000000000  -1.1594642789
			--------------------------
			 OPTKING Finished Execution 
			--------------------------

    Structure for next step:
    Molecular point group: d2h
    Full point group: D_inf_h

    Geometry (in Angstrom), charge = 0, multiplicity = 1:

    C            0.000000000000     0.000000000000     0.000000000000
    O           -0.000000000000     0.000000000000     1.159464283424
    O           -0.000000000000     0.000000000000    -1.159464283424

gradient() will perform gradient computation by finite difference of analytic energies.

         ----------------------------------------------------------
                                   FINDIF
                     R. A. King and Jonathon Misiewicz
         ---------------------------------------------------------

  Using finite-differences of energies to determine gradients.
    Generating geometries for use with 3-point formula.
    Displacement size will be 5.00e-03.
    Number of atoms is 3.
    Number of symmetric SALCs is 1.
    Translations projected? 1. Rotations projected? 1.
    Number of geometries (including reference) is 3.

  //>>>>>>>>>>>>>>>>>>>>>>>>>>>>>>>>>>>//
  //    Loading displacement 1 of 3    //
  //<<<<<<<<<<<<<<<<<<<<<<<<<<<<<<<<<<<//

*** tstart() called on bp1-compute00190.data.bp.acrc.priv
*** at Tue Apr 27 17:29:43 2021

   => Loading Basis Set <=

    Name: AUG-CC-PV(T+D)Z
    Role: ORBITAL
    Keyword: BASIS
    atoms 1   entry C          line   255 file /work/zw18965/.conda/envs/p4env/share/psi4/basis/aug-cc-pv_tpd_z.gbs 
    atoms 2-3 entry O          line   347 file /work/zw18965/.conda/envs/p4env/share/psi4/basis/aug-cc-pv_tpd_z.gbs 


         ---------------------------------------------------------
                                   SCF
               by Justin Turney, Rob Parrish, Andy Simmonett
                          and Daniel G. A. Smith
                              RKS Reference
                       24 Threads, 137329 MiB Core
         ---------------------------------------------------------

  ==> Geometry <==

    Molecular point group: d2h
    Full point group: D_inf_h

    Geometry (in Angstrom), charge = 0, multiplicity = 1:

       Center              X                  Y                   Z               Mass       
    ------------   -----------------  -----------------  -----------------  -----------------
         C           -0.000000000000     0.000000000000     0.000000000000    12.000000000000
         O            0.000000000000     0.000000000000     1.159464283424    15.994914619570
         O            0.000000000000     0.000000000000    -1.159464283424    15.994914619570

  Running in d2h symmetry.

  Rotational constants: A = ************  B =      0.39199  C =      0.39199 [cm^-1]
  Rotational constants: A = ************  B =  11751.42485  C =  11751.42485 [MHz]
  Nuclear repulsion =   58.418947382927975

  Charge       = 0
  Multiplicity = 1
  Electrons    = 22
  Nalpha       = 11
  Nbeta        = 11

  ==> Algorithm <==

  SCF Algorithm Type is DF.
  DIIS enabled.
  MOM disabled.
  Fractional occupation disabled.
  Guess Type is READ.
  Energy threshold   = 1.00e-08
  Density threshold  = 1.00e-08
  Integral threshold = 0.00e+00

  ==> Primary Basis <==

  Basis Set: AUG-CC-PV(T+D)Z
    Blend: AUG-CC-PV(T+D)Z
    Number of shells: 42
    Number of basis function: 138
    Number of Cartesian functions: 165
    Spherical Harmonics?: true
    Max angular momentum: 3

  ==> DFT Potential <==

   => Composite Functional: WB97M-V <= 

    wB97M-V Hyb-GGA Exchange-Correlation Functional

    N. Mardirossian and M. Head-Gordon, J. Chem. Phys. 144, 214110 (2016)

    Deriv               =              1
    GGA                 =           TRUE
    Meta                =           TRUE

    Exchange Hybrid     =           TRUE
    MP2 Hybrid          =          FALSE

   => Exchange-Correlation Functionals <=

    1.0000   wB97M-V exchange-correlation functional

   => Exact (HF) Exchange <=

    0.8500            HF,LR [omega = 0.3000]
    0.1500               HF 

   => VV10 Non-Local Parameters <=

    VV10 B              =     6.0000E+00
    VV10 C              =     1.0000E-02

   => Molecular Quadrature <=

    Radial Scheme          =       TREUTLER
    Pruning Scheme         =           FLAT
    Nuclear Scheme         =       TREUTLER

    BS radius alpha        =              1
    Pruning alpha          =              1
    Radial Points          =             75
    Spherical Points       =            302
    Total Points           =          67950
    Total Blocks           =            594
    Max Points             =            256
    Max Functions          =            138

   => Loading Basis Set <=

    Name: (AUG-CC-PV(T+D)Z AUX)
    Role: JKFIT
    Keyword: DF_BASIS_SCF
    atoms 1   entry C          line   162 file /work/zw18965/.conda/envs/p4env/share/psi4/basis/aug-cc-pvtz-jkfit.gbs 
    atoms 2-3 entry O          line   286 file /work/zw18965/.conda/envs/p4env/share/psi4/basis/aug-cc-pvtz-jkfit.gbs 

   => Loading Basis Set <=

    Name: AUG-CC-PV(T+D)Z
    Role: ORBITAL
    Keyword: BASIS
    atoms 1   entry C          line   255 file /work/zw18965/.conda/envs/p4env/share/psi4/basis/aug-cc-pv_tpd_z.gbs 
    atoms 2-3 entry O          line   347 file /work/zw18965/.conda/envs/p4env/share/psi4/basis/aug-cc-pv_tpd_z.gbs 

  Reading orbitals from file 180, no projection.

  ==> Pre-Iterations <==

   -------------------------------------------------------
    Irrep   Nso     Nmo     Nalpha   Nbeta   Ndocc  Nsocc
   -------------------------------------------------------
     Ag        30      30       0       0       0       0
     B1g        8       8       0       0       0       0
     B2g       14      14       0       0       0       0
     B3g       14      14       0       0       0       0
     Au         7       7       0       0       0       0
     B1u       27      27       0       0       0       0
     B2u       19      19       0       0       0       0
     B3u       19      19       0       0       0       0
   -------------------------------------------------------
    Total     138     138      11      11      11       0
   -------------------------------------------------------

  ==> Integral Setup <==

  ==> DiskDFJK: Density-Fitted J/K Matrices <==

    J tasked:                  Yes
    K tasked:                  Yes
    wK tasked:                 Yes
    Omega:               3.000E-01
    OpenMP threads:             24
    Integrals threads:          24
    Memory [MiB]:           102376
    Algorithm:                Core
    Integral Cache:           NONE
    Schwarz Cutoff:          1E-12
    Fitting Condition:       1E-10

   => Auxiliary Basis Set <=

  Basis Set: (AUG-CC-PV(T+D)Z AUX)
    Blend: AUG-CC-PVTZ-JKFIT
    Number of shells: 90
    Number of basis function: 312
    Number of Cartesian functions: 393
    Spherical Harmonics?: true
    Max angular momentum: 4

  Cached 100.0% of DFT collocation blocks in 0.606 [GiB].

  Minimum eigenvalue in the overlap matrix is 3.4961764413E-04.
  Using Symmetric Orthogonalization.

  SCF Guess: Orbitals guess was supplied from a previous computation.

  ==> Iterations <==

                           Total Energy        Delta E     RMS |[F,P]|

   @DF-RKS iter   0:  -188.61847978880840   -1.88618e+02   3.38772e-04 
   @DF-RKS iter   1:  -188.61603020774353    2.44958e-03   5.80249e-05 DIIS
   @DF-RKS iter   2:  -188.61603173432229   -1.52658e-06   5.13349e-05 DIIS
   @DF-RKS iter   3:  -188.61603414604437   -2.41172e-06   1.05063e-05 DIIS
   @DF-RKS iter   4:  -188.61603423978158   -9.37372e-08   1.57241e-06 DIIS
   @DF-RKS iter   5:  -188.61603424472395   -4.94236e-09   3.39828e-07 DIIS
   @DF-RKS iter   6:  -188.61603424505617   -3.32221e-10   4.92259e-08 DIIS
   @DF-RKS iter   7:  -188.61603424506080   -4.63274e-12   4.81766e-09 DIIS
  Energy and wave function converged.


  ==> Post-Iterations <==

    Orbital Energies [Eh]
    ---------------------

    Doubly Occupied:                                                      

       1B1u  -19.419242     1Ag   -19.419181     2Ag   -10.540589  
       3Ag    -1.298950     2B1u   -1.256115     4Ag    -0.685521  
       3B1u   -0.637684     1B2u   -0.637344     1B3u   -0.637344  
       1B2g   -0.480165     1B3g   -0.480165  

    Virtual:                                                              

       5Ag     0.020128     2B3u    0.054746     2B2u    0.054746  
       4B1u    0.059015     3B2u    0.124134     3B3u    0.124134  
       6Ag     0.131270     2B2g    0.136940     2B3g    0.136940  
       7Ag     0.168291     5B1u    0.197223     4B3u    0.216153  
       4B2u    0.216153     1B1g    0.239958     8Ag     0.239959  
       6B1u    0.265077     9Ag     0.359314     5B2u    0.398236  
       5B3u    0.398236     3B2g    0.440385     3B3g    0.440385  
      10Ag     0.461141     7B1u    0.551475     1Au     0.595366  
       8B1u    0.595367    11Ag     0.645148     2B1g    0.710893  
      12Ag     0.710893     4B3g    0.724898     4B2g    0.724898  
       6B2u    0.794183     6B3u    0.794183     9B1u    0.796839  
      13Ag     0.847111    10B1u    0.962484     7B3u    0.965736  
       7B2u    0.965736     3B1g    0.994620    14Ag     0.994621  
       8B3u    1.010681     8B2u    1.010681     5B2g    1.100822  
       5B3g    1.100822    11B1u    1.118055    12B1u    1.246427  
       2Au     1.246431    13B1u    1.248989     6B2g    1.370108  
       6B3g    1.370108    15Ag     1.380378     9B3u    1.496328  
       9B2u    1.496328    16Ag     1.643123     7B2g    1.886355  
       7B3g    1.886355     3Au     2.021122    14B1u    2.021123  
      17Ag     2.072327     4B1g    2.072327    10B3u    2.128706  
      10B2u    2.128706    11B3u    2.136633    11B2u    2.136633  
      18Ag     2.192968    15B1u    2.206659    19Ag     2.303142  
       8B3g    2.322075     8B2g    2.322075    16B1u    2.387276  
       5B1g    2.454440    20Ag     2.454444    17B1u    2.603159  
       4Au     2.603165     9B2g    2.709836     9B3g    2.709836  
      18B1u    2.726369    12B3u    2.749179    12B2u    2.749179  
      13B2u    2.851344    13B3u    2.851344    21Ag     3.131220  
       6B1g    3.131220    14B2u    3.162734    14B3u    3.162734  
      22Ag     3.544423    19B1u    3.650041    10B2g    3.670254  
      10B3g    3.670254    20B1u    3.777228     5Au     3.777234  
      15B2u    3.849890    15B3u    3.849890    23Ag     4.226127  
      11B2g    4.621906    11B3g    4.621906    24Ag     4.946758  
      21B1u    5.183488    16B2u    5.414267    16B3u    5.414267  
      22B1u    5.431200    12B3g    6.094749    12B2g    6.094749  
      17B2u    6.208188    17B3u    6.208188    25Ag     6.331488  
       7B1g    6.331493    23B1u    6.539311     6Au     6.539318  
       8B1g    6.664633    26Ag     6.664646    13B2g    6.779798  
      13B3g    6.779798    24B1u    6.810432     7Au     6.830798  
      25B1u    6.830811    18B2u    6.913126    18B3u    6.913126  
      27Ag     7.014933    28Ag     7.126636    14B2g    7.336643  
      14B3g    7.336643    26B1u    7.644650    19B2u    7.755590  
      19B3u    7.755590    29Ag    13.557385    30Ag    15.712309  
      27B1u   20.819808  

    Final Occupation by Irrep:
             Ag   B1g   B2g   B3g    Au   B1u   B2u   B3u 
    DOCC [     4,    0,    1,    1,    0,    3,    1,    1 ]

  @DF-RKS Final Energy:  -188.61603424506080

   => Energetics <=

    Nuclear Repulsion Energy =             58.4189473829279748
    One-Electron Energy =                -372.8028652855142582
    Two-Electron Energy =                 142.0679281201048525
    DFT Exchange-Correlation Energy =     -16.3917871891699996
    Empirical Dispersion Energy =           0.0000000000000000
    VV10 Nonlocal Energy =                  0.0917427265906479
    Total Energy =                       -188.6160342450608027

Computation Completed


Properties will be evaluated at   0.000000,   0.000000,   0.000000 [a0]

Properties computed using the SCF density matrix

  Nuclear Dipole Moment: [e a0]
     X:     0.0000      Y:    -0.0000      Z:     0.0000

  Electronic Dipole Moment: [e a0]
     X:     0.0000      Y:     0.0000      Z:     0.0000

  Dipole Moment: [e a0]
     X:     0.0000      Y:    -0.0000      Z:     0.0000     Total:     0.0000

  Dipole Moment: [D]
     X:     0.0000      Y:    -0.0000      Z:     0.0000     Total:     0.0000


*** tstop() called on bp1-compute00190.data.bp.acrc.priv at Tue Apr 27 17:29:46 2021
Module time:
	user time   =      58.47 seconds =       0.97 minutes
	system time =       1.47 seconds =       0.02 minutes
	total time  =          3 seconds =       0.05 minutes
Total time:
	user time   =     298.02 seconds =       4.97 minutes
	system time =      11.25 seconds =       0.19 minutes
	total time  =         14 seconds =       0.23 minutes

  //>>>>>>>>>>>>>>>>>>>>>>>>>>>>>>>>>>>//
  //    Loading displacement 2 of 3    //
  //<<<<<<<<<<<<<<<<<<<<<<<<<<<<<<<<<<<//

*** tstart() called on bp1-compute00190.data.bp.acrc.priv
*** at Tue Apr 27 17:29:46 2021

   => Loading Basis Set <=

    Name: AUG-CC-PV(T+D)Z
    Role: ORBITAL
    Keyword: BASIS
    atoms 1   entry C          line   255 file /work/zw18965/.conda/envs/p4env/share/psi4/basis/aug-cc-pv_tpd_z.gbs 
    atoms 2-3 entry O          line   347 file /work/zw18965/.conda/envs/p4env/share/psi4/basis/aug-cc-pv_tpd_z.gbs 


         ---------------------------------------------------------
                                   SCF
               by Justin Turney, Rob Parrish, Andy Simmonett
                          and Daniel G. A. Smith
                              RKS Reference
                       24 Threads, 137329 MiB Core
         ---------------------------------------------------------

  ==> Geometry <==

    Molecular point group: d2h
    Full point group: D_inf_h

    Geometry (in Angstrom), charge = 0, multiplicity = 1:

       Center              X                  Y                   Z               Mass       
    ------------   -----------------  -----------------  -----------------  -----------------
         C           -0.000000000000     0.000000000000     0.000000000000    12.000000000000
         O            0.000000000000     0.000000000000     1.158996478083    15.994914619570
         O            0.000000000000     0.000000000000    -1.158996478083    15.994914619570

  Running in d2h symmetry.

  Rotational constants: A = ************  B =      0.39230  C =      0.39230 [cm^-1]
  Rotational constants: A = ************  B =  11760.91321  C =  11760.91321 [MHz]
  Nuclear repulsion =   58.442527002138135

  Charge       = 0
  Multiplicity = 1
  Electrons    = 22
  Nalpha       = 11
  Nbeta        = 11

  ==> Algorithm <==

  SCF Algorithm Type is DF.
  DIIS enabled.
  MOM disabled.
  Fractional occupation disabled.
  Guess Type is READ.
  Energy threshold   = 1.00e-08
  Density threshold  = 1.00e-08
  Integral threshold = 0.00e+00

  ==> Primary Basis <==

  Basis Set: AUG-CC-PV(T+D)Z
    Blend: AUG-CC-PV(T+D)Z
    Number of shells: 42
    Number of basis function: 138
    Number of Cartesian functions: 165
    Spherical Harmonics?: true
    Max angular momentum: 3

  ==> DFT Potential <==

   => Composite Functional: WB97M-V <= 

    wB97M-V Hyb-GGA Exchange-Correlation Functional

    N. Mardirossian and M. Head-Gordon, J. Chem. Phys. 144, 214110 (2016)

    Deriv               =              1
    GGA                 =           TRUE
    Meta                =           TRUE

    Exchange Hybrid     =           TRUE
    MP2 Hybrid          =          FALSE

   => Exchange-Correlation Functionals <=

    1.0000   wB97M-V exchange-correlation functional

   => Exact (HF) Exchange <=

    0.8500            HF,LR [omega = 0.3000]
    0.1500               HF 

   => VV10 Non-Local Parameters <=

    VV10 B              =     6.0000E+00
    VV10 C              =     1.0000E-02

   => Molecular Quadrature <=

    Radial Scheme          =       TREUTLER
    Pruning Scheme         =           FLAT
    Nuclear Scheme         =       TREUTLER

    BS radius alpha        =              1
    Pruning alpha          =              1
    Radial Points          =             75
    Spherical Points       =            302
    Total Points           =          67950
    Total Blocks           =            594
    Max Points             =            256
    Max Functions          =            138

   => Loading Basis Set <=

    Name: (AUG-CC-PV(T+D)Z AUX)
    Role: JKFIT
    Keyword: DF_BASIS_SCF
    atoms 1   entry C          line   162 file /work/zw18965/.conda/envs/p4env/share/psi4/basis/aug-cc-pvtz-jkfit.gbs 
    atoms 2-3 entry O          line   286 file /work/zw18965/.conda/envs/p4env/share/psi4/basis/aug-cc-pvtz-jkfit.gbs 

   => Loading Basis Set <=

    Name: AUG-CC-PV(T+D)Z
    Role: ORBITAL
    Keyword: BASIS
    atoms 1   entry C          line   255 file /work/zw18965/.conda/envs/p4env/share/psi4/basis/aug-cc-pv_tpd_z.gbs 
    atoms 2-3 entry O          line   347 file /work/zw18965/.conda/envs/p4env/share/psi4/basis/aug-cc-pv_tpd_z.gbs 

  Reading orbitals from file 180, no projection.

  ==> Pre-Iterations <==

   -------------------------------------------------------
    Irrep   Nso     Nmo     Nalpha   Nbeta   Ndocc  Nsocc
   -------------------------------------------------------
     Ag        30      30       0       0       0       0
     B1g        8       8       0       0       0       0
     B2g       14      14       0       0       0       0
     B3g       14      14       0       0       0       0
     Au         7       7       0       0       0       0
     B1u       27      27       0       0       0       0
     B2u       19      19       0       0       0       0
     B3u       19      19       0       0       0       0
   -------------------------------------------------------
    Total     138     138      11      11      11       0
   -------------------------------------------------------

  ==> Integral Setup <==

  ==> DiskDFJK: Density-Fitted J/K Matrices <==

    J tasked:                  Yes
    K tasked:                  Yes
    wK tasked:                 Yes
    Omega:               3.000E-01
    OpenMP threads:             24
    Integrals threads:          24
    Memory [MiB]:           102376
    Algorithm:                Core
    Integral Cache:           NONE
    Schwarz Cutoff:          1E-12
    Fitting Condition:       1E-10

   => Auxiliary Basis Set <=

  Basis Set: (AUG-CC-PV(T+D)Z AUX)
    Blend: AUG-CC-PVTZ-JKFIT
    Number of shells: 90
    Number of basis function: 312
    Number of Cartesian functions: 393
    Spherical Harmonics?: true
    Max angular momentum: 4

  Cached 100.0% of DFT collocation blocks in 0.606 [GiB].

  Minimum eigenvalue in the overlap matrix is 3.4918969378E-04.
  Using Symmetric Orthogonalization.

  SCF Guess: Orbitals guess was supplied from a previous computation.

  ==> Iterations <==

                           Total Energy        Delta E     RMS |[F,P]|

   @DF-RKS iter   0:  -188.61638627881473   -1.88616e+02   5.08800e-05 
   @DF-RKS iter   1:  -188.61603439895308    3.51880e-04   8.65440e-06 DIIS
   @DF-RKS iter   2:  -188.61603443306603   -3.41130e-08   7.63791e-06 DIIS
   @DF-RKS iter   3:  -188.61603448643137   -5.33653e-08   1.56731e-06 DIIS
   @DF-RKS iter   4:  -188.61603448851636   -2.08499e-09   2.34553e-07 DIIS
   @DF-RKS iter   5:  -188.61603448862559   -1.09225e-10   5.06872e-08 DIIS
   @DF-RKS iter   6:  -188.61603448863298   -7.38964e-12   7.33793e-09 DIIS
  Energy and wave function converged.


  ==> Post-Iterations <==

    Orbital Energies [Eh]
    ---------------------

    Doubly Occupied:                                                      

       1B1u  -19.419128     1Ag   -19.419067     2Ag   -10.540370  
       3Ag    -1.299163     2B1u   -1.256331     4Ag    -0.685435  
       3B1u   -0.637711     1B2u   -0.637509     1B3u   -0.637509  
       1B3g   -0.480184     1B2g   -0.480184  

    Virtual:                                                              

       5Ag     0.020150     2B2u    0.054742     2B3u    0.054742  
       4B1u    0.059018     3B2u    0.124449     3B3u    0.124449  
       6Ag     0.131281     2B2g    0.136940     2B3g    0.136940  
       7Ag     0.168394     5B1u    0.197239     4B2u    0.216149  
       4B3u    0.216149     1B1g    0.239954     8Ag     0.239954  
       6B1u    0.265072     9Ag     0.359627     5B2u    0.398281  
       5B3u    0.398281     3B2g    0.440377     3B3g    0.440377  
      10Ag     0.461215     7B1u    0.551511     1Au     0.595366  
       8B1u    0.595367    11Ag     0.645300     2B1g    0.710875  
      12Ag     0.710875     4B3g    0.725036     4B2g    0.725036  
       6B2u    0.794129     6B3u    0.794129     9B1u    0.796993  
      13Ag     0.847202    10B1u    0.962560     7B3u    0.965744  
       7B2u    0.965744     3B1g    0.994792    14Ag     0.994793  
       8B2u    1.010803     8B3u    1.010803     5B3g    1.100841  
       5B2g    1.100841    11B1u    1.119215    12B1u    1.246443  
       2Au     1.246448    13B1u    1.248958     6B3g    1.370424  
       6B2g    1.370424    15Ag     1.380341     9B3u    1.496571  
       9B2u    1.496571    16Ag     1.642997     7B2g    1.886387  
       7B3g    1.886387     3Au     2.021263    14B1u    2.021265  
      17Ag     2.072374     4B1g    2.072374    10B3u    2.128939  
      10B2u    2.128939    11B2u    2.136682    11B3u    2.136682  
      18Ag     2.193245    15B1u    2.205996    19Ag     2.304096  
       8B3g    2.322568     8B2g    2.322568    16B1u    2.387365  
       5B1g    2.454822    20Ag     2.454827    17B1u    2.603154  
       4Au     2.603160     9B3g    2.709457     9B2g    2.709457  
      18B1u    2.726399    12B2u    2.749721    12B3u    2.749721  
      13B2u    2.851559    13B3u    2.851559    21Ag     3.131521  
       6B1g    3.131521    14B2u    3.162793    14B3u    3.162793  
      22Ag     3.546339    19B1u    3.651262    10B3g    3.670706  
      10B2g    3.670706    20B1u    3.778253     5Au     3.778259  
      15B3u    3.850188    15B2u    3.850188    23Ag     4.226333  
      11B2g    4.623550    11B3g    4.623550    24Ag     4.946915  
      21B1u    5.186631    16B2u    5.415758    16B3u    5.415758  
      22B1u    5.429350    12B3g    6.094759    12B2g    6.094759  
      17B2u    6.208323    17B3u    6.208323    25Ag     6.331705  
       7B1g    6.331710    23B1u    6.539737     6Au     6.539743  
       8B1g    6.664753    26Ag     6.664765    13B2g    6.781271  
      13B3g    6.781271    24B1u    6.811619     7Au     6.831191  
      25B1u    6.831204    18B3u    6.913226    18B2u    6.913226  
      27Ag     7.015437    28Ag     7.128133    14B2g    7.336766  
      14B3g    7.336766    26B1u    7.646020    19B3u    7.757195  
      19B2u    7.757195    29Ag    13.568281    30Ag    15.724267  
      27B1u   20.841549  

    Final Occupation by Irrep:
             Ag   B1g   B2g   B3g    Au   B1u   B2u   B3u 
    DOCC [     4,    0,    1,    1,    0,    3,    1,    1 ]

  @DF-RKS Final Energy:  -188.61603448863298

   => Energetics <=

    Nuclear Repulsion Energy =             58.4425270021381351
    One-Electron Energy =                -372.8489803955915249
    Two-Electron Energy =                 142.0912504966171639
    DFT Exchange-Correlation Energy =     -16.3925741512839096
    Empirical Dispersion Energy =           0.0000000000000000
    VV10 Nonlocal Energy =                  0.0917425594871238
    Total Energy =                       -188.6160344886330051

Computation Completed


Properties will be evaluated at   0.000000,   0.000000,   0.000000 [a0]

Properties computed using the SCF density matrix

  Nuclear Dipole Moment: [e a0]
     X:     0.0000      Y:    -0.0000      Z:     0.0000

  Electronic Dipole Moment: [e a0]
     X:     0.0000      Y:     0.0000      Z:     0.0000

  Dipole Moment: [e a0]
     X:     0.0000      Y:    -0.0000      Z:     0.0000     Total:     0.0000

  Dipole Moment: [D]
     X:     0.0000      Y:    -0.0000      Z:     0.0000     Total:     0.0000


*** tstop() called on bp1-compute00190.data.bp.acrc.priv at Tue Apr 27 17:29:48 2021
Module time:
	user time   =      57.79 seconds =       0.96 minutes
	system time =       1.77 seconds =       0.03 minutes
	total time  =          2 seconds =       0.03 minutes
Total time:
	user time   =     355.94 seconds =       5.93 minutes
	system time =      13.03 seconds =       0.22 minutes
	total time  =         16 seconds =       0.27 minutes

  //>>>>>>>>>>>>>>>>>>>>>>>>>>>>>>>>>>>//
  //    Loading displacement 3 of 3    //
  //<<<<<<<<<<<<<<<<<<<<<<<<<<<<<<<<<<<//

*** tstart() called on bp1-compute00190.data.bp.acrc.priv
*** at Tue Apr 27 17:29:48 2021

   => Loading Basis Set <=

    Name: AUG-CC-PV(T+D)Z
    Role: ORBITAL
    Keyword: BASIS
    atoms 1   entry C          line   255 file /work/zw18965/.conda/envs/p4env/share/psi4/basis/aug-cc-pv_tpd_z.gbs 
    atoms 2-3 entry O          line   347 file /work/zw18965/.conda/envs/p4env/share/psi4/basis/aug-cc-pv_tpd_z.gbs 


         ---------------------------------------------------------
                                   SCF
               by Justin Turney, Rob Parrish, Andy Simmonett
                          and Daniel G. A. Smith
                              RKS Reference
                       24 Threads, 137329 MiB Core
         ---------------------------------------------------------

  ==> Geometry <==

    Molecular point group: d2h
    Full point group: D_inf_h

    Geometry (in Angstrom), charge = 0, multiplicity = 1:

       Center              X                  Y                   Z               Mass       
    ------------   -----------------  -----------------  -----------------  -----------------
         C           -0.000000000000     0.000000000000     0.000000000000    12.000000000000
         O            0.000000000000     0.000000000000     1.159932088766    15.994914619570
         O            0.000000000000     0.000000000000    -1.159932088766    15.994914619570

  Running in d2h symmetry.

  Rotational constants: A = ************  B =      0.39167  C =      0.39167 [cm^-1]
  Rotational constants: A = ************  B =  11741.94796  C =  11741.94796 [MHz]
  Nuclear repulsion =   58.395386783230968

  Charge       = 0
  Multiplicity = 1
  Electrons    = 22
  Nalpha       = 11
  Nbeta        = 11

  ==> Algorithm <==

  SCF Algorithm Type is DF.
  DIIS enabled.
  MOM disabled.
  Fractional occupation disabled.
  Guess Type is READ.
  Energy threshold   = 1.00e-08
  Density threshold  = 1.00e-08
  Integral threshold = 0.00e+00

  ==> Primary Basis <==

  Basis Set: AUG-CC-PV(T+D)Z
    Blend: AUG-CC-PV(T+D)Z
    Number of shells: 42
    Number of basis function: 138
    Number of Cartesian functions: 165
    Spherical Harmonics?: true
    Max angular momentum: 3

  ==> DFT Potential <==

   => Composite Functional: WB97M-V <= 

    wB97M-V Hyb-GGA Exchange-Correlation Functional

    N. Mardirossian and M. Head-Gordon, J. Chem. Phys. 144, 214110 (2016)

    Deriv               =              1
    GGA                 =           TRUE
    Meta                =           TRUE

    Exchange Hybrid     =           TRUE
    MP2 Hybrid          =          FALSE

   => Exchange-Correlation Functionals <=

    1.0000   wB97M-V exchange-correlation functional

   => Exact (HF) Exchange <=

    0.8500            HF,LR [omega = 0.3000]
    0.1500               HF 

   => VV10 Non-Local Parameters <=

    VV10 B              =     6.0000E+00
    VV10 C              =     1.0000E-02

   => Molecular Quadrature <=

    Radial Scheme          =       TREUTLER
    Pruning Scheme         =           FLAT
    Nuclear Scheme         =       TREUTLER

    BS radius alpha        =              1
    Pruning alpha          =              1
    Radial Points          =             75
    Spherical Points       =            302
    Total Points           =          67950
    Total Blocks           =            594
    Max Points             =            256
    Max Functions          =            138

   => Loading Basis Set <=

    Name: (AUG-CC-PV(T+D)Z AUX)
    Role: JKFIT
    Keyword: DF_BASIS_SCF
    atoms 1   entry C          line   162 file /work/zw18965/.conda/envs/p4env/share/psi4/basis/aug-cc-pvtz-jkfit.gbs 
    atoms 2-3 entry O          line   286 file /work/zw18965/.conda/envs/p4env/share/psi4/basis/aug-cc-pvtz-jkfit.gbs 

   => Loading Basis Set <=

    Name: AUG-CC-PV(T+D)Z
    Role: ORBITAL
    Keyword: BASIS
    atoms 1   entry C          line   255 file /work/zw18965/.conda/envs/p4env/share/psi4/basis/aug-cc-pv_tpd_z.gbs 
    atoms 2-3 entry O          line   347 file /work/zw18965/.conda/envs/p4env/share/psi4/basis/aug-cc-pv_tpd_z.gbs 

  Reading orbitals from file 180, no projection.

  ==> Pre-Iterations <==

   -------------------------------------------------------
    Irrep   Nso     Nmo     Nalpha   Nbeta   Ndocc  Nsocc
   -------------------------------------------------------
     Ag        30      30       0       0       0       0
     B1g        8       8       0       0       0       0
     B2g       14      14       0       0       0       0
     B3g       14      14       0       0       0       0
     Au         7       7       0       0       0       0
     B1u       27      27       0       0       0       0
     B2u       19      19       0       0       0       0
     B3u       19      19       0       0       0       0
   -------------------------------------------------------
    Total     138     138      11      11      11       0
   -------------------------------------------------------

  ==> Integral Setup <==

  ==> DiskDFJK: Density-Fitted J/K Matrices <==

    J tasked:                  Yes
    K tasked:                  Yes
    wK tasked:                 Yes
    Omega:               3.000E-01
    OpenMP threads:             24
    Integrals threads:          24
    Memory [MiB]:           102376
    Algorithm:                Core
    Integral Cache:           NONE
    Schwarz Cutoff:          1E-12
    Fitting Condition:       1E-10

   => Auxiliary Basis Set <=

  Basis Set: (AUG-CC-PV(T+D)Z AUX)
    Blend: AUG-CC-PVTZ-JKFIT
    Number of shells: 90
    Number of basis function: 312
    Number of Cartesian functions: 393
    Spherical Harmonics?: true
    Max angular momentum: 4

  Cached 100.0% of DFT collocation blocks in 0.606 [GiB].

  Minimum eigenvalue in the overlap matrix is 3.5004680466E-04.
  Using Symmetric Orthogonalization.

  SCF Guess: Orbitals guess was supplied from a previous computation.

  ==> Iterations <==

                           Total Energy        Delta E     RMS |[F,P]|

   @DF-RKS iter   0:  -188.61568075796126   -1.88616e+02   5.08232e-05 
   @DF-RKS iter   1:  -188.61603208539518   -3.51327e-04   8.66388e-06 DIIS
   @DF-RKS iter   2:  -188.61603211945572   -3.40605e-08   7.65551e-06 DIIS
   @DF-RKS iter   3:  -188.61603217310252   -5.36468e-08   1.57355e-06 DIIS
   @DF-RKS iter   4:  -188.61603217520477   -2.10224e-09   2.34391e-07 DIIS
   @DF-RKS iter   5:  -188.61603217531481   -1.10049e-10   5.08304e-08 DIIS
   @DF-RKS iter   6:  -188.61603217532218   -7.36122e-12   7.36626e-09 DIIS
  Energy and wave function converged.


  ==> Post-Iterations <==

    Orbital Energies [Eh]
    ---------------------

    Doubly Occupied:                                                      

       1B1u  -19.419356     1Ag   -19.419295     2Ag   -10.540808  
       3Ag    -1.298737     2B1u   -1.255899     4Ag    -0.685607  
       3B1u   -0.637656     1B3u   -0.637179     1B2u   -0.637179  
       1B2g   -0.480146     1B3g   -0.480146  

    Virtual:                                                              

       5Ag     0.020105     2B3u    0.054750     2B2u    0.054750  
       4B1u    0.059013     3B2u    0.123819     3B3u    0.123819  
       6Ag     0.131260     2B2g    0.136941     2B3g    0.136941  
       7Ag     0.168189     5B1u    0.197207     4B3u    0.216156  
       4B2u    0.216156     1B1g    0.239963     8Ag     0.239963  
       6B1u    0.265082     9Ag     0.359000     5B2u    0.398193  
       5B3u    0.398193     3B2g    0.440392     3B3g    0.440392  
      10Ag     0.461067     7B1u    0.551439     1Au     0.595366  
       8B1u    0.595367    11Ag     0.644997     2B1g    0.710911  
      12Ag     0.710911     4B3g    0.724761     4B2g    0.724761  
       6B2u    0.794236     6B3u    0.794236     9B1u    0.796683  
      13Ag     0.847020    10B1u    0.962409     7B3u    0.965729  
       7B2u    0.965729     3B1g    0.994449    14Ag     0.994450  
       8B2u    1.010558     8B3u    1.010558     5B2g    1.100803  
       5B3g    1.100803    11B1u    1.116898    12B1u    1.246410  
       2Au     1.246415    13B1u    1.249021     6B3g    1.369795  
       6B2g    1.369795    15Ag     1.380415     9B2u    1.496085  
       9B3u    1.496085    16Ag     1.643250     7B2g    1.886323  
       7B3g    1.886323     3Au     2.020980    14B1u    2.020981  
      17Ag     2.072279     4B1g    2.072279    10B3u    2.128473  
      10B2u    2.128473    11B2u    2.136583    11B3u    2.136583  
      18Ag     2.192691    15B1u    2.207321    19Ag     2.302187  
       8B3g    2.321582     8B2g    2.321582    16B1u    2.387191  
       5B1g    2.454057    20Ag     2.454061    17B1u    2.603164  
       4Au     2.603171     9B3g    2.710215     9B2g    2.710215  
      18B1u    2.726340    12B2u    2.748629    12B3u    2.748629  
      13B2u    2.851138    13B3u    2.851138    21Ag     3.130920  
       6B1g    3.130920    14B2u    3.162675    14B3u    3.162675  
      22Ag     3.542508    19B1u    3.648821    10B2g    3.669803  
      10B3g    3.669803    20B1u    3.776204     5Au     3.776210  
      15B3u    3.849591    15B2u    3.849591    23Ag     4.225918  
      11B3g    4.620262    11B2g    4.620262    24Ag     4.946603  
      21B1u    5.180337    16B2u    5.412774    16B3u    5.412774  
      22B1u    5.433071    12B2g    6.094739    12B3g    6.094739  
      17B3u    6.208053    17B2u    6.208053    25Ag     6.331271  
       7B1g    6.331276    23B1u    6.538887     6Au     6.538894  
       8B1g    6.664515    26Ag     6.664528    13B3g    6.778327  
      13B2g    6.778327    24B1u    6.809250     7Au     6.830404  
      25B1u    6.830417    18B2u    6.913022    18B3u    6.913022  
      27Ag     7.014430    28Ag     7.125141    14B3g    7.336519  
      14B2g    7.336519    26B1u    7.643283    19B2u    7.753984  
      19B3u    7.753984    29Ag    13.546487    30Ag    15.700386  
      27B1u   20.798070  

    Final Occupation by Irrep:
             Ag   B1g   B2g   B3g    Au   B1u   B2u   B3u 
    DOCC [     4,    0,    1,    1,    0,    3,    1,    1 ]

  @DF-RKS Final Energy:  -188.61603217532218

   => Energetics <=

    Nuclear Repulsion Energy =             58.3953867832309683
    One-Electron Energy =                -372.7567836168651638
    Two-Electron Energy =                 142.0446228866919114
    DFT Exchange-Correlation Energy =     -16.3910011226322005
    Empirical Dispersion Energy =           0.0000000000000000
    VV10 Nonlocal Energy =                  0.0917428942523200
    Total Energy =                       -188.6160321753221751

Computation Completed


Properties will be evaluated at   0.000000,   0.000000,   0.000000 [a0]

Properties computed using the SCF density matrix

  Nuclear Dipole Moment: [e a0]
     X:     0.0000      Y:    -0.0000      Z:     0.0000

  Electronic Dipole Moment: [e a0]
     X:     0.0000      Y:     0.0000      Z:     0.0000

  Dipole Moment: [e a0]
     X:     0.0000      Y:    -0.0000      Z:     0.0000     Total:     0.0000

  Dipole Moment: [D]
     X:     0.0000      Y:    -0.0000      Z:     0.0000     Total:     0.0000


*** tstop() called on bp1-compute00190.data.bp.acrc.priv at Tue Apr 27 17:29:51 2021
Module time:
	user time   =      54.37 seconds =       0.91 minutes
	system time =       1.33 seconds =       0.02 minutes
	total time  =          3 seconds =       0.05 minutes
Total time:
	user time   =     410.44 seconds =       6.84 minutes
	system time =      14.36 seconds =       0.24 minutes
	total time  =         19 seconds =       0.32 minutes

         ----------------------------------------------------------
                                   FINDIF
                     R. A. King and Jonathon Misiewicz
         ---------------------------------------------------------

  Computing gradient from energies.
    Using 3-point formula.
    Energy without displacement: -188.6160342451
    Check energies below for precision!
    Forces are for mass-weighted, symmetry-adapted cartesians (in au).

     Coord      Energy(-1)        Energy(+1)            Force
        0   -188.6160344886   -188.6160321753      0.0002313311


-------------------------------------------------------------
  ## New Matrix (Symmetry 0) ##
  Irrep: 1 Size: 3 x 3

                 1                   2                   3

    1     0.00000000000000     0.00000000000000     0.00000000000000
    2     0.00000000000000     0.00000000000000     0.00065419911302
    3     0.00000000000000     0.00000000000000    -0.00065419911302




			-----------------------------------------
			 OPTKING 2.0: for geometry optimizations 
			  - R.A. King,  Bethel University        
			-----------------------------------------
	At level 1: Red. Int., RFO, no backsteps, dynamic trust

	Previous internal coordinate definitions found.
	---Fragment 1 Geometry and Gradient---
	 C           0.0000000000        0.0000000000        0.0000000000
	 O          -0.0000000000        0.0000000000        2.1910699479
	 O          -0.0000000000        0.0000000000       -2.1910699479
	             0.0000000000        0.0000000000        0.0000000000
	             0.0000000000        0.0000000000        0.0006541991
	             0.0000000000        0.0000000000       -0.0006541991

	---Fragment 1 Intrafragment Coordinates---
	 - Coordinate -           - BOHR/RAD -       - ANG/DEG -
	 R(1,2)           =         2.191070	       1.159464
[...]
Total time:
	user time   =    1228.43 seconds =      20.47 minutes
	system time =      33.10 seconds =       0.55 minutes
	total time  =         54 seconds =       0.90 minutes

  //>>>>>>>>>>>>>>>>>>>>>>>>>>>>>>>>>>>//
  //    Loading displacement 6 of 6    //
  //<<<<<<<<<<<<<<<<<<<<<<<<<<<<<<<<<<<//

*** tstart() called on bp1-compute00190.data.bp.acrc.priv
*** at Tue Apr 27 17:30:26 2021

   => Loading Basis Set <=

    Name: AUG-CC-PV(T+D)Z
    Role: ORBITAL
    Keyword: BASIS
    atoms 1   entry C          line   255 file /work/zw18965/.conda/envs/p4env/share/psi4/basis/aug-cc-pv_tpd_z.gbs 
    atoms 2-3 entry O          line   347 file /work/zw18965/.conda/envs/p4env/share/psi4/basis/aug-cc-pv_tpd_z.gbs 


         ---------------------------------------------------------
                                   SCF
               by Justin Turney, Rob Parrish, Andy Simmonett
                          and Daniel G. A. Smith
                              RKS Reference
                       24 Threads, 137329 MiB Core
         ---------------------------------------------------------

  ==> Geometry <==

    Molecular point group: c2v
    Full point group: C2v

    Geometry (in Angstrom), charge = 0, multiplicity = 1:

       Center              X                  Y                   Z               Mass       
    ------------   -----------------  -----------------  -----------------  -----------------
         C           -0.000651343880     0.000000000000     0.000000000000    12.000000000000
         O            0.000244331612     0.000000000000     1.159163449840    15.994914619570
         O            0.000244331612     0.000000000000    -1.159163449840    15.994914619570

  Running in c2v symmetry.

  Rotational constants: A = 2407987.46702  B =      0.39219  C =      0.39219 [cm^-1]
  Rotational constants: A = 72189648157.17372  B =  11757.52525  C =  11757.52333 [MHz]
  Nuclear repulsion =   58.434095562372789

  Charge       = 0
  Multiplicity = 1
  Electrons    = 22
  Nalpha       = 11
  Nbeta        = 11

  ==> Algorithm <==

  SCF Algorithm Type is DF.
  DIIS enabled.
  MOM disabled.
  Fractional occupation disabled.
  Guess Type is SAD.
  Energy threshold   = 1.00e-10
  Density threshold  = 1.00e-10
  Integral threshold = 0.00e+00

  ==> Primary Basis <==

  Basis Set: AUG-CC-PV(T+D)Z
    Blend: AUG-CC-PV(T+D)Z
    Number of shells: 42
    Number of basis function: 138
    Number of Cartesian functions: 165
    Spherical Harmonics?: true
    Max angular momentum: 3

  ==> DFT Potential <==

   => Composite Functional: WB97M-V <= 

    wB97M-V Hyb-GGA Exchange-Correlation Functional

    N. Mardirossian and M. Head-Gordon, J. Chem. Phys. 144, 214110 (2016)

    Deriv               =              1
    GGA                 =           TRUE
    Meta                =           TRUE

    Exchange Hybrid     =           TRUE
    MP2 Hybrid          =          FALSE

   => Exchange-Correlation Functionals <=

    1.0000   wB97M-V exchange-correlation functional

   => Exact (HF) Exchange <=

    0.8500            HF,LR [omega = 0.3000]
    0.1500               HF 

   => VV10 Non-Local Parameters <=

    VV10 B              =     6.0000E+00
    VV10 C              =     1.0000E-02

   => Molecular Quadrature <=

    Radial Scheme          =       TREUTLER
    Pruning Scheme         =           FLAT
    Nuclear Scheme         =       TREUTLER

    BS radius alpha        =              1
    Pruning alpha          =              1
    Radial Points          =             75
    Spherical Points       =            302
    Total Points           =          67950
    Total Blocks           =            595
    Max Points             =            255
    Max Functions          =            138

   => Loading Basis Set <=

    Name: (AUG-CC-PV(T+D)Z AUX)
    Role: JKFIT
    Keyword: DF_BASIS_SCF
    atoms 1   entry C          line   162 file /work/zw18965/.conda/envs/p4env/share/psi4/basis/aug-cc-pvtz-jkfit.gbs 
    atoms 2-3 entry O          line   286 file /work/zw18965/.conda/envs/p4env/share/psi4/basis/aug-cc-pvtz-jkfit.gbs 

  ==> Pre-Iterations <==

   -------------------------------------------------------
    Irrep   Nso     Nmo     Nalpha   Nbeta   Ndocc  Nsocc
   -------------------------------------------------------
     A1        49      49       0       0       0       0
     A2        21      21       0       0       0       0
     B1        27      27       0       0       0       0
     B2        41      41       0       0       0       0
   -------------------------------------------------------
    Total     138     138      11      11      11       0
   -------------------------------------------------------

  ==> Integral Setup <==

  ==> DiskDFJK: Density-Fitted J/K Matrices <==

    J tasked:                  Yes
    K tasked:                  Yes
    wK tasked:                 Yes
    Omega:               3.000E-01
    OpenMP threads:             24
    Integrals threads:          24
    Memory [MiB]:           102375
    Algorithm:                Core
    Integral Cache:           NONE
    Schwarz Cutoff:          1E-12
    Fitting Condition:       1E-10

   => Auxiliary Basis Set <=

  Basis Set: (AUG-CC-PV(T+D)Z AUX)
    Blend: AUG-CC-PVTZ-JKFIT
    Number of shells: 90
    Number of basis function: 312
    Number of Cartesian functions: 393
    Spherical Harmonics?: true
    Max angular momentum: 4

  Cached 100.0% of DFT collocation blocks in 0.607 [GiB].

  Minimum eigenvalue in the overlap matrix is 3.4934316722E-04.
  Using Symmetric Orthogonalization.

  SCF Guess: Superposition of Atomic Densities via on-the-fly atomic UHF.

  ==> Iterations <==

                           Total Energy        Delta E     RMS |[F,P]|

   @DF-RKS iter SAD:  -187.92285816960435   -1.87923e+02   0.00000e+00 
   @DF-RKS iter   1:  -188.50060708997106   -5.77749e-01   8.36586e-03 DIIS
   @DF-RKS iter   2:  -188.46435125961747    3.62558e-02   9.71521e-03 DIIS
   @DF-RKS iter   3:  -188.61566529795246   -1.51314e-01   4.20348e-04 DIIS
   @DF-RKS iter   4:  -188.61601184302219   -3.46545e-04   1.06946e-04 DIIS
   @DF-RKS iter   5:  -188.61603414736874   -2.23043e-05   8.15990e-06 DIIS
   @DF-RKS iter   6:  -188.61603437729906   -2.29930e-07   1.52181e-06 DIIS
   @DF-RKS iter   7:  -188.61603438621171   -8.91265e-09   2.38770e-07 DIIS
   @DF-RKS iter   8:  -188.61603438645469   -2.42977e-10   2.45677e-08 DIIS
   @DF-RKS iter   9:  -188.61603438645764   -2.95586e-12   4.45057e-09 DIIS
   @DF-RKS iter  10:  -188.61603438645756    8.52651e-14   2.77420e-10 DIIS
   @DF-RKS iter  11:  -188.61603438645770   -1.42109e-13   5.25013e-11 DIIS
  Energy and wave function converged.


  ==> Post-Iterations <==

    Orbital Energies [Eh]
    ---------------------

    Doubly Occupied:                                                      

       1B2   -19.419169     1A1   -19.419108     2A1   -10.540448  
       3A1    -1.299087     2B2    -1.256253     4A1    -0.685466  
       3B2    -0.637702     1B1    -0.637450     5A1    -0.637450  
       1A2    -0.480177     4B2    -0.480177  

    Virtual:                                                              

       6A1     0.020142     2B1     0.054744     7A1     0.054744  
       5B2     0.059017     8A1     0.124333     3B1     0.124336  
       9A1     0.131279     6B2     0.136940     2A2     0.136940  
      10A1     0.168358     7B2     0.197233     4B1     0.216150  
      11A1     0.216150     5B1     0.239956    12A1     0.239956  
       8B2     0.265074    13A1     0.359516     6B1     0.398265  
      14A1     0.398265     9B2     0.440379     3A2     0.440379  
      15A1     0.461189    10B2     0.551499     4A2     0.595367  
      11B2     0.595367    16A1     0.645246     7B1     0.710882  
      17A1     0.710882    12B2     0.724986     5A2     0.724987  
       8B1     0.794148    18A1     0.794149    13B2     0.796939  
      19A1     0.847169    14B2     0.962533    20A1     0.965740  
       9B1     0.965740    10B1     0.994729    21A1     0.994730  
      11B1     1.010762    22A1     1.010762    15B2     1.100831  
       6A2     1.100833    16B2     1.118799    17B2     1.246437  
       7A2     1.246442    18B2     1.248970     8A2     1.370311  
      19B2     1.370314    23A1     1.380354    24A1     1.496481  
      12B1     1.496484    25A1     1.643043     9A2     1.886376  
      20B2     1.886376    10A2     2.021213    21B2     2.021214  
      26A1     2.072357    13B1     2.072357    14B1     2.128855  
      27A1     2.128855    28A1     2.136664    15B1     2.136664  
      29A1     2.193146    22B2     2.206234    30A1     2.303756  
      23B2     2.322392    11A2     2.322392    24B2     2.387333  
      16B1     2.454686    31A1     2.454691    25B2     2.603153  
      12A2     2.603159    26B2     2.709591    13A2     2.709592  
      27B2     2.726386    32A1     2.749527    17B1     2.749527  
      18B1     2.851480    33A1     2.851482    34A1     3.131414  
      19B1     3.131415    20B1     3.162773    35A1     3.162773  
      36A1     3.545654    28B2     3.650823    14A2     3.670545  
      29B2     3.670552    30B2     3.777884    15A2     3.777890  
      37A1     3.850080    21B1     3.850081    38A1     4.226257  
      31B2     4.622961    16A2     4.622963    39A1     4.946855  
      32B2     5.185510    22B1     5.415223    40A1     5.415224  
      33B2     5.430011    17A2     6.094756    34B2     6.094756  
      23B1     6.208274    41A1     6.208274    42A1     6.331629  
      24B1     6.331634    35B2     6.539584    18A2     6.539590  
      25B1     6.664710    43A1     6.664723    36B2     6.780737  
      19A2     6.780745    37B2     6.811202    20A2     6.831048  
      38B2     6.831061    26B1     6.913191    44A1     6.913192  
      45A1     7.015253    46A1     7.127597    39B2     7.336720  
      21A2     7.336721    40B2     7.645529    47A1     7.756610  
      27B1     7.756614    48A1    13.564418    49A1    15.719985  
      41B2    20.833730  

    Final Occupation by Irrep:
             A1    A2    B1    B2 
    DOCC [     5,    1,    1,    4 ]

  @DF-RKS Final Energy:  -188.61603438645770

   => Energetics <=

    Nuclear Repulsion Energy =             58.4340955623727893
    One-Electron Energy =                -372.8324925440273319
    Two-Electron Energy =                 142.0829126686953430
    DFT Exchange-Correlation Energy =     -16.3922926920704768
    Empirical Dispersion Energy =           0.0000000000000000
    VV10 Nonlocal Energy =                  0.0917426185719585
    Total Energy =                       -188.6160343864576703

Computation Completed


Properties will be evaluated at   0.000000,   0.000000,   0.000000 [a0]

Properties computed using the SCF density matrix

  Nuclear Dipole Moment: [e a0]
     X:     0.0000      Y:     0.0000      Z:     0.0000

  Electronic Dipole Moment: [e a0]
     X:    -0.0009      Y:     0.0000      Z:     0.0000

  Dipole Moment: [e a0]
     X:    -0.0009      Y:     0.0000      Z:     0.0000     Total:     0.0009

  Dipole Moment: [D]
     X:    -0.0023      Y:     0.0000      Z:     0.0000     Total:     0.0023


*** tstop() called on bp1-compute00190.data.bp.acrc.priv at Tue Apr 27 17:30:30 2021
Module time:
	user time   =      81.87 seconds =       1.36 minutes
	system time =       1.59 seconds =       0.03 minutes
	total time  =          4 seconds =       0.07 minutes
Total time:
	user time   =    1310.43 seconds =      21.84 minutes
	system time =      34.69 seconds =       0.58 minutes
	total time  =         58 seconds =       0.97 minutes

         ----------------------------------------------------------
                                   FINDIF
                     R. A. King and Jonathon Misiewicz
         ---------------------------------------------------------

  Computing second-derivative from energies using projected, 
  symmetry-adapted, cartesian coordinates.

  6 energies passed in, including the reference geometry.
    Using 3-point formula.
    Energy without displacement: -188.6160346087
    Check energies below for precision!
    0: -1 :      -188.6160336841
    0: 1  :      -188.6160337143
    1: -1 :      -188.6160318577
    2: -1 :      -188.6160343876
    3: -1 :      -188.6160343865

-------------------------------------------------------------


  ==> Harmonic Vibrational Analysis <==

  non-mass-weighted Hessian:       Symmetric? True   Hermitian? True   Lin Dep Dim?  5 (0)
  projection of translations (True) and rotations (True) removed 5 degrees of freedom (5)
  total projector:                 Symmetric? True   Hermitian? True   Lin Dep Dim?  5 (5)
  mass-weighted Hessian:           Symmetric? True   Hermitian? True   Lin Dep Dim?  5 (0)
  pre-proj  low-frequency mode:    0.0000i [cm^-1]
  pre-proj  low-frequency mode:    0.0000i [cm^-1]
  pre-proj  low-frequency mode:    0.0000  [cm^-1]
  pre-proj  low-frequency mode:    0.0000  [cm^-1]
  pre-proj  low-frequency mode:    0.0000  [cm^-1]
  pre-proj  all modes:['0.0000i' '0.0000i' '0.0000' '0.0000' '0.0000' '683.7846' '685.4936'
 '1386.6334' '2411.5572']
  projected mass-weighted Hessian: Symmetric? True   Hermitian? True   Lin Dep Dim?  5 (5)
  post-proj low-frequency mode:    0.0000i [cm^-1] (TR)
  post-proj low-frequency mode:    0.0000i [cm^-1] (TR)
  post-proj low-frequency mode:    0.0000i [cm^-1] (TR)
  post-proj low-frequency mode:    0.0000  [cm^-1] (TR)
  post-proj low-frequency mode:    0.0000  [cm^-1] (TR)
  post-proj  all modes:['0.0000i' '0.0000i' '0.0000i' '0.0000' '0.0000' '683.7846' '685.4936'
 '1386.6334' '2411.5572']

  Vibration                       6                   7                   8           
  Freq [cm^-1]                 683.7846            685.4936           1386.6334       
  Irrep                          B2u                 B3u                  Ag          
  Reduced mass [u]             12.8774             12.8774             15.9949        
  Force const [mDyne/A]         3.5474              3.5652             18.1199        
  Turning point v=0 [a0]        0.1169              0.1168              0.0737        
  RMS dev v=0 [a0 u^1/2]        0.2967              0.2963              0.2084        
  Char temp [K]                983.8139            986.2727           1995.0568       
  ----------------------------------------------------------------------------------
      1   C               -0.00  0.88  0.00    0.88  0.00 -0.00   -0.00 -0.00 -0.00   
      2   O                0.00 -0.33  0.00   -0.33  0.00  0.00    0.00 -0.00  0.71   
      3   O               -0.00 -0.33  0.00   -0.33  0.00  0.00   -0.00 -0.00 -0.71   

  Vibration                       9           
  Freq [cm^-1]                2411.5572       
  Irrep                          B1u          
  Reduced mass [u]             12.8774        
  Force const [mDyne/A]        44.1238        
  Turning point v=0 [a0]        0.0623        
  RMS dev v=0 [a0 u^1/2]        0.1580        
  Char temp [K]               3469.6939       
  ----------------------------------------------------------------------------------
      1   C               -0.00  0.00  0.88   
      2   O                0.00  0.00 -0.33   
      3   O               -0.00  0.00 -0.33   

  ==> Thermochemistry Components <==

  Entropy, S
    Electronic S            0.000 [cal/(mol K)]        0.000 [J/(mol K)]       0.00000000 [mEh/K] (multiplicity = 1)
    Translational S        37.270 [cal/(mol K)]      155.938 [J/(mol K)]       0.05939371 [mEh/K] (mol. weight = 43.9898 [u], P = 101325.00 [Pa])
    Rotational S           13.069 [cal/(mol K)]       54.681 [J/(mol K)]       0.02082706 [mEh/K] (symmetry no. = 2)
    Vibrational S           0.669 [cal/(mol K)]        2.798 [J/(mol K)]       0.00106587 [mEh/K]
  Total S                  51.008 [cal/(mol K)]      213.418 [J/(mol K)]       0.08128665 [mEh/K]
  Correction S              0.000 [cal/(mol K)]        0.000 [J/(mol K)]       0.00000000 [mEh/K]

  Constant volume heat capacity, Cv
    Electronic Cv           0.000 [cal/(mol K)]        0.000 [J/(mol K)]       0.00000000 [mEh/K]
    Translational Cv        2.981 [cal/(mol K)]       12.472 [J/(mol K)]       0.00475022 [mEh/K]
    Rotational Cv           1.987 [cal/(mol K)]        8.314 [J/(mol K)]       0.00316681 [mEh/K]
    Vibrational Cv          1.831 [cal/(mol K)]        7.661 [J/(mol K)]       0.00291782 [mEh/K]
  Total Cv                  6.799 [cal/(mol K)]       28.447 [J/(mol K)]       0.01083484 [mEh/K]
  Correction Cv             0.000 [cal/(mol K)]        0.000 [J/(mol K)]       0.00000000 [mEh/K]

  Constant pressure heat capacity, Cp
    Electronic Cp           0.000 [cal/(mol K)]        0.000 [J/(mol K)]       0.00000000 [mEh/K]
    Translational Cp        4.968 [cal/(mol K)]       20.786 [J/(mol K)]       0.00791703 [mEh/K]
    Rotational Cp           1.987 [cal/(mol K)]        8.314 [J/(mol K)]       0.00316681 [mEh/K]
    Vibrational Cp          1.831 [cal/(mol K)]        7.661 [J/(mol K)]       0.00291782 [mEh/K]
  Total Cp                  8.786 [cal/(mol K)]       36.761 [J/(mol K)]       0.01400166 [mEh/K]
  Correction Cp             0.000 [cal/(mol K)]        0.000 [J/(mol K)]       0.00000000 [mEh/K]

  ==> Thermochemistry Energy Analysis <==

  Raw electronic energy, E0
  Total E0, Electronic energy at well bottom at 0 [K]                 -188.61603461 [Eh]

  Zero-point energy, ZPE_vib = Sum_i nu_i / 2
    Electronic ZPE          0.000 [kcal/mol]        0.000 [kJ/mol]       0.00000000 [Eh]
    Translational ZPE       0.000 [kcal/mol]        0.000 [kJ/mol]       0.00000000 [Eh]
    Rotational ZPE          0.000 [kcal/mol]        0.000 [kJ/mol]       0.00000000 [Eh]
    Vibrational ZPE         7.387 [kcal/mol]       30.908 [kJ/mol]       0.01177236 [Eh]        2583.734 [cm^-1]
  Correction ZPE            7.387 [kcal/mol]       30.908 [kJ/mol]       0.01177236 [Eh]        2583.734 [cm^-1]
  Total ZPE, Electronic energy at 0 [K]                               -188.60426225 [Eh]

  Thermal Energy, E (includes ZPE)
    Electronic E            0.000 [kcal/mol]        0.000 [kJ/mol]       0.00000000 [Eh]
    Translational E         0.889 [kcal/mol]        3.718 [kJ/mol]       0.00141628 [Eh]
    Rotational E            0.592 [kcal/mol]        2.479 [kJ/mol]       0.00094418 [Eh]
    Vibrational E           7.542 [kcal/mol]       31.554 [kJ/mol]       0.01201828 [Eh]
  Correction E              9.023 [kcal/mol]       37.751 [kJ/mol]       0.01437874 [Eh]
  Total E, Electronic energy at  298.15 [K]                           -188.60165587 [Eh]

  Enthalpy, H_trans = E_trans + k_B * T
    Electronic H            0.000 [kcal/mol]        0.000 [kJ/mol]       0.00000000 [Eh]
    Translational H         1.481 [kcal/mol]        6.197 [kJ/mol]       0.00236046 [Eh]
    Rotational H            0.592 [kcal/mol]        2.479 [kJ/mol]       0.00094418 [Eh]
    Vibrational H           7.542 [kcal/mol]       31.554 [kJ/mol]       0.01201828 [Eh]
  Correction H              9.615 [kcal/mol]       40.230 [kJ/mol]       0.01532293 [Eh]
  Total H, Enthalpy at  298.15 [K]                                    -188.60071168 [Eh]

  Gibbs free energy, G = H - T * S
    Electronic G            0.000 [kcal/mol]        0.000 [kJ/mol]       0.00000000 [Eh]
    Translational G        -9.631 [kcal/mol]      -40.296 [kJ/mol]      -0.01534777 [Eh]
    Rotational G           -3.304 [kcal/mol]      -13.824 [kJ/mol]      -0.00526540 [Eh]
    Vibrational G           7.342 [kcal/mol]       30.720 [kJ/mol]       0.01170049 [Eh]
  Correction G             -5.593 [kcal/mol]      -23.400 [kJ/mol]      -0.00891269 [Eh]
  Total G, Free enthalpy at  298.15 [K]                               -188.62494730 [Eh]

    Psi4 stopped on: Tuesday, 27 April 2021 05:30PM
    Psi4 wall time for execution: 0:00:57.48

*** Psi4 exiting successfully. Buy a developer a beer!
