
    -----------------------------------------------------------------------
          Psi4: An Open-Source Ab Initio Electronic Structure Package
                               Psi4 1.3.2 release

                         Git: Rev {HEAD} ecbda83 


    R. M. Parrish, L. A. Burns, D. G. A. Smith, A. C. Simmonett,
    A. E. DePrince III, E. G. Hohenstein, U. Bozkaya, A. Yu. Sokolov,
    R. Di Remigio, R. M. Richard, J. F. Gonthier, A. M. James,
    H. R. McAlexander, A. Kumar, M. Saitow, X. Wang, B. P. Pritchard,
    P. Verma, H. F. Schaefer III, K. Patkowski, R. A. King, E. F. Valeev,
    F. A. Evangelista, J. M. Turney, T. D. Crawford, and C. D. Sherrill,
    J. Chem. Theory Comput. 13(7) pp 3185--3197 (2017).
    (doi: 10.1021/acs.jctc.7b00174)


                         Additional Contributions by
    P. Kraus, H. Kruse, M. H. Lechner, M. C. Schieber, R. A. Shaw,
    A. Alenaizan, R. Galvelis, Z. L. Glick, S. Lehtola, and J. P. Misiewicz

    -----------------------------------------------------------------------


    Psi4 started on: Tuesday, 27 April 2021 05:30PM

    Process ID: 122019
    Host:       bp1-compute00092.data.bp.acrc.priv
    PSIDATADIR: /work/zw18965/.conda/envs/p4env/share/psi4
    Memory:     500.0 MiB
    Threads:    24
    
  ==> Input File <==

--------------------------------------------------------------------------
memory 144 GB

molecule {
0 1
O 0.0000000000 0.0000000000 0.0000000000
H 0.0000000000 0.0000000000 0.9579000000
H 0.9289588892 0.0000000000 -0.2336831018
}

set dynamic_level 1
set basis aug-cc-pV(T+d)Z
 
optimize("wB97M-V")
frequencies("wB97M-V")
--------------------------------------------------------------------------

  Memory set to 134.110 GiB by Python driver.
gradient() will perform gradient computation by finite difference of analytic energies.

         ----------------------------------------------------------
                                   FINDIF
                     R. A. King and Jonathon Misiewicz
         ---------------------------------------------------------

  Using finite-differences of energies to determine gradients.
    Generating geometries for use with 3-point formula.
    Displacement size will be 5.00e-03.
    Number of atoms is 3.
    Number of symmetric SALCs is 2.
    Translations projected? 1. Rotations projected? 1.
    Number of geometries (including reference) is 5.

  //>>>>>>>>>>>>>>>>>>>>>>>>>>>>>>>>>>>//
  //    Loading displacement 1 of 5    //
  //<<<<<<<<<<<<<<<<<<<<<<<<<<<<<<<<<<<//

*** tstart() called on bp1-compute00092.data.bp.acrc.priv
*** at Tue Apr 27 17:30:59 2021

   => Loading Basis Set <=

    Name: AUG-CC-PV(T+D)Z
    Role: ORBITAL
    Keyword: BASIS
    atoms 1   entry O          line   347 file /work/zw18965/.conda/envs/p4env/share/psi4/basis/aug-cc-pv_tpd_z.gbs 
    atoms 2-3 entry H          line    56 file /work/zw18965/.conda/envs/p4env/share/psi4/basis/aug-cc-pv_tpd_z.gbs 


         ---------------------------------------------------------
                                   SCF
               by Justin Turney, Rob Parrish, Andy Simmonett
                          and Daniel G. A. Smith
                              RKS Reference
                       24 Threads, 137329 MiB Core
         ---------------------------------------------------------

  ==> Geometry <==

    Molecular point group: c2v
    Full point group: C2v

    Geometry (in Angstrom), charge = 0, multiplicity = 1:

       Center              X                  Y                   Z               Mass       
    ------------   -----------------  -----------------  -----------------  -----------------
         O            0.000000000000     0.000000000000    -0.065912414824    15.994914619570
         H           -0.000000000000     0.755452663361     0.523038927279     1.007825032230
         H            0.000000000000    -0.755452663361     0.523038927279     1.007825032230

  Running in c2v symmetry.

  Rotational constants: A =     27.14988  B =     14.65436  C =      9.51731 [cm^-1]
  Rotational constants: A = 813932.95770  B = 439326.65046  C = 285321.92187 [MHz]
  Nuclear repulsion =    9.189193889971767

  Charge       = 0
  Multiplicity = 1
  Electrons    = 10
  Nalpha       = 5
  Nbeta        = 5

  ==> Algorithm <==

  SCF Algorithm Type is DF.
  DIIS enabled.
  MOM disabled.
  Fractional occupation disabled.
  Guess Type is SAD.
  Energy threshold   = 1.00e-08
  Density threshold  = 1.00e-08
  Integral threshold = 0.00e+00

  ==> Primary Basis <==

  Basis Set: AUG-CC-PV(T+D)Z
    Blend: AUG-CC-PV(T+D)Z
    Number of shells: 32
    Number of basis function: 92
    Number of Cartesian functions: 105
    Spherical Harmonics?: true
    Max angular momentum: 3

  ==> DFT Potential <==

   => Composite Functional: WB97M-V <= 

    wB97M-V Hyb-GGA Exchange-Correlation Functional

    N. Mardirossian and M. Head-Gordon, J. Chem. Phys. 144, 214110 (2016)

    Deriv               =              1
    GGA                 =           TRUE
    Meta                =           TRUE

    Exchange Hybrid     =           TRUE
    MP2 Hybrid          =          FALSE

   => Exchange-Correlation Functionals <=

    1.0000   wB97M-V exchange-correlation functional

   => Exact (HF) Exchange <=

    0.8500            HF,LR [omega = 0.3000]
    0.1500               HF 

   => VV10 Non-Local Parameters <=

    VV10 B              =     6.0000E+00
    VV10 C              =     1.0000E-02

   => Molecular Quadrature <=

    Radial Scheme          =       TREUTLER
    Pruning Scheme         =           FLAT
    Nuclear Scheme         =       TREUTLER

    BS radius alpha        =              1
    Pruning alpha          =              1
    Radial Points          =             75
    Spherical Points       =            302
    Total Points           =          67950
    Total Blocks           =            583
    Max Points             =            256
    Max Functions          =             92

   => Loading Basis Set <=

    Name: (AUG-CC-PV(T+D)Z AUX)
    Role: JKFIT
    Keyword: DF_BASIS_SCF
    atoms 1   entry O          line   286 file /work/zw18965/.conda/envs/p4env/share/psi4/basis/aug-cc-pvtz-jkfit.gbs 
    atoms 2-3 entry H          line    70 file /work/zw18965/.conda/envs/p4env/share/psi4/basis/aug-cc-pvtz-jkfit.gbs 

  ==> Pre-Iterations <==

   -------------------------------------------------------
    Irrep   Nso     Nmo     Nalpha   Nbeta   Ndocc  Nsocc
   -------------------------------------------------------
     A1        35      35       0       0       0       0
     A2        12      12       0       0       0       0
     B1        18      18       0       0       0       0
     B2        27      27       0       0       0       0
   -------------------------------------------------------
    Total      92      92       5       5       5       0
   -------------------------------------------------------

  ==> Integral Setup <==

  ==> DiskDFJK: Density-Fitted J/K Matrices <==

    J tasked:                  Yes
    K tasked:                  Yes
    wK tasked:                 Yes
    Omega:               3.000E-01
    OpenMP threads:             24
    Integrals threads:          24
    Memory [MiB]:           102553
    Algorithm:                Core
    Integral Cache:           NONE
    Schwarz Cutoff:          1E-12
    Fitting Condition:       1E-10

   => Auxiliary Basis Set <=

  Basis Set: (AUG-CC-PV(T+D)Z AUX)
    Blend: AUG-CC-PVTZ-JKFIT
    Number of shells: 58
    Number of basis function: 196
    Number of Cartesian functions: 241
    Spherical Harmonics?: true
    Max angular momentum: 4

  Cached 100.0% of DFT collocation blocks in 0.433 [GiB].

  Minimum eigenvalue in the overlap matrix is 3.8577410583E-04.
  Using Symmetric Orthogonalization.

  SCF Guess: Superposition of Atomic Densities via on-the-fly atomic UHF.

  ==> Iterations <==

                           Total Energy        Delta E     RMS |[F,P]|

   @DF-RKS iter SAD:   -75.95426158733292   -7.59543e+01   0.00000e+00 
   @DF-RKS iter   1:   -76.29663448758967   -3.42373e-01   1.25606e-02 DIIS
   @DF-RKS iter   2:   -76.26745283800469    2.91816e-02   1.43737e-02 DIIS
   @DF-RKS iter   3:   -76.43237160319723   -1.64919e-01   3.31004e-04 DIIS
   @DF-RKS iter   4:   -76.43254952276844   -1.77920e-04   1.05814e-04 DIIS
   @DF-RKS iter   5:   -76.43256261165560   -1.30889e-05   1.75708e-05 DIIS
   @DF-RKS iter   6:   -76.43256315729998   -5.45644e-07   2.88243e-06 DIIS
   @DF-RKS iter   7:   -76.43256318168660   -2.43866e-08   5.27341e-07 DIIS
   @DF-RKS iter   8:   -76.43256318279244   -1.10583e-09   8.66347e-08 DIIS
   @DF-RKS iter   9:   -76.43256318283075   -3.83125e-11   1.21773e-08 DIIS
   @DF-RKS iter  10:   -76.43256318283143   -6.82121e-13   8.69747e-10 DIIS
  Energy and wave function converged.


  ==> Post-Iterations <==

    Orbital Energies [Eh]
    ---------------------

    Doubly Occupied:                                                      

       1A1   -19.340801     2A1    -1.145774     1B2    -0.642234  
       3A1    -0.505122     1B1    -0.428485  

    Virtual:                                                              

       4A1     0.008822     2B2     0.036250     5A1     0.109400  
       2B1     0.129573     6A1     0.143065     3B2     0.157269  
       4B2     0.190111     7A1     0.209848     1A2     0.230280  
       3B1     0.264870     8A1     0.273650     5B2     0.332529  
       9A1     0.380087     6B2     0.406296     7B2     0.534325  
      10A1     0.591401    11A1     0.642672     2A2     0.660019  
       4B1     0.666456    12A1     0.755611     5B1     0.777623  
      13A1     0.804014     6B1     0.836531     8B2     0.838608  
       3A2     0.855830     9B2     0.866034    14A1     0.884048  
      15A1     0.937120    10B2     0.950279     7B1     0.988640  
      11B2     1.038947    16A1     1.101400     4A2     1.102726  
      12B2     1.165277     5A2     1.395758    17A1     1.419003  
       8B1     1.460297    18A1     1.652634    13B2     1.690041  
      14B2     1.825010    19A1     1.951535     9B1     2.088863  
       6A2     2.141807    20A1     2.147362    21A1     2.223903  
      10B1     2.254116    15B2     2.262455    22A1     2.297638  
      16B2     2.492282    11B1     2.516183    23A1     2.573238  
      17B2     2.638591     7A2     2.695794    18B2     3.409757  
      24A1     3.495640    12B1     3.777837     8A2     3.804110  
      25A1     3.948791    19B2     4.033791    13B1     4.066300  
       9A2     4.150197    26A1     4.155384    14B1     4.169873  
      20B2     4.247826    27A1     4.417826    21B2     4.556949  
      10A2     4.885348    22B2     4.893866    23B2     4.972769  
      28A1     5.024931    15B1     5.223761    29A1     5.353857  
      30A1     5.833410    24B2     6.155895    16B1     6.354634  
      31A1     6.545297    17B1     6.765369    18B1     6.855852  
      32A1     6.925275    25B2     6.935995    11A2     6.946726  
      12A2     6.958982    33A1     7.148760    34A1     7.499110  
      26B2     7.527020    27B2     8.396758    35A1    15.227773  

    Final Occupation by Irrep:
             A1    A2    B1    B2 
    DOCC [     3,    0,    1,    1 ]

  @DF-RKS Final Energy:   -76.43256318283143

   => Energetics <=

    Nuclear Repulsion Energy =              9.1891938899717669
    One-Electron Energy =                -122.9758200071285330
    Two-Electron Energy =                  43.9660965712069043
    DFT Exchange-Correlation Energy =      -6.6545991414798324
    Empirical Dispersion Energy =           0.0000000000000000
    VV10 Nonlocal Energy =                  0.0425655045982727
    Total Energy =                        -76.4325631828314300

Computation Completed


Properties will be evaluated at   0.000000,   0.000000,   0.000000 [a0]

Properties computed using the SCF density matrix

  Nuclear Dipole Moment: [e a0]
     X:     0.0000      Y:     0.0000      Z:     0.9803

  Electronic Dipole Moment: [e a0]
     X:     0.0000      Y:     0.0000      Z:    -0.2480

  Dipole Moment: [e a0]
     X:     0.0000      Y:     0.0000      Z:     0.7324     Total:     0.7324

  Dipole Moment: [D]
     X:     0.0000      Y:     0.0000      Z:     1.8614     Total:     1.8614


*** tstop() called on bp1-compute00092.data.bp.acrc.priv at Tue Apr 27 17:31:03 2021
Module time:
	user time   =      72.81 seconds =       1.21 minutes
	system time =       3.92 seconds =       0.07 minutes
	total time  =          4 seconds =       0.07 minutes
Total time:
	user time   =      72.81 seconds =       1.21 minutes
	system time =       3.92 seconds =       0.07 minutes
	total time  =          4 seconds =       0.07 minutes

  //>>>>>>>>>>>>>>>>>>>>>>>>>>>>>>>>>>>//
  //    Loading displacement 2 of 5    //
  //<<<<<<<<<<<<<<<<<<<<<<<<<<<<<<<<<<<//

*** tstart() called on bp1-compute00092.data.bp.acrc.priv
*** at Tue Apr 27 17:31:03 2021

   => Loading Basis Set <=

    Name: AUG-CC-PV(T+D)Z
    Role: ORBITAL
    Keyword: BASIS
    atoms 1   entry O          line   347 file /work/zw18965/.conda/envs/p4env/share/psi4/basis/aug-cc-pv_tpd_z.gbs 
    atoms 2-3 entry H          line    56 file /work/zw18965/.conda/envs/p4env/share/psi4/basis/aug-cc-pv_tpd_z.gbs 


         ---------------------------------------------------------
                                   SCF
               by Justin Turney, Rob Parrish, Andy Simmonett
                          and Daniel G. A. Smith
                              RKS Reference
                       24 Threads, 137329 MiB Core
         ---------------------------------------------------------

  ==> Geometry <==

    Molecular point group: c2v
    Full point group: C2v

    Geometry (in Angstrom), charge = 0, multiplicity = 1:

       Center              X                  Y                   Z               Mass       
    ------------   -----------------  -----------------  -----------------  -----------------
         O            0.000000000000     0.000000000000    -0.066133736565    15.994914619570
         H           -0.000000000000     0.755452663361     0.524795195598     1.007825032230
         H            0.000000000000    -0.755452663361     0.524795195598     1.007825032230

  Running in c2v symmetry.

  Rotational constants: A =     26.96847  B =     14.65436  C =      9.49492 [cm^-1]
  Rotational constants: A = 808494.29234  B = 439326.65046  C = 284650.68760 [MHz]
  Nuclear repulsion =    9.177976870071999

  Charge       = 0
  Multiplicity = 1
  Electrons    = 10
  Nalpha       = 5
  Nbeta        = 5

  ==> Algorithm <==

  SCF Algorithm Type is DF.
  DIIS enabled.
  MOM disabled.
  Fractional occupation disabled.
  Guess Type is SAD.
  Energy threshold   = 1.00e-08
  Density threshold  = 1.00e-08
  Integral threshold = 0.00e+00

  ==> Primary Basis <==

  Basis Set: AUG-CC-PV(T+D)Z
    Blend: AUG-CC-PV(T+D)Z
    Number of shells: 32
    Number of basis function: 92
    Number of Cartesian functions: 105
    Spherical Harmonics?: true
    Max angular momentum: 3

  ==> DFT Potential <==

   => Composite Functional: WB97M-V <= 

    wB97M-V Hyb-GGA Exchange-Correlation Functional

    N. Mardirossian and M. Head-Gordon, J. Chem. Phys. 144, 214110 (2016)

    Deriv               =              1
    GGA                 =           TRUE
    Meta                =           TRUE

    Exchange Hybrid     =           TRUE
    MP2 Hybrid          =          FALSE

   => Exchange-Correlation Functionals <=

    1.0000   wB97M-V exchange-correlation functional

   => Exact (HF) Exchange <=

    0.8500            HF,LR [omega = 0.3000]
    0.1500               HF 

   => VV10 Non-Local Parameters <=

    VV10 B              =     6.0000E+00
    VV10 C              =     1.0000E-02

   => Molecular Quadrature <=

    Radial Scheme          =       TREUTLER
    Pruning Scheme         =           FLAT
    Nuclear Scheme         =       TREUTLER

    BS radius alpha        =              1
    Pruning alpha          =              1
    Radial Points          =             75
    Spherical Points       =            302
    Total Points           =          67950
    Total Blocks           =            584
    Max Points             =            256
    Max Functions          =             92

   => Loading Basis Set <=

    Name: (AUG-CC-PV(T+D)Z AUX)
    Role: JKFIT
    Keyword: DF_BASIS_SCF
    atoms 1   entry O          line   286 file /work/zw18965/.conda/envs/p4env/share/psi4/basis/aug-cc-pvtz-jkfit.gbs 
    atoms 2-3 entry H          line    70 file /work/zw18965/.conda/envs/p4env/share/psi4/basis/aug-cc-pvtz-jkfit.gbs 

  ==> Pre-Iterations <==

   -------------------------------------------------------
    Irrep   Nso     Nmo     Nalpha   Nbeta   Ndocc  Nsocc
   -------------------------------------------------------
     A1        35      35       0       0       0       0
     A2        12      12       0       0       0       0
     B1        18      18       0       0       0       0
     B2        27      27       0       0       0       0
   -------------------------------------------------------
    Total      92      92       5       5       5       0
   -------------------------------------------------------

  ==> Integral Setup <==

  ==> DiskDFJK: Density-Fitted J/K Matrices <==

    J tasked:                  Yes
    K tasked:                  Yes
    wK tasked:                 Yes
    Omega:               3.000E-01
    OpenMP threads:             24
    Integrals threads:          24
    Memory [MiB]:           102553
    Algorithm:                Core
    Integral Cache:           NONE
    Schwarz Cutoff:          1E-12
    Fitting Condition:       1E-10

   => Auxiliary Basis Set <=

  Basis Set: (AUG-CC-PV(T+D)Z AUX)
    Blend: AUG-CC-PVTZ-JKFIT
    Number of shells: 58
    Number of basis function: 196
    Number of Cartesian functions: 241
    Spherical Harmonics?: true
    Max angular momentum: 4

  Cached 100.0% of DFT collocation blocks in 0.433 [GiB].

  Minimum eigenvalue in the overlap matrix is 3.8715155115E-04.
  Using Symmetric Orthogonalization.

  SCF Guess: Superposition of Atomic Densities via on-the-fly atomic UHF.

  ==> Iterations <==

                           Total Energy        Delta E     RMS |[F,P]|

   @DF-RKS iter SAD:   -75.95341771015094   -7.59534e+01   0.00000e+00 
   @DF-RKS iter   1:   -76.29664820528100   -3.43230e-01   1.25536e-02 DIIS
   @DF-RKS iter   2:   -76.26708316789144    2.95650e-02   1.43850e-02 DIIS
   @DF-RKS iter   3:   -76.43237371403553   -1.65291e-01   3.31298e-04 DIIS
   @DF-RKS iter   4:   -76.43255176926554   -1.78055e-04   1.06051e-04 DIIS
   @DF-RKS iter   5:   -76.43256492112852   -1.31519e-05   1.76354e-05 DIIS
   @DF-RKS iter   6:   -76.43256547000418   -5.48876e-07   2.88636e-06 DIIS
   @DF-RKS iter   7:   -76.43256549441453   -2.44104e-08   5.26987e-07 DIIS
   @DF-RKS iter   8:   -76.43256549551955   -1.10502e-09   8.67546e-08 DIIS
   @DF-RKS iter   9:   -76.43256549555798   -3.84262e-11   1.22144e-08 DIIS
   @DF-RKS iter  10:   -76.43256549555852   -5.40012e-13   8.75383e-10 DIIS
  Energy and wave function converged.


  ==> Post-Iterations <==

    Orbital Energies [Eh]
    ---------------------

    Doubly Occupied:                                                      

       1A1   -19.341064     2A1    -1.145362     1B2    -0.641393  
       3A1    -0.505341     1B1    -0.428422  

    Virtual:                                                              

       4A1     0.008776     2B2     0.036247     5A1     0.109358  
       2B1     0.129652     6A1     0.143034     3B2     0.157287  
       4B2     0.189914     7A1     0.209819     1A2     0.230334  
       3B1     0.264618     8A1     0.273481     5B2     0.332510  
       9A1     0.379768     6B2     0.405895     7B2     0.534203  
      10A1     0.591488    11A1     0.642439     2A2     0.660150  
       4B1     0.666489    12A1     0.755323     5B1     0.777635  
      13A1     0.804280     6B1     0.836395     8B2     0.838284  
       3A2     0.855773     9B2     0.866037    14A1     0.883495  
      15A1     0.936735    10B2     0.949952     7B1     0.988346  
      11B2     1.038588    16A1     1.101276     4A2     1.102615  
      12B2     1.165694     5A2     1.395280    17A1     1.417937  
       8B1     1.459195    18A1     1.653436    13B2     1.690495  
      14B2     1.823054    19A1     1.950620     9B1     2.088859  
       6A2     2.141383    20A1     2.147843    21A1     2.223622  
      10B1     2.254059    15B2     2.262644    22A1     2.297905  
      16B2     2.492584    11B1     2.516339    23A1     2.572522  
      17B2     2.636567     7A2     2.695255    18B2     3.408368  
      24A1     3.492500    12B1     3.776148     8A2     3.803884  
      25A1     3.945873    19B2     4.032966    13B1     4.063760  
       9A2     4.149443    26A1     4.154206    14B1     4.168850  
      20B2     4.247263    27A1     4.416999    21B2     4.554531  
      10A2     4.881735    22B2     4.894551    23B2     4.968383  
      28A1     5.020395    15B1     5.220908    29A1     5.350050  
      30A1     5.832701    24B2     6.155312    16B1     6.354231  
      31A1     6.544840    17B1     6.764690    18B1     6.853959  
      32A1     6.926695    25B2     6.929942    11A2     6.946811  
      12A2     6.955837    33A1     7.144691    34A1     7.494679  
      26B2     7.524183    27B2     8.391991    35A1    15.189361  

    Final Occupation by Irrep:
             A1    A2    B1    B2 
    DOCC [     3,    0,    1,    1 ]

  @DF-RKS Final Energy:   -76.43256549555852

   => Energetics <=

    Nuclear Repulsion Energy =              9.1779768700719995
    One-Electron Energy =                -122.9556099078818647
    Two-Electron Energy =                  43.9561717930567752
    DFT Exchange-Correlation Energy =      -6.6536685328631258
    Empirical Dispersion Energy =           0.0000000000000000
    VV10 Nonlocal Energy =                  0.0425642820576954
    Total Energy =                        -76.4325654955585208

Computation Completed


Properties will be evaluated at   0.000000,   0.000000,   0.000000 [a0]

Properties computed using the SCF density matrix

  Nuclear Dipole Moment: [e a0]
     X:     0.0000      Y:     0.0000      Z:     0.9836

  Electronic Dipole Moment: [e a0]
     X:     0.0000      Y:     0.0000      Z:    -0.2500

  Dipole Moment: [e a0]
     X:     0.0000      Y:     0.0000      Z:     0.7337     Total:     0.7337

  Dipole Moment: [D]
     X:     0.0000      Y:     0.0000      Z:     1.8649     Total:     1.8649


*** tstop() called on bp1-compute00092.data.bp.acrc.priv at Tue Apr 27 17:31:06 2021
Module time:
	user time   =      75.66 seconds =       1.26 minutes
	system time =       3.57 seconds =       0.06 minutes
	total time  =          3 seconds =       0.05 minutes
Total time:
	user time   =     148.60 seconds =       2.48 minutes
	system time =       7.50 seconds =       0.12 minutes
	total time  =          7 seconds =       0.12 minutes

  //>>>>>>>>>>>>>>>>>>>>>>>>>>>>>>>>>>>//
  //    Loading displacement 3 of 5    //
  //<<<<<<<<<<<<<<<<<<<<<<<<<<<<<<<<<<<//

*** tstart() called on bp1-compute00092.data.bp.acrc.priv
*** at Tue Apr 27 17:31:06 2021

   => Loading Basis Set <=

    Name: AUG-CC-PV(T+D)Z
    Role: ORBITAL
    Keyword: BASIS
    atoms 1   entry O          line   347 file /work/zw18965/.conda/envs/p4env/share/psi4/basis/aug-cc-pv_tpd_z.gbs 
    atoms 2-3 entry H          line    56 file /work/zw18965/.conda/envs/p4env/share/psi4/basis/aug-cc-pv_tpd_z.gbs 


         ---------------------------------------------------------
                                   SCF
               by Justin Turney, Rob Parrish, Andy Simmonett
                          and Daniel G. A. Smith
                              RKS Reference
                       24 Threads, 137329 MiB Core
         ---------------------------------------------------------

  ==> Geometry <==

    Molecular point group: c2v
    Full point group: C2v

    Geometry (in Angstrom), charge = 0, multiplicity = 1:

       Center              X                  Y                   Z               Mass       
    ------------   -----------------  -----------------  -----------------  -----------------
         O            0.000000000000     0.000000000000    -0.065691093083    15.994914619570
         H           -0.000000000000     0.755452663361     0.521282658961     1.007825032230
         H            0.000000000000    -0.755452663361     0.521282658961     1.007825032230

  Running in c2v symmetry.

  Rotational constants: A =     27.33313  B =     14.65436  C =      9.53974 [cm^-1]
  Rotational constants: A = 819426.68630  B = 439326.65046  C = 285994.06324 [MHz]
  Nuclear repulsion =    9.200415960578663

  Charge       = 0
  Multiplicity = 1
  Electrons    = 10
  Nalpha       = 5
  Nbeta        = 5

  ==> Algorithm <==

  SCF Algorithm Type is DF.
  DIIS enabled.
  MOM disabled.
  Fractional occupation disabled.
  Guess Type is SAD.
  Energy threshold   = 1.00e-08
  Density threshold  = 1.00e-08
  Integral threshold = 0.00e+00

  ==> Primary Basis <==

  Basis Set: AUG-CC-PV(T+D)Z
    Blend: AUG-CC-PV(T+D)Z
    Number of shells: 32
    Number of basis function: 92
    Number of Cartesian functions: 105
    Spherical Harmonics?: true
    Max angular momentum: 3

  ==> DFT Potential <==

   => Composite Functional: WB97M-V <= 

    wB97M-V Hyb-GGA Exchange-Correlation Functional

    N. Mardirossian and M. Head-Gordon, J. Chem. Phys. 144, 214110 (2016)

    Deriv               =              1
    GGA                 =           TRUE
    Meta                =           TRUE

    Exchange Hybrid     =           TRUE
    MP2 Hybrid          =          FALSE

   => Exchange-Correlation Functionals <=

    1.0000   wB97M-V exchange-correlation functional

   => Exact (HF) Exchange <=

    0.8500            HF,LR [omega = 0.3000]
    0.1500               HF 

   => VV10 Non-Local Parameters <=

    VV10 B              =     6.0000E+00
    VV10 C              =     1.0000E-02

   => Molecular Quadrature <=

    Radial Scheme          =       TREUTLER
    Pruning Scheme         =           FLAT
    Nuclear Scheme         =       TREUTLER

    BS radius alpha        =              1
    Pruning alpha          =              1
    Radial Points          =             75
    Spherical Points       =            302
    Total Points           =          67950
    Total Blocks           =            584
    Max Points             =            255
    Max Functions          =             92

   => Loading Basis Set <=

    Name: (AUG-CC-PV(T+D)Z AUX)
    Role: JKFIT
    Keyword: DF_BASIS_SCF
    atoms 1   entry O          line   286 file /work/zw18965/.conda/envs/p4env/share/psi4/basis/aug-cc-pvtz-jkfit.gbs 
    atoms 2-3 entry H          line    70 file /work/zw18965/.conda/envs/p4env/share/psi4/basis/aug-cc-pvtz-jkfit.gbs 

  ==> Pre-Iterations <==

   -------------------------------------------------------
    Irrep   Nso     Nmo     Nalpha   Nbeta   Ndocc  Nsocc
   -------------------------------------------------------
     A1        35      35       0       0       0       0
     A2        12      12       0       0       0       0
     B1        18      18       0       0       0       0
     B2        27      27       0       0       0       0
   -------------------------------------------------------
    Total      92      92       5       5       5       0
   -------------------------------------------------------

  ==> Integral Setup <==

  ==> DiskDFJK: Density-Fitted J/K Matrices <==

    J tasked:                  Yes
    K tasked:                  Yes
    wK tasked:                 Yes
    Omega:               3.000E-01
    OpenMP threads:             24
    Integrals threads:          24
    Memory [MiB]:           102553
    Algorithm:                Core
    Integral Cache:           NONE
    Schwarz Cutoff:          1E-12
    Fitting Condition:       1E-10

   => Auxiliary Basis Set <=

  Basis Set: (AUG-CC-PV(T+D)Z AUX)
    Blend: AUG-CC-PVTZ-JKFIT
    Number of shells: 58
    Number of basis function: 196
    Number of Cartesian functions: 241
    Spherical Harmonics?: true
    Max angular momentum: 4

  Cached 100.0% of DFT collocation blocks in 0.433 [GiB].

  Minimum eigenvalue in the overlap matrix is 3.8439951463E-04.
  Using Symmetric Orthogonalization.

  SCF Guess: Superposition of Atomic Densities via on-the-fly atomic UHF.

  ==> Iterations <==

                           Total Energy        Delta E     RMS |[F,P]|

   @DF-RKS iter SAD:   -75.95509982785973   -7.59551e+01   0.00000e+00 
   @DF-RKS iter   1:   -76.29661263629845   -3.41513e-01   1.25676e-02 DIIS
   @DF-RKS iter   2:   -76.26781139093301    2.88012e-02   1.43627e-02 DIIS
   @DF-RKS iter   3:   -76.43236298744301   -1.64552e-01   3.30716e-04 DIIS
   @DF-RKS iter   4:   -76.43254077583686   -1.77788e-04   1.05580e-04 DIIS
   @DF-RKS iter   5:   -76.43255380261272   -1.30268e-05   1.75067e-05 DIIS
   @DF-RKS iter   6:   -76.43255434507635   -5.42464e-07   2.87869e-06 DIIS
   @DF-RKS iter   7:   -76.43255436944187   -2.43655e-08   5.27699e-07 DIIS
   @DF-RKS iter   8:   -76.43255437054867   -1.10680e-09   8.65138e-08 DIIS
   @DF-RKS iter   9:   -76.43255437058698   -3.83125e-11   1.21411e-08 DIIS
   @DF-RKS iter  10:   -76.43255437058770   -7.10543e-13   8.64475e-10 DIIS
  Energy and wave function converged.


  ==> Post-Iterations <==

    Orbital Energies [Eh]
    ---------------------

    Doubly Occupied:                                                      

       1A1   -19.340539     2A1    -1.146186     1B2    -0.643077  
       3A1    -0.504901     1B1    -0.428548  

    Virtual:                                                              

       4A1     0.008869     2B2     0.036253     5A1     0.109441  
       2B1     0.129494     6A1     0.143096     3B2     0.157251  
       4B2     0.190309     7A1     0.209878     1A2     0.230226  
       3B1     0.265124     8A1     0.273820     5B2     0.332547  
       9A1     0.380406     6B2     0.406694     7B2     0.534450  
      10A1     0.591314    11A1     0.642903     2A2     0.659890  
       4B1     0.666421    12A1     0.755899     5B1     0.777615  
      13A1     0.803751     6B1     0.836667     8B2     0.838928  
       3A2     0.855887     9B2     0.866029    14A1     0.884603  
      15A1     0.937507    10B2     0.950610     7B1     0.988933  
      11B2     1.039309    16A1     1.101527     4A2     1.102836  
      12B2     1.164865     5A2     1.396235    17A1     1.420059  
       8B1     1.461403    18A1     1.651836    13B2     1.689575  
      14B2     1.826977    19A1     1.952447     9B1     2.088865  
       6A2     2.142235    20A1     2.146880    21A1     2.224188  
      10B1     2.254162    15B2     2.262256    22A1     2.297382  
      16B2     2.491996    11B1     2.516027    23A1     2.573980  
      17B2     2.640622     7A2     2.696329    18B2     3.411145  
      24A1     3.498749    12B1     3.779533     8A2     3.804347  
      25A1     3.951713    19B2     4.034604    13B1     4.068818  
       9A2     4.150950    26A1     4.156575    14B1     4.170921  
      20B2     4.248356    27A1     4.418634    21B2     4.559317  
      10A2     4.888960    22B2     4.893262    23B2     4.977179  
      28A1     5.029457    15B1     5.226598    29A1     5.357662  
      30A1     5.834152    24B2     6.156471    16B1     6.355032  
      31A1     6.545740    17B1     6.765948    18B1     6.857865  
      32A1     6.923835    25B2     6.942083    11A2     6.946621  
      12A2     6.962130    33A1     7.152863    34A1     7.503600  
      26B2     7.529880    27B2     8.401486    35A1    15.266302  

    Final Occupation by Irrep:
             A1    A2    B1    B2 
    DOCC [     3,    0,    1,    1 ]

  @DF-RKS Final Energy:   -76.43255437058770

   => Energetics <=

    Nuclear Repulsion Energy =              9.2004159605786633
    One-Electron Energy =                -122.9960267209393834
    Two-Electron Energy =                  43.9760196217186845
    DFT Exchange-Correlation Energy =      -6.6555299584028784
    Empirical Dispersion Energy =           0.0000000000000000
    VV10 Nonlocal Energy =                  0.0425667264572154
    Total Energy =                        -76.4325543705877095

Computation Completed


Properties will be evaluated at   0.000000,   0.000000,   0.000000 [a0]

Properties computed using the SCF density matrix

  Nuclear Dipole Moment: [e a0]
     X:     0.0000      Y:     0.0000      Z:     0.9771

  Electronic Dipole Moment: [e a0]
     X:     0.0000      Y:     0.0000      Z:    -0.2461

  Dipole Moment: [e a0]
     X:     0.0000      Y:     0.0000      Z:     0.7310     Total:     0.7310

  Dipole Moment: [D]
     X:     0.0000      Y:     0.0000      Z:     1.8580     Total:     1.8580


*** tstop() called on bp1-compute00092.data.bp.acrc.priv at Tue Apr 27 17:31:09 2021
Module time:
	user time   =      69.90 seconds =       1.16 minutes
	system time =       2.77 seconds =       0.05 minutes
	total time  =          3 seconds =       0.05 minutes
Total time:
	user time   =     218.64 seconds =       3.64 minutes
	system time =      10.28 seconds =       0.17 minutes
	total time  =         10 seconds =       0.17 minutes

  //>>>>>>>>>>>>>>>>>>>>>>>>>>>>>>>>>>>//
  //    Loading displacement 4 of 5    //
  //<<<<<<<<<<<<<<<<<<<<<<<<<<<<<<<<<<<//

*** tstart() called on bp1-compute00092.data.bp.acrc.priv
*** at Tue Apr 27 17:31:09 2021

   => Loading Basis Set <=

    Name: AUG-CC-PV(T+D)Z
    Role: ORBITAL
    Keyword: BASIS
    atoms 1   entry O          line   347 file /work/zw18965/.conda/envs/p4env/share/psi4/basis/aug-cc-pv_tpd_z.gbs 
    atoms 2-3 entry H          line    56 file /work/zw18965/.conda/envs/p4env/share/psi4/basis/aug-cc-pv_tpd_z.gbs 


         ---------------------------------------------------------
                                   SCF
               by Justin Turney, Rob Parrish, Andy Simmonett
                          and Daniel G. A. Smith
                              RKS Reference
                       24 Threads, 137329 MiB Core
         ---------------------------------------------------------

  ==> Geometry <==

    Molecular point group: c2v
    Full point group: C2v

    Geometry (in Angstrom), charge = 0, multiplicity = 1:

       Center              X                  Y                   Z               Mass       
    ------------   -----------------  -----------------  -----------------  -----------------
         O            0.000000000000     0.000000000000    -0.065912414824    15.994914619570
         H           -0.000000000000     0.753589016730     0.523038927279     1.007825032230
         H            0.000000000000    -0.753589016730     0.523038927279     1.007825032230

  Running in c2v symmetry.

  Rotational constants: A =     27.14988  B =     14.72693  C =      9.54787 [cm^-1]
  Rotational constants: A = 813932.95770  B = 441502.27142  C = 286237.98446 [MHz]
  Nuclear repulsion =    9.203636767920623

  Charge       = 0
  Multiplicity = 1
  Electrons    = 10
  Nalpha       = 5
  Nbeta        = 5

  ==> Algorithm <==

  SCF Algorithm Type is DF.
  DIIS enabled.
  MOM disabled.
  Fractional occupation disabled.
  Guess Type is SAD.
  Energy threshold   = 1.00e-08
  Density threshold  = 1.00e-08
  Integral threshold = 0.00e+00

  ==> Primary Basis <==

  Basis Set: AUG-CC-PV(T+D)Z
    Blend: AUG-CC-PV(T+D)Z
    Number of shells: 32
    Number of basis function: 92
    Number of Cartesian functions: 105
    Spherical Harmonics?: true
    Max angular momentum: 3

  ==> DFT Potential <==

   => Composite Functional: WB97M-V <= 

    wB97M-V Hyb-GGA Exchange-Correlation Functional

    N. Mardirossian and M. Head-Gordon, J. Chem. Phys. 144, 214110 (2016)

    Deriv               =              1
    GGA                 =           TRUE
    Meta                =           TRUE

    Exchange Hybrid     =           TRUE
    MP2 Hybrid          =          FALSE

   => Exchange-Correlation Functionals <=

    1.0000   wB97M-V exchange-correlation functional

   => Exact (HF) Exchange <=

    0.8500            HF,LR [omega = 0.3000]
    0.1500               HF 

   => VV10 Non-Local Parameters <=

    VV10 B              =     6.0000E+00
    VV10 C              =     1.0000E-02

   => Molecular Quadrature <=

    Radial Scheme          =       TREUTLER
    Pruning Scheme         =           FLAT
    Nuclear Scheme         =       TREUTLER

    BS radius alpha        =              1
    Pruning alpha          =              1
    Radial Points          =             75
    Spherical Points       =            302
    Total Points           =          67950
    Total Blocks           =            582
    Max Points             =            256
    Max Functions          =             92

   => Loading Basis Set <=

    Name: (AUG-CC-PV(T+D)Z AUX)
    Role: JKFIT
    Keyword: DF_BASIS_SCF
    atoms 1   entry O          line   286 file /work/zw18965/.conda/envs/p4env/share/psi4/basis/aug-cc-pvtz-jkfit.gbs 
    atoms 2-3 entry H          line    70 file /work/zw18965/.conda/envs/p4env/share/psi4/basis/aug-cc-pvtz-jkfit.gbs 

  ==> Pre-Iterations <==

   -------------------------------------------------------
    Irrep   Nso     Nmo     Nalpha   Nbeta   Ndocc  Nsocc
   -------------------------------------------------------
     A1        35      35       0       0       0       0
     A2        12      12       0       0       0       0
     B1        18      18       0       0       0       0
     B2        27      27       0       0       0       0
   -------------------------------------------------------
    Total      92      92       5       5       5       0
   -------------------------------------------------------

  ==> Integral Setup <==

  ==> DiskDFJK: Density-Fitted J/K Matrices <==

    J tasked:                  Yes
    K tasked:                  Yes
    wK tasked:                 Yes
    Omega:               3.000E-01
    OpenMP threads:             24
    Integrals threads:          24
    Memory [MiB]:           102553
    Algorithm:                Core
    Integral Cache:           NONE
    Schwarz Cutoff:          1E-12
    Fitting Condition:       1E-10

   => Auxiliary Basis Set <=

  Basis Set: (AUG-CC-PV(T+D)Z AUX)
    Blend: AUG-CC-PVTZ-JKFIT
    Number of shells: 58
    Number of basis function: 196
    Number of Cartesian functions: 241
    Spherical Harmonics?: true
    Max angular momentum: 4

  Cached 100.0% of DFT collocation blocks in 0.433 [GiB].

  Minimum eigenvalue in the overlap matrix is 3.8471135220E-04.
  Using Symmetric Orthogonalization.

  SCF Guess: Superposition of Atomic Densities via on-the-fly atomic UHF.

  ==> Iterations <==

                           Total Energy        Delta E     RMS |[F,P]|

   @DF-RKS iter SAD:   -75.95558308963014   -7.59556e+01   0.00000e+00 
   @DF-RKS iter   1:   -76.29658045856746   -3.40997e-01   1.25678e-02 DIIS
   @DF-RKS iter   2:   -76.26780674547433    2.87737e-02   1.43623e-02 DIIS
   @DF-RKS iter   3:   -76.43234560111286   -1.64539e-01   3.30537e-04 DIIS
   @DF-RKS iter   4:   -76.43252291460499   -1.77313e-04   1.05441e-04 DIIS
   @DF-RKS iter   5:   -76.43253588225980   -1.29677e-05   1.74748e-05 DIIS
   @DF-RKS iter   6:   -76.43253641934277   -5.37083e-07   2.86140e-06 DIIS
   @DF-RKS iter   7:   -76.43253644322189   -2.38791e-08   5.21665e-07 DIIS
   @DF-RKS iter   8:   -76.43253644429954   -1.07765e-09   8.57260e-08 DIIS
   @DF-RKS iter   9:   -76.43253644433688   -3.73319e-11   1.20766e-08 DIIS
   @DF-RKS iter  10:   -76.43253644433757   -6.96332e-13   8.62340e-10 DIIS
  Energy and wave function converged.


  ==> Post-Iterations <==

    Orbital Energies [Eh]
    ---------------------

    Doubly Occupied:                                                      

       1A1   -19.340616     2A1    -1.146524     1B2    -0.642588  
       3A1    -0.505531     1B1    -0.428634  

    Virtual:                                                              

       4A1     0.008852     2B2     0.036282     5A1     0.109398  
       2B1     0.129531     6A1     0.143188     3B2     0.157337  
       4B2     0.190221     7A1     0.209941     1A2     0.230351  
       3B1     0.264810     8A1     0.273634     5B2     0.332628  
       9A1     0.380476     6B2     0.406703     7B2     0.534303  
      10A1     0.591782    11A1     0.642612     2A2     0.660140  
       4B1     0.666432    12A1     0.756293     5B1     0.777779  
      13A1     0.803830     6B1     0.836355     8B2     0.839026  
       3A2     0.856077     9B2     0.866321    14A1     0.883969  
      15A1     0.937475    10B2     0.950622     7B1     0.988814  
      11B2     1.039210    16A1     1.102149     4A2     1.103246  
      12B2     1.164837     5A2     1.396179    17A1     1.417870  
       8B1     1.460741    18A1     1.652119    13B2     1.692374  
      14B2     1.826453    19A1     1.953189     9B1     2.089240  
       6A2     2.142192    20A1     2.147180    21A1     2.224505  
      10B1     2.254623    15B2     2.262568    22A1     2.297792  
      16B2     2.491101    11B1     2.515620    23A1     2.575102  
      17B2     2.637820     7A2     2.696635    18B2     3.412718  
      24A1     3.496647    12B1     3.779596     8A2     3.805907  
      25A1     3.947857    19B2     4.036799    13B1     4.065163  
       9A2     4.150954    26A1     4.154573    14B1     4.171531  
      20B2     4.250084    27A1     4.420520    21B2     4.561810  
      10A2     4.888867    22B2     4.897058    23B2     4.975248  
      28A1     5.030401    15B1     5.228782    29A1     5.354543  
      30A1     5.837045    24B2     6.155092    16B1     6.355169  
      31A1     6.550191    17B1     6.766138    18B1     6.857996  
      32A1     6.926825    25B2     6.937341    11A2     6.946180  
      12A2     6.963563    33A1     7.152904    34A1     7.499824  
      26B2     7.533180    27B2     8.405440    35A1    15.272752  

    Final Occupation by Irrep:
             A1    A2    B1    B2 
    DOCC [     3,    0,    1,    1 ]

  @DF-RKS Final Energy:   -76.43253644433757

   => Energetics <=

    Nuclear Repulsion Energy =              9.2036367679206226
    One-Electron Energy =                -123.0009952318288100
    Two-Electron Energy =                  43.9780301543040508
    DFT Exchange-Correlation Energy =      -6.6557752336669713
    Empirical Dispersion Energy =           0.0000000000000000
    VV10 Nonlocal Energy =                  0.0425670989335459
    Total Energy =                        -76.4325364443375577

Computation Completed


Properties will be evaluated at   0.000000,   0.000000,   0.000000 [a0]

Properties computed using the SCF density matrix

  Nuclear Dipole Moment: [e a0]
     X:     0.0000      Y:     0.0000      Z:     0.9803

  Electronic Dipole Moment: [e a0]
     X:     0.0000      Y:     0.0000      Z:    -0.2475

  Dipole Moment: [e a0]
     X:     0.0000      Y:     0.0000      Z:     0.7329     Total:     0.7329

  Dipole Moment: [D]
     X:     0.0000      Y:     0.0000      Z:     1.8627     Total:     1.8627


*** tstop() called on bp1-compute00092.data.bp.acrc.priv at Tue Apr 27 17:31:12 2021
Module time:
	user time   =      69.54 seconds =       1.16 minutes
	system time =       2.37 seconds =       0.04 minutes
	total time  =          3 seconds =       0.05 minutes
Total time:
	user time   =     288.31 seconds =       4.81 minutes
	system time =      12.65 seconds =       0.21 minutes
	total time  =         13 seconds =       0.22 minutes

  //>>>>>>>>>>>>>>>>>>>>>>>>>>>>>>>>>>>//
  //    Loading displacement 5 of 5    //
  //<<<<<<<<<<<<<<<<<<<<<<<<<<<<<<<<<<<//

*** tstart() called on bp1-compute00092.data.bp.acrc.priv
*** at Tue Apr 27 17:31:12 2021

   => Loading Basis Set <=

    Name: AUG-CC-PV(T+D)Z
    Role: ORBITAL
    Keyword: BASIS
    atoms 1   entry O          line   347 file /work/zw18965/.conda/envs/p4env/share/psi4/basis/aug-cc-pv_tpd_z.gbs 
    atoms 2-3 entry H          line    56 file /work/zw18965/.conda/envs/p4env/share/psi4/basis/aug-cc-pv_tpd_z.gbs 


         ---------------------------------------------------------
                                   SCF
               by Justin Turney, Rob Parrish, Andy Simmonett
                          and Daniel G. A. Smith
                              RKS Reference
                       24 Threads, 137329 MiB Core
         ---------------------------------------------------------

  ==> Geometry <==

    Molecular point group: c2v
    Full point group: C2v

    Geometry (in Angstrom), charge = 0, multiplicity = 1:

       Center              X                  Y                   Z               Mass       
    ------------   -----------------  -----------------  -----------------  -----------------
         O           -0.000000000000     0.000000000000    -0.065912414824    15.994914619570
         H           -0.000000000000     0.757316309993     0.523038927279     1.007825032230
         H            0.000000000000    -0.757316309993     0.523038927279     1.007825032230

  Running in c2v symmetry.

  Rotational constants: A =     27.14988  B =     14.58232  C =      9.48688 [cm^-1]
  Rotational constants: A = 813932.95770  B = 437167.07141  C = 284409.46300 [MHz]
  Nuclear repulsion =    9.174784246374898

  Charge       = 0
  Multiplicity = 1
  Electrons    = 10
  Nalpha       = 5
  Nbeta        = 5

  ==> Algorithm <==

  SCF Algorithm Type is DF.
  DIIS enabled.
  MOM disabled.
  Fractional occupation disabled.
  Guess Type is SAD.
  Energy threshold   = 1.00e-08
  Density threshold  = 1.00e-08
  Integral threshold = 0.00e+00

  ==> Primary Basis <==

  Basis Set: AUG-CC-PV(T+D)Z
    Blend: AUG-CC-PV(T+D)Z
    Number of shells: 32
    Number of basis function: 92
    Number of Cartesian functions: 105
    Spherical Harmonics?: true
    Max angular momentum: 3

  ==> DFT Potential <==

   => Composite Functional: WB97M-V <= 

    wB97M-V Hyb-GGA Exchange-Correlation Functional

    N. Mardirossian and M. Head-Gordon, J. Chem. Phys. 144, 214110 (2016)

    Deriv               =              1
    GGA                 =           TRUE
    Meta                =           TRUE

    Exchange Hybrid     =           TRUE
    MP2 Hybrid          =          FALSE

   => Exchange-Correlation Functionals <=

    1.0000   wB97M-V exchange-correlation functional

   => Exact (HF) Exchange <=

    0.8500            HF,LR [omega = 0.3000]
    0.1500               HF 

   => VV10 Non-Local Parameters <=

    VV10 B              =     6.0000E+00
    VV10 C              =     1.0000E-02

   => Molecular Quadrature <=

    Radial Scheme          =       TREUTLER
    Pruning Scheme         =           FLAT
    Nuclear Scheme         =       TREUTLER

    BS radius alpha        =              1
    Pruning alpha          =              1
    Radial Points          =             75
    Spherical Points       =            302
    Total Points           =          67950
    Total Blocks           =            584
    Max Points             =            256
    Max Functions          =             92

   => Loading Basis Set <=

    Name: (AUG-CC-PV(T+D)Z AUX)
    Role: JKFIT
    Keyword: DF_BASIS_SCF
    atoms 1   entry O          line   286 file /work/zw18965/.conda/envs/p4env/share/psi4/basis/aug-cc-pvtz-jkfit.gbs 
    atoms 2-3 entry H          line    70 file /work/zw18965/.conda/envs/p4env/share/psi4/basis/aug-cc-pvtz-jkfit.gbs 

  ==> Pre-Iterations <==

   -------------------------------------------------------
    Irrep   Nso     Nmo     Nalpha   Nbeta   Ndocc  Nsocc
   -------------------------------------------------------
     A1        35      35       0       0       0       0
     A2        12      12       0       0       0       0
     B1        18      18       0       0       0       0
     B2        27      27       0       0       0       0
   -------------------------------------------------------
    Total      92      92       5       5       5       0
   -------------------------------------------------------

  ==> Integral Setup <==

  ==> DiskDFJK: Density-Fitted J/K Matrices <==

    J tasked:                  Yes
    K tasked:                  Yes
    wK tasked:                 Yes
    Omega:               3.000E-01
    OpenMP threads:             24
    Integrals threads:          24
    Memory [MiB]:           102553
    Algorithm:                Core
    Integral Cache:           NONE
    Schwarz Cutoff:          1E-12
    Fitting Condition:       1E-10

   => Auxiliary Basis Set <=

  Basis Set: (AUG-CC-PV(T+D)Z AUX)
    Blend: AUG-CC-PVTZ-JKFIT
    Number of shells: 58
    Number of basis function: 196
    Number of Cartesian functions: 241
    Spherical Harmonics?: true
    Max angular momentum: 4

  Cached 100.0% of DFT collocation blocks in 0.433 [GiB].

  Minimum eigenvalue in the overlap matrix is 3.8683123244E-04.
  Using Symmetric Orthogonalization.

  SCF Guess: Superposition of Atomic Densities via on-the-fly atomic UHF.

  ==> Iterations <==

                           Total Energy        Delta E     RMS |[F,P]|

   @DF-RKS iter SAD:   -75.95293447170957   -7.59529e+01   0.00000e+00 
   @DF-RKS iter   1:   -76.29667626721685   -3.43742e-01   1.25535e-02 DIIS
   @DF-RKS iter   2:   -76.26708458320698    2.95917e-02   1.43853e-02 DIIS
   @DF-RKS iter   3:   -76.43238743544292   -1.65303e-01   3.31473e-04 DIIS
   @DF-RKS iter   4:   -76.43256596878336   -1.78533e-04   1.06190e-04 DIIS
   @DF-RKS iter   5:   -76.43257918040646   -1.32116e-05   1.76674e-05 DIIS
   @DF-RKS iter   6:   -76.43257973475387   -5.54347e-07   2.90369e-06 DIIS
   @DF-RKS iter   7:   -76.43257975965979   -2.49059e-08   5.33081e-07 DIIS
   @DF-RKS iter   8:   -76.43257976079465   -1.13486e-09   8.75456e-08 DIIS
   @DF-RKS iter   9:   -76.43257976083385   -3.91935e-11   1.22783e-08 DIIS
   @DF-RKS iter  10:   -76.43257976083466   -8.10019e-13   8.77287e-10 DIIS
  Energy and wave function converged.


  ==> Post-Iterations <==

    Orbital Energies [Eh]
    ---------------------

    Doubly Occupied:                                                      

       1A1   -19.340986     2A1    -1.145028     1B2    -0.641879  
       3A1    -0.504714     1B1    -0.428336  

    Virtual:                                                              

       4A1     0.008792     2B2     0.036217     5A1     0.109400  
       2B1     0.129615     6A1     0.142942     3B2     0.157201  
       4B2     0.190002     7A1     0.209757     1A2     0.230209  
       3B1     0.264931     8A1     0.273665     5B2     0.332432  
       9A1     0.379697     6B2     0.405888     7B2     0.534348  
      10A1     0.591022    11A1     0.642734     2A2     0.659900  
       4B1     0.666479    12A1     0.754929     5B1     0.777468  
      13A1     0.804203     6B1     0.836710     8B2     0.838189  
       3A2     0.855583     9B2     0.865754    14A1     0.884126  
      15A1     0.936771    10B2     0.949939     7B1     0.988463  
      11B2     1.038685    16A1     1.100649     4A2     1.102204  
      12B2     1.165720     5A2     1.395340    17A1     1.420139  
       8B1     1.459853    18A1     1.653152    13B2     1.687708  
      14B2     1.823569    19A1     1.949873     9B1     2.088487  
       6A2     2.141423    20A1     2.147539    21A1     2.223304  
      10B1     2.253604    15B2     2.262340    22A1     2.297524  
      16B2     2.493473    11B1     2.516745    23A1     2.571371  
      17B2     2.639367     7A2     2.694948    18B2     3.406775  
      24A1     3.494593    12B1     3.776081     8A2     3.802336  
      25A1     3.949669    19B2     4.030809    13B1     4.067404  
       9A2     4.149449    26A1     4.156281    14B1     4.168208  
      20B2     4.245567    27A1     4.415109    21B2     4.552097  
      10A2     4.881836    22B2     4.890444    23B2     4.970513  
      28A1     5.019458    15B1     5.218728    29A1     5.353162  
      30A1     5.829750    24B2     6.156733    16B1     6.354101  
      31A1     6.540498    17B1     6.764561    18B1     6.853763  
      32A1     6.923732    25B2     6.934664    11A2     6.947180  
      12A2     6.954500    33A1     7.144632    34A1     7.498380  
      26B2     7.520931    27B2     8.388049    35A1    15.182993  

    Final Occupation by Irrep:
             A1    A2    B1    B2 
    DOCC [     3,    0,    1,    1 ]

  @DF-RKS Final Energy:   -76.43257976083466

   => Energetics <=

    Nuclear Repulsion Energy =              9.1747842463748981
    One-Electron Energy =                -122.9506861775617779
    Two-Electron Energy =                  43.9541839763517146
    DFT Exchange-Correlation Energy =      -6.6534257191437884
    Empirical Dispersion Energy =           0.0000000000000000
    VV10 Nonlocal Energy =                  0.0425639131443057
    Total Energy =                        -76.4325797608346420

Computation Completed


Properties will be evaluated at   0.000000,   0.000000,   0.000000 [a0]

Properties computed using the SCF density matrix

  Nuclear Dipole Moment: [e a0]
     X:     0.0000      Y:     0.0000      Z:     0.9803

  Electronic Dipole Moment: [e a0]
     X:     0.0000      Y:     0.0000      Z:    -0.2485

  Dipole Moment: [e a0]
     X:     0.0000      Y:     0.0000      Z:     0.7318     Total:     0.7318

  Dipole Moment: [D]
     X:     0.0000      Y:     0.0000      Z:     1.8602     Total:     1.8602


*** tstop() called on bp1-compute00092.data.bp.acrc.priv at Tue Apr 27 17:31:15 2021
Module time:
	user time   =      69.19 seconds =       1.15 minutes
	system time =       2.35 seconds =       0.04 minutes
	total time  =          3 seconds =       0.05 minutes
Total time:
	user time   =     357.64 seconds =       5.96 minutes
	system time =      15.01 seconds =       0.25 minutes
	total time  =         16 seconds =       0.27 minutes

         ----------------------------------------------------------
                                   FINDIF
                     R. A. King and Jonathon Misiewicz
         ---------------------------------------------------------

  Computing gradient from energies.
    Using 3-point formula.
    Energy without displacement:  -76.4325631828
    Check energies below for precision!
    Forces are for mass-weighted, symmetry-adapted cartesians (in au).

     Coord      Energy(-1)        Energy(+1)            Force
        0    -76.4325654956    -76.4325543706      0.0011124971
        1    -76.4325364443    -76.4325797608     -0.0043316497


-------------------------------------------------------------
  ## New Matrix (Symmetry 0) ##
  Irrep: 1 Size: 3 x 3

                 1                   2                   3

    1     0.00000000000000     0.00000000000000     0.00148844827637
    2     0.00000000000000    -0.00307489932817    -0.00074422413818
    3     0.00000000000000     0.00307489932817    -0.00074422413818




			-----------------------------------------
			 OPTKING 2.0: for geometry optimizations 
			  - R.A. King,  Bethel University        
			-----------------------------------------
	At level 1: Red. Int., RFO, no backsteps, dynamic trust

	Internal coordinates to be generated automatically.
	Detected frag 1 with atoms:  1 2 3
	---Fragment 1 Bond Connectivity---
	 1 : 2 3
	 2 : 1
	 3 : 1

	---Fragment 1 Geometry and Gradient---
	 O           0.0000000000        0.0000000000       -0.1245564123
	 H          -0.0000000000        1.4275986345        0.9884003255
	 H           0.0000000000       -1.4275986345        0.9884003255
	             0.0000000000        0.0000000000        0.0014884483
	             0.0000000000       -0.0030748993       -0.0007442241
	             0.0000000000        0.0030748993       -0.0007442241

	Previous optimization step data not found.  Starting new optimization.

	---Fragment 1 Intrafragment Coordinates---
	 - Coordinate -           - BOHR/RAD -       - ANG/DEG -
	 R(1,2)           =         1.810169	       0.957900
	 R(1,3)           =         1.810169	       0.957900
	 B(2,1,3)         =         1.817237	     104.120000

	Current energy   :       -76.4325631828

	Generating empirical Hessian (Schlegel '84) for each fragment.
	Taking RFO optimization step.
	Going to follow RFO solution 1.
	Using RFO vector 1.
	Norm of target step-size    0.01645
	Projected energy change by RFO approximation:        -0.0000787079

	Back-transformation to cartesian coordinates...
	Successfully converged to displaced geometry.

	--- Internal Coordinate Step in ANG or DEG, aJ/ANG or AJ/DEG ---
	 ---------------------------------------------------------------------------
	   Coordinate                Previous        Force       Change         New 
	   ----------                --------       ------       ------       ------
	    1 R(1,2)          =      0.957900     0.023749     0.002727     0.960627
	    2 R(1,3)          =      0.957900     0.023749     0.002727     0.960627
	    3 B(2,1,3)        =    104.120000     0.000180     0.844692   104.964692
	 ---------------------------------------------------------------------------
	Successfully symmetrized geometry.

  ==> Convergence Check <==

  Measures of convergence in internal coordinates in au.
  Criteria marked as inactive (o), active & met (*), and active & unmet ( ).
  --------------------------------------------------------------------------------------------- ~
   Step     Total Energy     Delta E     MAX Force     RMS Force      MAX Disp      RMS Disp    ~
  --------------------------------------------------------------------------------------------- ~
    Convergence Criteria    1.00e-06 *    3.00e-04 *             o    1.20e-03 *             o  ~
  --------------------------------------------------------------------------------------------- ~
      1     -76.43256318   -7.64e+01      2.88e-03      2.72e-03 o    1.47e-02      9.49e-03 o  ~
  ---------------------------------------------------------------------------------------------

	Writing optimization data to binary file.
	Structure for next step:
	Cartesian Geometry (in Angstrom)
	    O     0.0000000000   0.0000000000  -0.0632965595
	    H    -0.0000000000   0.7619365444   0.5217309977
	    H     0.0000000000  -0.7619365444   0.5217309977
			--------------------------
			 OPTKING Finished Execution 
			--------------------------

    Structure for next step:
    Molecular point group: c2v
    Full point group: C2v

    Geometry (in Angstrom), charge = 0, multiplicity = 1:

    O            0.000000000000     0.000000000000    -0.065473285190
    H           -0.000000000000     0.761936547394     0.519554274296
    H            0.000000000000    -0.761936547394     0.519554274296

gradient() will perform gradient computation by finite difference of analytic energies.

         ----------------------------------------------------------
                                   FINDIF
                     R. A. King and Jonathon Misiewicz
         ---------------------------------------------------------

  Using finite-differences of energies to determine gradients.
    Generating geometries for use with 3-point formula.
    Displacement size will be 5.00e-03.
    Number of atoms is 3.
    Number of symmetric SALCs is 2.
    Translations projected? 1. Rotations projected? 1.
    Number of geometries (including reference) is 5.

  //>>>>>>>>>>>>>>>>>>>>>>>>>>>>>>>>>>>//
  //    Loading displacement 1 of 5    //
  //<<<<<<<<<<<<<<<<<<<<<<<<<<<<<<<<<<<//

*** tstart() called on bp1-compute00092.data.bp.acrc.priv
*** at Tue Apr 27 17:31:15 2021

   => Loading Basis Set <=

    Name: AUG-CC-PV(T+D)Z
    Role: ORBITAL
    Keyword: BASIS
    atoms 1   entry O          line   347 file /work/zw18965/.conda/envs/p4env/share/psi4/basis/aug-cc-pv_tpd_z.gbs 
    atoms 2-3 entry H          line    56 file /work/zw18965/.conda/envs/p4env/share/psi4/basis/aug-cc-pv_tpd_z.gbs 


         ---------------------------------------------------------
                                   SCF
               by Justin Turney, Rob Parrish, Andy Simmonett
                          and Daniel G. A. Smith
                              RKS Reference
                       24 Threads, 137329 MiB Core
         ---------------------------------------------------------

  ==> Geometry <==

    Molecular point group: c2v
    Full point group: C2v

    Geometry (in Angstrom), charge = 0, multiplicity = 1:

       Center              X                  Y                   Z               Mass       
    ------------   -----------------  -----------------  -----------------  -----------------
         O            0.000000000000     0.000000000000    -0.065473285190    15.994914619570
         H           -0.000000000000     0.761936547394     0.519554274296     1.007825032230
         H            0.000000000000    -0.761936547394     0.519554274296     1.007825032230

  Running in c2v symmetry.

  Rotational constants: A =     27.51529  B =     14.40601  C =      9.45547 [cm^-1]
  Rotational constants: A = 824887.67601  B = 431881.35104  C = 283467.84198 [MHz]
  Nuclear repulsion =    9.161120178738242

  Charge       = 0
  Multiplicity = 1
  Electrons    = 10
  Nalpha       = 5
  Nbeta        = 5

  ==> Algorithm <==

  SCF Algorithm Type is DF.
  DIIS enabled.
  MOM disabled.
  Fractional occupation disabled.
  Guess Type is READ.
  Energy threshold   = 1.00e-08
  Density threshold  = 1.00e-08
  Integral threshold = 0.00e+00

  ==> Primary Basis <==

  Basis Set: AUG-CC-PV(T+D)Z
    Blend: AUG-CC-PV(T+D)Z
    Number of shells: 32
    Number of basis function: 92
    Number of Cartesian functions: 105
    Spherical Harmonics?: true
    Max angular momentum: 3

  ==> DFT Potential <==

   => Composite Functional: WB97M-V <= 

    wB97M-V Hyb-GGA Exchange-Correlation Functional

    N. Mardirossian and M. Head-Gordon, J. Chem. Phys. 144, 214110 (2016)

    Deriv               =              1
    GGA                 =           TRUE
    Meta                =           TRUE

    Exchange Hybrid     =           TRUE
    MP2 Hybrid          =          FALSE

   => Exchange-Correlation Functionals <=

    1.0000   wB97M-V exchange-correlation functional

   => Exact (HF) Exchange <=

    0.8500            HF,LR [omega = 0.3000]
    0.1500               HF 

   => VV10 Non-Local Parameters <=

    VV10 B              =     6.0000E+00
    VV10 C              =     1.0000E-02

   => Molecular Quadrature <=

    Radial Scheme          =       TREUTLER
    Pruning Scheme         =           FLAT
    Nuclear Scheme         =       TREUTLER

    BS radius alpha        =              1
    Pruning alpha          =              1
    Radial Points          =             75
    Spherical Points       =            302
    Total Points           =          67950
    Total Blocks           =            583
    Max Points             =            255
    Max Functions          =             92

   => Loading Basis Set <=

    Name: (AUG-CC-PV(T+D)Z AUX)
    Role: JKFIT
    Keyword: DF_BASIS_SCF
    atoms 1   entry O          line   286 file /work/zw18965/.conda/envs/p4env/share/psi4/basis/aug-cc-pvtz-jkfit.gbs 
    atoms 2-3 entry H          line    70 file /work/zw18965/.conda/envs/p4env/share/psi4/basis/aug-cc-pvtz-jkfit.gbs 

   => Loading Basis Set <=

    Name: AUG-CC-PV(T+D)Z
    Role: ORBITAL
    Keyword: BASIS
    atoms 1   entry O          line   347 file /work/zw18965/.conda/envs/p4env/share/psi4/basis/aug-cc-pv_tpd_z.gbs 
    atoms 2-3 entry H          line    56 file /work/zw18965/.conda/envs/p4env/share/psi4/basis/aug-cc-pv_tpd_z.gbs 

  Reading orbitals from file 180, no projection.

  ==> Pre-Iterations <==

   -------------------------------------------------------
    Irrep   Nso     Nmo     Nalpha   Nbeta   Ndocc  Nsocc
   -------------------------------------------------------
     A1        35      35       0       0       0       0
     A2        12      12       0       0       0       0
     B1        18      18       0       0       0       0
     B2        27      27       0       0       0       0
   -------------------------------------------------------
    Total      92      92       5       5       5       0
   -------------------------------------------------------

  ==> Integral Setup <==

  ==> DiskDFJK: Density-Fitted J/K Matrices <==

    J tasked:                  Yes
    K tasked:                  Yes
    wK tasked:                 Yes
    Omega:               3.000E-01
    OpenMP threads:             24
    Integrals threads:          24
    Memory [MiB]:           102553
    Algorithm:                Core
    Integral Cache:           NONE
    Schwarz Cutoff:          1E-12
    Fitting Condition:       1E-10

   => Auxiliary Basis Set <=

  Basis Set: (AUG-CC-PV(T+D)Z AUX)
    Blend: AUG-CC-PVTZ-JKFIT
    Number of shells: 58
    Number of basis function: 196
    Number of Cartesian functions: 241
    Spherical Harmonics?: true
    Max angular momentum: 4

  Cached 100.0% of DFT collocation blocks in 0.433 [GiB].

  Minimum eigenvalue in the overlap matrix is 3.8668682342E-04.
  Using Symmetric Orthogonalization.

  SCF Guess: Orbitals guess was supplied from a previous computation.

  ==> Iterations <==

                           Total Energy        Delta E     RMS |[F,P]|

   @DF-RKS iter   0:   -76.43027718492220   -7.64303e+01   1.62297e-04 
   @DF-RKS iter   1:   -76.43258865132422   -2.31147e-03   5.22127e-05 DIIS
   @DF-RKS iter   2:   -76.43258951232964   -8.61005e-07   4.99461e-05 DIIS
   @DF-RKS iter   3:   -76.43259129346262   -1.78113e-06   4.82609e-06 DIIS
   @DF-RKS iter   4:   -76.43259131535136   -2.18887e-08   1.13668e-06 DIIS
   @DF-RKS iter   5:   -76.43259131705473   -1.70337e-09   1.57645e-07 DIIS
   @DF-RKS iter   6:   -76.43259131710893   -5.42002e-11   1.48461e-08 DIIS
   @DF-RKS iter   7:   -76.43259131710983   -8.95284e-13   1.67793e-09 DIIS
  Energy and wave function converged.


  ==> Post-Iterations <==

    Orbital Energies [Eh]
    ---------------------

    Doubly Occupied:                                                      

       1A1   -19.340924     2A1    -1.143990     1B2    -0.642642  
       3A1    -0.503268     1B1    -0.428088  

    Virtual:                                                              

       4A1     0.008808     2B2     0.036143     5A1     0.109482  
       2B1     0.129565     6A1     0.142690     3B2     0.156998  
       4B2     0.190123     7A1     0.209586     1A2     0.229926  
       3B1     0.265582     8A1     0.274044     5B2     0.332230  
       9A1     0.379338     6B2     0.405664     7B2     0.534650  
      10A1     0.589908    11A1     0.643335     2A2     0.659350  
       4B1     0.666447    12A1     0.753819     5B1     0.777081  
      13A1     0.804167     6B1     0.837440     8B2     0.837772  
       3A2     0.855067     9B2     0.865085    14A1     0.885427  
      15A1     0.936670    10B2     0.949743     7B1     0.988604  
      11B2     1.038769    16A1     1.099023     4A2     1.101108  
      12B2     1.166016     5A2     1.395301    17A1     1.425053  
       8B1     1.460916    18A1     1.652855    13B2     1.680947  
      14B2     1.823899    19A1     1.947603     9B1     2.087550  
       6A2     2.141323    20A1     2.147023    21A1     2.222250  
      10B1     2.252351    15B2     2.261669    22A1     2.296793  
      16B2     2.495907    11B1     2.517905    23A1     2.568269  
      17B2     2.645354     7A2     2.693862    18B2     3.402037  
      24A1     3.497824    12B1     3.775022     8A2     3.798595  
      25A1     3.957242    19B2     4.025108    13B1     4.074918  
       9A2     4.149152    26A1     4.161440    14B1     4.166002  
      20B2     4.241148    27A1     4.409890    21B2     4.544518  
      10A2     4.880308    22B2     4.880452    23B2     4.974251  
      28A1     5.014487    15B1     5.211789    29A1     5.359004  
      30A1     5.821768    24B2     6.160037    16B1     6.353501  
      31A1     6.529652    17B1     6.763962    18B1     6.852393  
      32A1     6.917154    25B2     6.943359    11A2     6.946309  
      12A2     6.951260    33A1     7.142427    34A1     7.505115  
      26B2     7.511306    27B2     8.375746    35A1    15.148113  

    Final Occupation by Irrep:
             A1    A2    B1    B2 
    DOCC [     3,    0,    1,    1 ]

  @DF-RKS Final Energy:   -76.43259131710983

   => Energetics <=

    Nuclear Repulsion Energy =              9.1611201787382424
    One-Electron Energy =                -122.9280959396189417
    Two-Electron Energy =                  43.9441658291170327
    DFT Exchange-Correlation Energy =      -6.6523437401784431
    Empirical Dispersion Energy =           0.0000000000000000
    VV10 Nonlocal Energy =                  0.0425623548322828
    Total Energy =                        -76.4325913171098108

Computation Completed


Properties will be evaluated at   0.000000,   0.000000,   0.000000 [a0]

Properties computed using the SCF density matrix

  Nuclear Dipole Moment: [e a0]
     X:     0.0000      Y:     0.0000      Z:     0.9738

  Electronic Dipole Moment: [e a0]
     X:     0.0000      Y:     0.0000      Z:    -0.2459

  Dipole Moment: [e a0]
     X:     0.0000      Y:     0.0000      Z:     0.7279     Total:     0.7279

  Dipole Moment: [D]
     X:     0.0000      Y:     0.0000      Z:     1.8501     Total:     1.8501


*** tstop() called on bp1-compute00092.data.bp.acrc.priv at Tue Apr 27 17:31:18 2021
Module time:
	user time   =      50.70 seconds =       0.84 minutes
	system time =       2.09 seconds =       0.03 minutes
	total time  =          3 seconds =       0.05 minutes
Total time:
	user time   =     408.71 seconds =       6.81 minutes
	system time =      17.12 seconds =       0.29 minutes
	total time  =         19 seconds =       0.32 minutes

  //>>>>>>>>>>>>>>>>>>>>>>>>>>>>>>>>>>>//
  //    Loading displacement 2 of 5    //
  //<<<<<<<<<<<<<<<<<<<<<<<<<<<<<<<<<<<//

*** tstart() called on bp1-compute00092.data.bp.acrc.priv
*** at Tue Apr 27 17:31:18 2021

   => Loading Basis Set <=

    Name: AUG-CC-PV(T+D)Z
    Role: ORBITAL
    Keyword: BASIS
    atoms 1   entry O          line   347 file /work/zw18965/.conda/envs/p4env/share/psi4/basis/aug-cc-pv_tpd_z.gbs 
    atoms 2-3 entry H          line    56 file /work/zw18965/.conda/envs/p4env/share/psi4/basis/aug-cc-pv_tpd_z.gbs 


         ---------------------------------------------------------
                                   SCF
               by Justin Turney, Rob Parrish, Andy Simmonett
                          and Daniel G. A. Smith
                              RKS Reference
                       24 Threads, 137329 MiB Core
         ---------------------------------------------------------

  ==> Geometry <==

    Molecular point group: c2v
    Full point group: C2v

    Geometry (in Angstrom), charge = 0, multiplicity = 1:

       Center              X                  Y                   Z               Mass       
    ------------   -----------------  -----------------  -----------------  -----------------
         O            0.000000000000     0.000000000000    -0.065694606931    15.994914619570
         H           -0.000000000000     0.761936547394     0.521310542615     1.007825032230
         H            0.000000000000    -0.761936547394     0.521310542615     1.007825032230

  Running in c2v symmetry.

  Rotational constants: A =     27.33021  B =     14.40601  C =      9.43352 [cm^-1]
  Rotational constants: A = 819339.03029  B = 431881.35104  C = 282809.68936 [MHz]
  Nuclear repulsion =    9.150072135553705

  Charge       = 0
  Multiplicity = 1
  Electrons    = 10
  Nalpha       = 5
  Nbeta        = 5

  ==> Algorithm <==

  SCF Algorithm Type is DF.
  DIIS enabled.
  MOM disabled.
  Fractional occupation disabled.
  Guess Type is READ.
  Energy threshold   = 1.00e-08
  Density threshold  = 1.00e-08
  Integral threshold = 0.00e+00

  ==> Primary Basis <==

  Basis Set: AUG-CC-PV(T+D)Z
    Blend: AUG-CC-PV(T+D)Z
    Number of shells: 32
    Number of basis function: 92
    Number of Cartesian functions: 105
    Spherical Harmonics?: true
    Max angular momentum: 3

  ==> DFT Potential <==

   => Composite Functional: WB97M-V <= 

    wB97M-V Hyb-GGA Exchange-Correlation Functional

    N. Mardirossian and M. Head-Gordon, J. Chem. Phys. 144, 214110 (2016)

    Deriv               =              1
    GGA                 =           TRUE
    Meta                =           TRUE

    Exchange Hybrid     =           TRUE
    MP2 Hybrid          =          FALSE

   => Exchange-Correlation Functionals <=

    1.0000   wB97M-V exchange-correlation functional

   => Exact (HF) Exchange <=

    0.8500            HF,LR [omega = 0.3000]
    0.1500               HF 

   => VV10 Non-Local Parameters <=

    VV10 B              =     6.0000E+00
    VV10 C              =     1.0000E-02

   => Molecular Quadrature <=

    Radial Scheme          =       TREUTLER
    Pruning Scheme         =           FLAT
    Nuclear Scheme         =       TREUTLER

    BS radius alpha        =              1
    Pruning alpha          =              1
    Radial Points          =             75
    Spherical Points       =            302
    Total Points           =          67950
    Total Blocks           =            583
    Max Points             =            255
    Max Functions          =             92

   => Loading Basis Set <=

    Name: (AUG-CC-PV(T+D)Z AUX)
    Role: JKFIT
    Keyword: DF_BASIS_SCF
    atoms 1   entry O          line   286 file /work/zw18965/.conda/envs/p4env/share/psi4/basis/aug-cc-pvtz-jkfit.gbs 
    atoms 2-3 entry H          line    70 file /work/zw18965/.conda/envs/p4env/share/psi4/basis/aug-cc-pvtz-jkfit.gbs 

   => Loading Basis Set <=

    Name: AUG-CC-PV(T+D)Z
    Role: ORBITAL
    Keyword: BASIS
    atoms 1   entry O          line   347 file /work/zw18965/.conda/envs/p4env/share/psi4/basis/aug-cc-pv_tpd_z.gbs 
    atoms 2-3 entry H          line    56 file /work/zw18965/.conda/envs/p4env/share/psi4/basis/aug-cc-pv_tpd_z.gbs 

  Reading orbitals from file 180, no projection.

  ==> Pre-Iterations <==

   -------------------------------------------------------
    Irrep   Nso     Nmo     Nalpha   Nbeta   Ndocc  Nsocc
   -------------------------------------------------------
     A1        35      35       0       0       0       0
     A2        12      12       0       0       0       0
     B1        18      18       0       0       0       0
     B2        27      27       0       0       0       0
   -------------------------------------------------------
    Total      92      92       5       5       5       0
   -------------------------------------------------------

  ==> Integral Setup <==

  ==> DiskDFJK: Density-Fitted J/K Matrices <==

    J tasked:                  Yes
    K tasked:                  Yes
    wK tasked:                 Yes
    Omega:               3.000E-01
    OpenMP threads:             24
    Integrals threads:          24
    Memory [MiB]:           102553
    Algorithm:                Core
    Integral Cache:           NONE
    Schwarz Cutoff:          1E-12
    Fitting Condition:       1E-10

   => Auxiliary Basis Set <=

  Basis Set: (AUG-CC-PV(T+D)Z AUX)
    Blend: AUG-CC-PVTZ-JKFIT
    Number of shells: 58
    Number of basis function: 196
    Number of Cartesian functions: 241
    Spherical Harmonics?: true
    Max angular momentum: 4

  Cached 100.0% of DFT collocation blocks in 0.433 [GiB].

  Minimum eigenvalue in the overlap matrix is 3.8806709496E-04.
  Using Symmetric Orthogonalization.

  SCF Guess: Orbitals guess was supplied from a previous computation.

  ==> Iterations <==

                           Total Energy        Delta E     RMS |[F,P]|

   @DF-RKS iter   0:   -76.43180380360806   -7.64318e+01   9.72540e-05 
   @DF-RKS iter   1:   -76.43258734417769   -7.83541e-04   1.18255e-05 DIIS
   @DF-RKS iter   2:   -76.43258749267422   -1.48497e-07   3.70756e-06 DIIS
   @DF-RKS iter   3:   -76.43258750375375   -1.10795e-08   8.85529e-07 DIIS
   @DF-RKS iter   4:   -76.43258750494479   -1.19104e-09   7.60412e-07 DIIS
   @DF-RKS iter   5:   -76.43258750547757   -5.32779e-10   7.03708e-08 DIIS
   @DF-RKS iter   6:   -76.43258750550415   -2.65743e-11   1.04785e-08 DIIS
   @DF-RKS iter   7:   -76.43258750550470   -5.54223e-13   1.13860e-09 DIIS
  Energy and wave function converged.


  ==> Post-Iterations <==

    Orbital Energies [Eh]
    ---------------------

    Doubly Occupied:                                                      

       1A1   -19.341184     2A1    -1.143587     1B2    -0.641809  
       3A1    -0.503489     1B1    -0.428027  

    Virtual:                                                              

       4A1     0.008762     2B2     0.036139     5A1     0.109440  
       2B1     0.129644     6A1     0.142660     3B2     0.157014  
       4B2     0.189926     7A1     0.209559     1A2     0.229980  
       3B1     0.265329     8A1     0.273871     5B2     0.332212  
       9A1     0.379028     6B2     0.405267     7B2     0.534527  
      10A1     0.589997    11A1     0.643112     2A2     0.659481  
       4B1     0.666491    12A1     0.753528     5B1     0.777080  
      13A1     0.804429     6B1     0.837303     8B2     0.837457  
       3A2     0.855015     9B2     0.865088    14A1     0.884868  
      15A1     0.936297    10B2     0.949420     7B1     0.988306  
      11B2     1.038396    16A1     1.098894     4A2     1.101005  
      12B2     1.166423     5A2     1.394806    17A1     1.424008  
       8B1     1.459822    18A1     1.653653    13B2     1.681442  
      14B2     1.821930    19A1     1.946656     9B1     2.087556  
       6A2     2.140894    20A1     2.147492    21A1     2.222036  
      10B1     2.252339    15B2     2.261865    22A1     2.297101  
      16B2     2.496179    11B1     2.518019    23A1     2.567479  
      17B2     2.643309     7A2     2.693346    18B2     3.400654  
      24A1     3.494819    12B1     3.773366     8A2     3.798312  
      25A1     3.954395    19B2     4.024317    13B1     4.072450  
       9A2     4.148388    26A1     4.160141    14B1     4.165009  
      20B2     4.240571    27A1     4.409081    21B2     4.542322  
      10A2     4.876705    22B2     4.880737    23B2     4.969964  
      28A1     5.010159    15B1     5.208982    29A1     5.355163  
      30A1     5.821155    24B2     6.159497    16B1     6.353143  
      31A1     6.529331    17B1     6.763222    18B1     6.850532  
      32A1     6.918566    25B2     6.937329    11A2     6.944750  
      12A2     6.949883    33A1     7.138401    34A1     7.500743  
      26B2     7.508689    27B2     8.371027    35A1    15.110117  

    Final Occupation by Irrep:
             A1    A2    B1    B2 
    DOCC [     3,    0,    1,    1 ]

  @DF-RKS Final Energy:   -76.43258750550470

   => Energetics <=

    Nuclear Repulsion Energy =              9.1500721355537049
    One-Electron Energy =                -122.9081692606086449
    Two-Electron Energy =                  43.9343770898405097
    DFT Exchange-Correlation Energy =      -6.6514286287191808
    Empirical Dispersion Energy =           0.0000000000000000
    VV10 Nonlocal Energy =                  0.0425611584289173
    Total Energy =                        -76.4325875055046993

Computation Completed


Properties will be evaluated at   0.000000,   0.000000,   0.000000 [a0]

Properties computed using the SCF density matrix

  Nuclear Dipole Moment: [e a0]
     X:     0.0000      Y:     0.0000      Z:     0.9771

  Electronic Dipole Moment: [e a0]
     X:     0.0000      Y:     0.0000      Z:    -0.2479

[...]
      26B2     7.516378    27B2     8.382073    35A1    15.163098  

    Final Occupation by Irrep:
             A1    A2    B1    B2 
    DOCC [     3,    0,    1,    1 ]

  @DF-RKS Final Energy:   -76.43258897402269

   => Energetics <=

    Nuclear Repulsion Energy =              9.1674663031547716
    One-Electron Energy =                -122.9384030053820567
    Two-Electron Energy =                  43.9486267543781608
    DFT Exchange-Correlation Energy =      -6.6528421146483598
    Empirical Dispersion Energy =           0.0000000000000000
    VV10 Nonlocal Energy =                  0.0425630884747809
    Total Energy =                        -76.4325889740227211

Computation Completed


Properties will be evaluated at   0.000000,   0.000000,   0.000000 [a0]

Properties computed using the SCF density matrix

  Nuclear Dipole Moment: [e a0]
     X:     0.0000      Y:     0.0000      Z:     0.9778

  Electronic Dipole Moment: [e a0]
     X:     0.0000      Y:     0.0000      Z:    -0.2476

  Dipole Moment: [e a0]
     X:     0.0000      Y:     0.0000      Z:     0.7303     Total:     0.7303

  Dipole Moment: [D]
     X:     0.0000      Y:     0.0000      Z:     1.8561     Total:     1.8561


*** tstop() called on bp1-compute00092.data.bp.acrc.priv at Tue Apr 27 17:32:15 2021
Module time:
	user time   =      75.89 seconds =       1.26 minutes
	system time =       2.64 seconds =       0.04 minutes
	total time  =          3 seconds =       0.05 minutes
Total time:
	user time   =    1743.37 seconds =      29.06 minutes
	system time =      62.75 seconds =       1.05 minutes
	total time  =         76 seconds =       1.27 minutes

  //>>>>>>>>>>>>>>>>>>>>>>>>>>>>>>>>>>>//
  //    Loading displacement 8 of 8    //
  //<<<<<<<<<<<<<<<<<<<<<<<<<<<<<<<<<<<//

*** tstart() called on bp1-compute00092.data.bp.acrc.priv
*** at Tue Apr 27 17:32:15 2021

   => Loading Basis Set <=

    Name: AUG-CC-PV(T+D)Z
    Role: ORBITAL
    Keyword: BASIS
    atoms 1   entry O          line   347 file /work/zw18965/.conda/envs/p4env/share/psi4/basis/aug-cc-pv_tpd_z.gbs 
    atoms 2-3 entry H          line    56 file /work/zw18965/.conda/envs/p4env/share/psi4/basis/aug-cc-pv_tpd_z.gbs 


         ---------------------------------------------------------
                                   SCF
               by Justin Turney, Rob Parrish, Andy Simmonett
                          and Daniel G. A. Smith
                              RKS Reference
                       24 Threads, 137329 MiB Core
         ---------------------------------------------------------

  ==> Geometry <==

    Molecular point group: cs
    Full point group: Cs

    Geometry (in Angstrom), charge = 0, multiplicity = 1:

       Center              X                  Y                   Z               Mass       
    ------------   -----------------  -----------------  -----------------  -----------------
         O            0.000000000000    -0.000179201998    -0.065522301968    15.994914619570
         H            0.000000000000     0.762649589674     0.521036935842     1.007825032230
         H            0.000000000000    -0.759805523916     0.518849544587     1.007825032230

  Running in cs symmetry.

  Rotational constants: A =     27.47494  B =     14.43255  C =      9.46211 [cm^-1]
  Rotational constants: A = 823677.98897  B = 432676.98889  C = 283667.05140 [MHz]
  Nuclear repulsion =    9.164189239837059

  Charge       = 0
  Multiplicity = 1
  Electrons    = 10
  Nalpha       = 5
  Nbeta        = 5

  ==> Algorithm <==

  SCF Algorithm Type is DF.
  DIIS enabled.
  MOM disabled.
  Fractional occupation disabled.
  Guess Type is SAD.
  Energy threshold   = 1.00e-10
  Density threshold  = 1.00e-10
  Integral threshold = 0.00e+00

  ==> Primary Basis <==

  Basis Set: AUG-CC-PV(T+D)Z
    Blend: AUG-CC-PV(T+D)Z
    Number of shells: 32
    Number of basis function: 92
    Number of Cartesian functions: 105
    Spherical Harmonics?: true
    Max angular momentum: 3

  ==> DFT Potential <==

   => Composite Functional: WB97M-V <= 

    wB97M-V Hyb-GGA Exchange-Correlation Functional

    N. Mardirossian and M. Head-Gordon, J. Chem. Phys. 144, 214110 (2016)

    Deriv               =              1
    GGA                 =           TRUE
    Meta                =           TRUE

    Exchange Hybrid     =           TRUE
    MP2 Hybrid          =          FALSE

   => Exchange-Correlation Functionals <=

    1.0000   wB97M-V exchange-correlation functional

   => Exact (HF) Exchange <=

    0.8500            HF,LR [omega = 0.3000]
    0.1500               HF 

   => VV10 Non-Local Parameters <=

    VV10 B              =     6.0000E+00
    VV10 C              =     1.0000E-02

   => Molecular Quadrature <=

    Radial Scheme          =       TREUTLER
    Pruning Scheme         =           FLAT
    Nuclear Scheme         =       TREUTLER

    BS radius alpha        =              1
    Pruning alpha          =              1
    Radial Points          =             75
    Spherical Points       =            302
    Total Points           =          67950
    Total Blocks           =            574
    Max Points             =            256
    Max Functions          =             92

   => Loading Basis Set <=

    Name: (AUG-CC-PV(T+D)Z AUX)
    Role: JKFIT
    Keyword: DF_BASIS_SCF
    atoms 1   entry O          line   286 file /work/zw18965/.conda/envs/p4env/share/psi4/basis/aug-cc-pvtz-jkfit.gbs 
    atoms 2-3 entry H          line    70 file /work/zw18965/.conda/envs/p4env/share/psi4/basis/aug-cc-pvtz-jkfit.gbs 

  ==> Pre-Iterations <==

   -------------------------------------------------------
    Irrep   Nso     Nmo     Nalpha   Nbeta   Ndocc  Nsocc
   -------------------------------------------------------
     A'        62      62       0       0       0       0
     A"        30      30       0       0       0       0
   -------------------------------------------------------
    Total      92      92       5       5       5       0
   -------------------------------------------------------

  ==> Integral Setup <==

  ==> DiskDFJK: Density-Fitted J/K Matrices <==

    J tasked:                  Yes
    K tasked:                  Yes
    wK tasked:                 Yes
    Omega:               3.000E-01
    OpenMP threads:             24
    Integrals threads:          24
    Memory [MiB]:           102553
    Algorithm:                Core
    Integral Cache:           NONE
    Schwarz Cutoff:          1E-12
    Fitting Condition:       1E-10

   => Auxiliary Basis Set <=

  Basis Set: (AUG-CC-PV(T+D)Z AUX)
    Blend: AUG-CC-PVTZ-JKFIT
    Number of shells: 58
    Number of basis function: 196
    Number of Cartesian functions: 241
    Spherical Harmonics?: true
    Max angular momentum: 4

  Cached 100.0% of DFT collocation blocks in 0.433 [GiB].

  Minimum eigenvalue in the overlap matrix is 3.8644005099E-04.
  Using Symmetric Orthogonalization.

  SCF Guess: Superposition of Atomic Densities via on-the-fly atomic UHF.

  ==> Iterations <==

                           Total Energy        Delta E     RMS |[F,P]|

   @DF-RKS iter SAD:   -75.95161865194719   -7.59516e+01   0.00000e+00 
   @DF-RKS iter   1:   -76.29670822352593   -3.45090e-01   8.96792e-03 DIIS
   @DF-RKS iter   2:   -76.26691989726773    2.97883e-02   1.02823e-02 DIIS
   @DF-RKS iter   3:   -76.43239087150981   -1.65471e-01   2.37186e-04 DIIS
   @DF-RKS iter   4:   -76.43257048372178   -1.79612e-04   7.61490e-05 DIIS
   @DF-RKS iter   5:   -76.43258384736684   -1.33636e-05   1.26904e-05 DIIS
   @DF-RKS iter   6:   -76.43258441491675   -5.67550e-07   2.10292e-06 DIIS
   @DF-RKS iter   7:   -76.43258444093034   -2.60136e-08   3.90206e-07 DIIS
   @DF-RKS iter   8:   -76.43258444213055   -1.20021e-09   6.37968e-08 DIIS
   @DF-RKS iter   9:   -76.43258444217170   -4.11546e-11   8.96884e-09 DIIS
   @DF-RKS iter  10:   -76.43258444217223   -5.25802e-13   9.72727e-10 DIIS
   @DF-RKS iter  11:   -76.43258444217243   -1.98952e-13   2.27771e-10 DIIS
   @DF-RKS iter  12:   -76.43258444217231    1.13687e-13   2.78109e-11 DIIS
  Energy and wave function converged.


  ==> Post-Iterations <==

    Orbital Energies [Eh]
    ---------------------

    Doubly Occupied:                                                      

       1Ap   -19.340911     2Ap    -1.144186     3Ap    -0.642597  
       4Ap    -0.503471     1App   -0.428132  

    Virtual:                                                              

       5Ap     0.008810     6Ap     0.036154     7Ap     0.109472  
       2App    0.129566     8Ap     0.142729     9Ap     0.157029  
      10Ap     0.190120    11Ap     0.209615     3App    0.229965  
       4App    0.265503    12Ap     0.273999    13Ap     0.332262  
      14Ap     0.379407    15Ap     0.405745    16Ap     0.534614  
      17Ap     0.590073    18Ap     0.643263     5App    0.659424  
       6App    0.666451    19Ap     0.754010     7App    0.777138  
      20Ap     0.804146     8App    0.837337    21Ap     0.837862  
       9App    0.855151    22Ap     0.865185    23Ap     0.885277  
      24Ap     0.936698    25Ap     0.949828    10App    0.988606  
      26Ap     1.038785    27Ap     1.099278    11App    1.101287  
      28Ap     1.165944    12App    1.395334    29Ap     1.424388  
      13App    1.460857    30Ap     1.652822    31Ap     1.681955  
      32Ap     1.823942    33Ap     1.948085    14App    2.087691  
      15App    2.141380    34Ap     2.147051    35Ap     2.222436  
      16App    2.252554    36Ap     2.261702    37Ap     2.296962  
      38Ap     2.495528    17App    2.517709    39Ap     2.568797  
      40Ap     2.644616    18App    2.694063    41Ap     3.402809  
      42Ap     3.497674    19App    3.775347    20App    3.799169  
      43Ap     3.956311    44Ap     4.026086    21App    4.073993  
      22App    4.149256    45Ap     4.160688    23App    4.166439  
      46Ap     4.241862    47Ap     4.410734    48Ap     4.545871  
      24App    4.880762    49Ap     4.881865    50Ap     4.973911  
      51Ap     5.015887    25App    5.213178    52Ap     5.358459  
      53Ap     5.823101    54Ap     6.159596    26App    6.353636  
      55Ap     6.531331    27App    6.764045    28App    6.852611  
      56Ap     6.917965    57Ap     6.942603    29App    6.946878  
      30App    6.951817    58Ap     7.143206    59Ap     7.503527  
      60Ap     7.514021    61Ap     8.377985    62Ap    15.156910  

    Final Occupation by Irrep:
             Ap   App 
    DOCC [     4,    1 ]

  @DF-RKS Final Energy:   -76.43258444217231

   => Energetics <=

    Nuclear Repulsion Energy =              9.1641892398370590
    One-Electron Energy =                -122.9333035188826102
    Two-Electron Energy =                  43.9465580091113281
    DFT Exchange-Correlation Energy =      -6.6525908774227211
    Empirical Dispersion Energy =           0.0000000000000000
    VV10 Nonlocal Energy =                  0.0425627051846323
    Total Energy =                        -76.4325844421723133

Computation Completed


Properties will be evaluated at   0.000000,   0.000000,   0.000000 [a0]

Properties computed using the SCF density matrix

  Nuclear Dipole Moment: [e a0]
     X:     0.0000      Y:     0.0027      Z:     0.9745

  Electronic Dipole Moment: [e a0]
     X:     0.0000      Y:    -0.0014      Z:    -0.2461

  Dipole Moment: [e a0]
     X:     0.0000      Y:     0.0013      Z:     0.7284     Total:     0.7284

  Dipole Moment: [D]
     X:     0.0000      Y:     0.0033      Z:     1.8514     Total:     1.8514


*** tstop() called on bp1-compute00092.data.bp.acrc.priv at Tue Apr 27 17:32:18 2021
Module time:
	user time   =      75.21 seconds =       1.25 minutes
	system time =       2.67 seconds =       0.04 minutes
	total time  =          3 seconds =       0.05 minutes
Total time:
	user time   =    1818.73 seconds =      30.31 minutes
	system time =      65.43 seconds =       1.09 minutes
	total time  =         79 seconds =       1.32 minutes

         ----------------------------------------------------------
                                   FINDIF
                     R. A. King and Jonathon Misiewicz
         ---------------------------------------------------------

  Computing second-derivative from energies using projected, 
  symmetry-adapted, cartesian coordinates.

  8 energies passed in, including the reference geometry.
    Using 3-point formula.
    Energy without displacement:  -76.4325917596
    Check energies below for precision!
    0: -1        :       -76.4325885776
    0: 1         :       -76.4325885842
    1: -1        :       -76.4325867625
    1: 1         :       -76.4325867188
    0: 1, 1: 1   :       -76.4325889166
    0: -1, 1: -1 :       -76.4325889740
    2: -1        :       -76.4325844422

-------------------------------------------------------------


  ==> Harmonic Vibrational Analysis <==

  non-mass-weighted Hessian:       Symmetric? True   Hermitian? True   Lin Dep Dim?  6 (0)
  projection of translations (True) and rotations (True) removed 6 degrees of freedom (6)
  total projector:                 Symmetric? True   Hermitian? True   Lin Dep Dim?  6 (6)
  mass-weighted Hessian:           Symmetric? True   Hermitian? True   Lin Dep Dim?  6 (0)
  pre-proj  low-frequency mode:    0.0000i [cm^-1]
  pre-proj  low-frequency mode:    0.0000i [cm^-1]
  pre-proj  low-frequency mode:    0.0000i [cm^-1]
  pre-proj  low-frequency mode:    0.0000  [cm^-1]
  pre-proj  low-frequency mode:    0.0000  [cm^-1]
  pre-proj  low-frequency mode:    0.0000  [cm^-1]
  pre-proj  all modes:['0.0001i' '0.0000i' '0.0000i' '0.0000' '0.0000' '0.0000' '1628.2966'
 '3831.1899' '3933.0336']
  projected mass-weighted Hessian: Symmetric? True   Hermitian? True   Lin Dep Dim?  6 (6)
  post-proj low-frequency mode:    0.0000i [cm^-1] (TR)
  post-proj low-frequency mode:    0.0000i [cm^-1] (TR)
  post-proj low-frequency mode:    0.0000i [cm^-1] (TR)
  post-proj low-frequency mode:    0.0000  [cm^-1] (TR)
  post-proj low-frequency mode:    0.0001  [cm^-1] (TR)
  post-proj low-frequency mode:    0.0001  [cm^-1] (TR)
  post-proj  all modes:['0.0000i' '0.0000i' '0.0000i' '0.0000' '0.0001' '0.0001' '1628.2966'
 '3831.1899' '3933.0336']

  Vibration                       7                   8                   9           
  Freq [cm^-1]                1628.2966           3831.1899           3933.0336       
  Irrep                           A1                  A1                  B2          
  Reduced mass [u]              1.0830              1.0449              1.0822        
  Force const [mDyne/A]         1.6917              9.0362              9.8633        
  Turning point v=0 [a0]        0.2613              0.1734              0.1682        
  RMS dev v=0 [a0 u^1/2]        0.1923              0.1254              0.1237        
  Char temp [K]               2342.7563           5512.2292           5658.7597       
  ----------------------------------------------------------------------------------
      1   O               -0.00  0.00 -0.07    0.00  0.00 -0.05    0.00 -0.07 -0.00   
      2   H                0.00 -0.43  0.56   -0.00  0.59  0.39   -0.00  0.56  0.43   
      3   H                0.00  0.43  0.56    0.00 -0.59  0.39    0.00  0.56 -0.43   

  ==> Thermochemistry Components <==

  Entropy, S
    Electronic S            0.000 [cal/(mol K)]        0.000 [J/(mol K)]       0.00000000 [mEh/K] (multiplicity = 1)
    Translational S        34.608 [cal/(mol K)]      144.801 [J/(mol K)]       0.05515177 [mEh/K] (mol. weight = 18.0106 [u], P = 101325.00 [Pa])
    Rotational S           10.462 [cal/(mol K)]       43.775 [J/(mol K)]       0.01667293 [mEh/K] (symmetry no. = 2)
    Vibrational S           0.007 [cal/(mol K)]        0.028 [J/(mol K)]       0.00001085 [mEh/K]
  Total S                  45.077 [cal/(mol K)]      188.604 [J/(mol K)]       0.07183555 [mEh/K]
  Correction S              0.000 [cal/(mol K)]        0.000 [J/(mol K)]       0.00000000 [mEh/K]

  Constant volume heat capacity, Cv
    Electronic Cv           0.000 [cal/(mol K)]        0.000 [J/(mol K)]       0.00000000 [mEh/K]
    Translational Cv        2.981 [cal/(mol K)]       12.472 [J/(mol K)]       0.00475022 [mEh/K]
    Rotational Cv           2.981 [cal/(mol K)]       12.472 [J/(mol K)]       0.00475022 [mEh/K]
    Vibrational Cv          0.048 [cal/(mol K)]        0.199 [J/(mol K)]       0.00007570 [mEh/K]
  Total Cv                  6.009 [cal/(mol K)]       25.142 [J/(mol K)]       0.00957613 [mEh/K]
  Correction Cv             0.000 [cal/(mol K)]        0.000 [J/(mol K)]       0.00000000 [mEh/K]

  Constant pressure heat capacity, Cp
    Electronic Cp           0.000 [cal/(mol K)]        0.000 [J/(mol K)]       0.00000000 [mEh/K]
    Translational Cp        4.968 [cal/(mol K)]       20.786 [J/(mol K)]       0.00791703 [mEh/K]
    Rotational Cp           2.981 [cal/(mol K)]       12.472 [J/(mol K)]       0.00475022 [mEh/K]
    Vibrational Cp          0.048 [cal/(mol K)]        0.199 [J/(mol K)]       0.00007570 [mEh/K]
  Total Cp                  7.996 [cal/(mol K)]       33.457 [J/(mol K)]       0.01274294 [mEh/K]
  Correction Cp             0.000 [cal/(mol K)]        0.000 [J/(mol K)]       0.00000000 [mEh/K]

  ==> Thermochemistry Energy Analysis <==

  Raw electronic energy, E0
  Total E0, Electronic energy at well bottom at 0 [K]                  -76.43259176 [Eh]

  Zero-point energy, ZPE_vib = Sum_i nu_i / 2
    Electronic ZPE          0.000 [kcal/mol]        0.000 [kJ/mol]       0.00000000 [Eh]
    Translational ZPE       0.000 [kcal/mol]        0.000 [kJ/mol]       0.00000000 [Eh]
    Rotational ZPE          0.000 [kcal/mol]        0.000 [kJ/mol]       0.00000000 [Eh]
    Vibrational ZPE        13.427 [kcal/mol]       56.180 [kJ/mol]       0.02139774 [Eh]        4696.260 [cm^-1]
  Correction ZPE           13.427 [kcal/mol]       56.180 [kJ/mol]       0.02139774 [Eh]        4696.260 [cm^-1]
  Total ZPE, Electronic energy at 0 [K]                                -76.41119402 [Eh]

  Thermal Energy, E (includes ZPE)
    Electronic E            0.000 [kcal/mol]        0.000 [kJ/mol]       0.00000000 [Eh]
    Translational E         0.889 [kcal/mol]        3.718 [kJ/mol]       0.00141628 [Eh]
    Rotational E            0.889 [kcal/mol]        3.718 [kJ/mol]       0.00141628 [Eh]
    Vibrational E          13.429 [kcal/mol]       56.187 [kJ/mol]       0.02140061 [Eh]
  Correction E             15.207 [kcal/mol]       63.624 [kJ/mol]       0.02423316 [Eh]
  Total E, Electronic energy at  298.15 [K]                            -76.40835860 [Eh]

  Enthalpy, H_trans = E_trans + k_B * T
    Electronic H            0.000 [kcal/mol]        0.000 [kJ/mol]       0.00000000 [Eh]
    Translational H         1.481 [kcal/mol]        6.197 [kJ/mol]       0.00236046 [Eh]
    Rotational H            0.889 [kcal/mol]        3.718 [kJ/mol]       0.00141628 [Eh]
    Vibrational H          13.429 [kcal/mol]       56.187 [kJ/mol]       0.02140061 [Eh]
  Correction H             15.799 [kcal/mol]       66.103 [kJ/mol]       0.02517734 [Eh]
  Total H, Enthalpy at  298.15 [K]                                     -76.40741442 [Eh]

  Gibbs free energy, G = H - T * S
    Electronic G            0.000 [kcal/mol]        0.000 [kJ/mol]       0.00000000 [Eh]
    Translational G        -8.837 [kcal/mol]      -36.975 [kJ/mol]      -0.01408304 [Eh]
    Rotational G           -2.231 [kcal/mol]       -9.333 [kJ/mol]      -0.00355476 [Eh]
    Vibrational G          13.427 [kcal/mol]       56.179 [kJ/mol]       0.02139737 [Eh]
  Correction G              2.359 [kcal/mol]        9.871 [kJ/mol]       0.00375957 [Eh]
  Total G, Free enthalpy at  298.15 [K]                                -76.42883219 [Eh]

    Psi4 stopped on: Tuesday, 27 April 2021 05:32PM
    Psi4 wall time for execution: 0:01:19.41

*** Psi4 exiting successfully. Buy a developer a beer!
