
    -----------------------------------------------------------------------
          Psi4: An Open-Source Ab Initio Electronic Structure Package
                               Psi4 1.3.2 release

                         Git: Rev {HEAD} ecbda83 


    R. M. Parrish, L. A. Burns, D. G. A. Smith, A. C. Simmonett,
    A. E. DePrince III, E. G. Hohenstein, U. Bozkaya, A. Yu. Sokolov,
    R. Di Remigio, R. M. Richard, J. F. Gonthier, A. M. James,
    H. R. McAlexander, A. Kumar, M. Saitow, X. Wang, B. P. Pritchard,
    P. Verma, H. F. Schaefer III, K. Patkowski, R. A. King, E. F. Valeev,
    F. A. Evangelista, J. M. Turney, T. D. Crawford, and C. D. Sherrill,
    J. Chem. Theory Comput. 13(7) pp 3185--3197 (2017).
    (doi: 10.1021/acs.jctc.7b00174)


                         Additional Contributions by
    P. Kraus, H. Kruse, M. H. Lechner, M. C. Schieber, R. A. Shaw,
    A. Alenaizan, R. Galvelis, Z. L. Glick, S. Lehtola, and J. P. Misiewicz

    -----------------------------------------------------------------------


    Psi4 started on: Tuesday, 27 April 2021 05:31PM

    Process ID: 171426
    Host:       bp1-compute00139.data.bp.acrc.priv
    PSIDATADIR: /work/zw18965/.conda/envs/p4env/share/psi4
    Memory:     500.0 MiB
    Threads:    24
    
  ==> Input File <==

--------------------------------------------------------------------------
memory 144 GB

molecule {
0 1
N 0.0000000000 0.0000000000 0.0000000000
H 0.0000000000 0.0000000000 1.0535284100
O 1.1513717966 0.0000000000 -0.3743228181
}

set dynamic_level 1
set basis aug-cc-pV(T+d)Z
 
optimize("wB97M-V")
frequencies("wB97M-V")
--------------------------------------------------------------------------

  Memory set to 134.110 GiB by Python driver.
gradient() will perform gradient computation by finite difference of analytic energies.

         ----------------------------------------------------------
                                   FINDIF
                     R. A. King and Jonathon Misiewicz
         ---------------------------------------------------------

  Using finite-differences of energies to determine gradients.
    Generating geometries for use with 3-point formula.
    Displacement size will be 5.00e-03.
    Number of atoms is 3.
    Number of symmetric SALCs is 3.
    Translations projected? 1. Rotations projected? 1.
    Number of geometries (including reference) is 7.

  //>>>>>>>>>>>>>>>>>>>>>>>>>>>>>>>>>>>//
  //    Loading displacement 1 of 7    //
  //<<<<<<<<<<<<<<<<<<<<<<<<<<<<<<<<<<<//

*** tstart() called on bp1-compute00139.data.bp.acrc.priv
*** at Tue Apr 27 17:31:18 2021

   => Loading Basis Set <=

    Name: AUG-CC-PV(T+D)Z
    Role: ORBITAL
    Keyword: BASIS
    atoms 1 entry N          line   301 file /work/zw18965/.conda/envs/p4env/share/psi4/basis/aug-cc-pv_tpd_z.gbs 
    atoms 2 entry H          line    56 file /work/zw18965/.conda/envs/p4env/share/psi4/basis/aug-cc-pv_tpd_z.gbs 
    atoms 3 entry O          line   347 file /work/zw18965/.conda/envs/p4env/share/psi4/basis/aug-cc-pv_tpd_z.gbs 


         ---------------------------------------------------------
                                   SCF
               by Justin Turney, Rob Parrish, Andy Simmonett
                          and Daniel G. A. Smith
                              RKS Reference
                       24 Threads, 137329 MiB Core
         ---------------------------------------------------------

  ==> Geometry <==

    Molecular point group: cs
    Full point group: Cs

    Geometry (in Angstrom), charge = 0, multiplicity = 1:

       Center              X                  Y                   Z               Mass       
    ------------   -----------------  -----------------  -----------------  -----------------
         N            0.593956145973     0.158856957167     0.000000000000    14.003074004430
         H            0.593956145973     1.212385367167     0.000000000000     1.007825032230
         O           -0.557415650627    -0.215465860933     0.000000000000    15.994914619570

  Running in cs symmetry.

  Rotational constants: A =     18.79965  B =      1.41115  C =      1.31262 [cm^-1]
  Rotational constants: A = 563599.28425  B =  42305.12378  C =  39351.31873 [MHz]
  Nuclear repulsion =   30.300887510772334

  Charge       = 0
  Multiplicity = 1
  Electrons    = 16
  Nalpha       = 8
  Nbeta        = 8

  ==> Algorithm <==

  SCF Algorithm Type is DF.
  DIIS enabled.
  MOM disabled.
  Fractional occupation disabled.
  Guess Type is SAD.
  Energy threshold   = 1.00e-08
  Density threshold  = 1.00e-08
  Integral threshold = 0.00e+00

  ==> Primary Basis <==

  Basis Set: AUG-CC-PV(T+D)Z
    Blend: AUG-CC-PV(T+D)Z
    Number of shells: 37
    Number of basis function: 115
    Number of Cartesian functions: 135
    Spherical Harmonics?: true
    Max angular momentum: 3

  ==> DFT Potential <==

   => Composite Functional: WB97M-V <= 

    wB97M-V Hyb-GGA Exchange-Correlation Functional

    N. Mardirossian and M. Head-Gordon, J. Chem. Phys. 144, 214110 (2016)

    Deriv               =              1
    GGA                 =           TRUE
    Meta                =           TRUE

    Exchange Hybrid     =           TRUE
    MP2 Hybrid          =          FALSE

   => Exchange-Correlation Functionals <=

    1.0000   wB97M-V exchange-correlation functional

   => Exact (HF) Exchange <=

    0.8500            HF,LR [omega = 0.3000]
    0.1500               HF 

   => VV10 Non-Local Parameters <=

    VV10 B              =     6.0000E+00
    VV10 C              =     1.0000E-02

   => Molecular Quadrature <=

    Radial Scheme          =       TREUTLER
    Pruning Scheme         =           FLAT
    Nuclear Scheme         =       TREUTLER

    BS radius alpha        =              1
    Pruning alpha          =              1
    Radial Points          =             75
    Spherical Points       =            302
    Total Points           =          67950
    Total Blocks           =            573
    Max Points             =            256
    Max Functions          =            115

   => Loading Basis Set <=

    Name: (AUG-CC-PV(T+D)Z AUX)
    Role: JKFIT
    Keyword: DF_BASIS_SCF
    atoms 1 entry N          line   224 file /work/zw18965/.conda/envs/p4env/share/psi4/basis/aug-cc-pvtz-jkfit.gbs 
    atoms 2 entry H          line    70 file /work/zw18965/.conda/envs/p4env/share/psi4/basis/aug-cc-pvtz-jkfit.gbs 
    atoms 3 entry O          line   286 file /work/zw18965/.conda/envs/p4env/share/psi4/basis/aug-cc-pvtz-jkfit.gbs 

  ==> Pre-Iterations <==

   -------------------------------------------------------
    Irrep   Nso     Nmo     Nalpha   Nbeta   Ndocc  Nsocc
   -------------------------------------------------------
     A'        76      76       0       0       0       0
     A"        39      39       0       0       0       0
   -------------------------------------------------------
    Total     115     115       8       8       8       0
   -------------------------------------------------------

  ==> Integral Setup <==

  ==> DiskDFJK: Density-Fitted J/K Matrices <==

    J tasked:                  Yes
    K tasked:                  Yes
    wK tasked:                 Yes
    Omega:               3.000E-01
    OpenMP threads:             24
    Integrals threads:          24
    Memory [MiB]:           102455
    Algorithm:                Core
    Integral Cache:           NONE
    Schwarz Cutoff:          1E-12
    Fitting Condition:       1E-10

   => Auxiliary Basis Set <=

  Basis Set: (AUG-CC-PV(T+D)Z AUX)
    Blend: AUG-CC-PVTZ-JKFIT
    Number of shells: 74
    Number of basis function: 254
    Number of Cartesian functions: 317
    Spherical Harmonics?: true
    Max angular momentum: 4

  Cached 100.0% of DFT collocation blocks in 0.529 [GiB].

  Minimum eigenvalue in the overlap matrix is 2.3361511778E-04.
  Using Symmetric Orthogonalization.

  SCF Guess: Superposition of Atomic Densities via on-the-fly atomic UHF.

  ==> Iterations <==

                           Total Energy        Delta E     RMS |[F,P]|

   @DF-RKS iter SAD:  -129.91721958741897   -1.29917e+02   0.00000e+00 
   @DF-RKS iter   1:  -130.45013453720156   -5.32915e-01   3.54179e-03 DIIS
   @DF-RKS iter   2:  -130.46816741640370   -1.80329e-02   3.03577e-03 DIIS
   @DF-RKS iter   3:  -130.48747103096090   -1.93036e-02   9.46514e-04 DIIS
   @DF-RKS iter   4:  -130.48957724912438   -2.10622e-03   2.14541e-04 DIIS
   @DF-RKS iter   5:  -130.48972442473880   -1.47176e-04   4.67539e-05 DIIS
   @DF-RKS iter   6:  -130.48973495966376   -1.05349e-05   6.43650e-06 DIIS
   @DF-RKS iter   7:  -130.48973555943263   -5.99769e-07   1.30577e-06 DIIS
   @DF-RKS iter   8:  -130.48973558484261   -2.54100e-08   2.39517e-07 DIIS
   @DF-RKS iter   9:  -130.48973558586786   -1.02526e-09   6.26197e-08 DIIS
   @DF-RKS iter  10:  -130.48973558593289   -6.50289e-11   1.34008e-08 DIIS
   @DF-RKS iter  11:  -130.48973558593653   -3.63798e-12   3.30321e-09 DIIS
  Energy and wave function converged.


  ==> Post-Iterations <==

    Orbital Energies [Eh]
    ---------------------

    Doubly Occupied:                                                      

       1Ap   -19.425127     2Ap   -14.639788     3Ap    -1.307591  
       4Ap    -0.855501     5Ap    -0.650325     1App   -0.571933  
       6Ap    -0.569743     7Ap    -0.358497  

    Virtual:                                                              

       2App   -0.016629     8Ap     0.012322     9Ap     0.067040  
      10Ap     0.090783     3App    0.094038    11Ap     0.130248  
      12Ap     0.147338    13Ap     0.167178     4App    0.170230  
      14Ap     0.208502     5App    0.225357    15Ap     0.263943  
      16Ap     0.305293    17Ap     0.347746    18Ap     0.417371  
      19Ap     0.444636     6App    0.471799     7App    0.501757  
      20Ap     0.531309    21Ap     0.556243    22Ap     0.617609  
       8App    0.638235    23Ap     0.652551     9App    0.676647  
      24Ap     0.699778    25Ap     0.743285    10App    0.751776  
      26Ap     0.764977    27Ap     0.857599    11App    0.867047  
      28Ap     0.907510    29Ap     0.927344    12App    0.958931  
      30Ap     0.964861    13App    1.066487    31Ap     1.081220  
      14App    1.187200    32Ap     1.227388    33Ap     1.261898  
      34Ap     1.349013    15App    1.444255    35Ap     1.468335  
      16App    1.521309    36Ap     1.541970    37Ap     1.598246  
      17App    1.631437    38Ap     1.766504    18App    1.776545  
      39Ap     1.824525    40Ap     1.893235    19App    1.944033  
      41Ap     1.958554    42Ap     1.991469    43Ap     2.023437  
      20App    2.071693    21App    2.156901    44Ap     2.175076  
      45Ap     2.313853    22App    2.332319    46Ap     2.369102  
      47Ap     2.484466    23App    2.513891    24App    2.634501  
      48Ap     2.658374    49Ap     2.857137    50Ap     3.061170  
      51Ap     3.199234    25App    3.459230    52Ap     3.755525  
      53Ap     3.788386    26App    3.791622    27App    3.828611  
      54Ap     3.899377    55Ap     4.033304    28App    4.179277  
      56Ap     4.223897    57Ap     4.383669    29App    4.437412  
      58Ap     4.577553    59Ap     4.630451    30App    4.721406  
      31App    4.777515    60Ap     4.796339    61Ap     4.908633  
      32App    4.924381    62Ap     5.058273    63Ap     5.201712  
      33App    5.306617    64Ap     5.395750    34App    5.511455  
      65Ap     5.549238    66Ap     5.914833    67Ap     6.156150  
      35App    6.159835    36App    6.412241    68Ap     6.428507  
      69Ap     6.546022    37App    6.688929    70Ap     6.724142  
      38App    6.869865    39App    7.066731    71Ap     7.077154  
      72Ap     7.208108    73Ap     7.327981    74Ap     7.565984  
      75Ap    14.002653    76Ap    14.519470  

    Final Occupation by Irrep:
             Ap   App 
    DOCC [     7,    1 ]

  @DF-RKS Final Energy:  -130.48973558593653

   => Energetics <=

    Nuclear Repulsion Energy =             30.3008875107723341
    One-Electron Energy =                -237.7098465777667968
    Two-Electron Energy =                  88.2092312890253112
    DFT Exchange-Correlation Energy =     -11.3569500550978564
    Empirical Dispersion Energy =           0.0000000000000000
    VV10 Nonlocal Energy =                  0.0669422471304780
    Total Energy =                       -130.4897355859365575

Computation Completed


Properties will be evaluated at   0.000000,   0.000000,   0.000000 [a0]

Properties computed using the SCF density matrix

  Nuclear Dipole Moment: [e a0]
     X:     0.5524      Y:     1.1351      Z:     0.0000

  Electronic Dipole Moment: [e a0]
     X:    -0.3685      Y:    -0.4797      Z:     0.0000

  Dipole Moment: [e a0]
     X:     0.1839      Y:     0.6554      Z:     0.0000     Total:     0.6807

  Dipole Moment: [D]
     X:     0.4674      Y:     1.6658      Z:     0.0000     Total:     1.7301


*** tstop() called on bp1-compute00139.data.bp.acrc.priv at Tue Apr 27 17:31:22 2021
Module time:
	user time   =      87.39 seconds =       1.46 minutes
	system time =       6.35 seconds =       0.11 minutes
	total time  =          4 seconds =       0.07 minutes
Total time:
	user time   =      87.39 seconds =       1.46 minutes
	system time =       6.35 seconds =       0.11 minutes
	total time  =          4 seconds =       0.07 minutes

  //>>>>>>>>>>>>>>>>>>>>>>>>>>>>>>>>>>>//
  //    Loading displacement 2 of 7    //
  //<<<<<<<<<<<<<<<<<<<<<<<<<<<<<<<<<<<//

*** tstart() called on bp1-compute00139.data.bp.acrc.priv
*** at Tue Apr 27 17:31:22 2021

   => Loading Basis Set <=

    Name: AUG-CC-PV(T+D)Z
    Role: ORBITAL
    Keyword: BASIS
    atoms 1 entry N          line   301 file /work/zw18965/.conda/envs/p4env/share/psi4/basis/aug-cc-pv_tpd_z.gbs 
    atoms 2 entry H          line    56 file /work/zw18965/.conda/envs/p4env/share/psi4/basis/aug-cc-pv_tpd_z.gbs 
    atoms 3 entry O          line   347 file /work/zw18965/.conda/envs/p4env/share/psi4/basis/aug-cc-pv_tpd_z.gbs 


         ---------------------------------------------------------
                                   SCF
               by Justin Turney, Rob Parrish, Andy Simmonett
                          and Daniel G. A. Smith
                              RKS Reference
                       24 Threads, 137329 MiB Core
         ---------------------------------------------------------

  ==> Geometry <==

    Molecular point group: cs
    Full point group: Cs

    Geometry (in Angstrom), charge = 0, multiplicity = 1:

       Center              X                  Y                   Z               Mass       
    ------------   -----------------  -----------------  -----------------  -----------------
         N            0.593445853998     0.158756165124     0.000000000000    14.003074004430
         H            0.594604349552     1.212284575124     0.000000000000     1.007825032230
         O           -0.557009747836    -0.215371269670     0.000000000000    15.994914619570

  Running in cs symmetry.

  Rotational constants: A =     18.81882  B =      1.41297  C =      1.31429 [cm^-1]
  Rotational constants: A = 564174.14970  B =  42359.64686  C =  39401.29616 [MHz]
  Nuclear repulsion =   30.319736449052463

  Charge       = 0
  Multiplicity = 1
  Electrons    = 16
  Nalpha       = 8
  Nbeta        = 8

  ==> Algorithm <==

  SCF Algorithm Type is DF.
  DIIS enabled.
  MOM disabled.
  Fractional occupation disabled.
  Guess Type is SAD.
  Energy threshold   = 1.00e-08
  Density threshold  = 1.00e-08
  Integral threshold = 0.00e+00

  ==> Primary Basis <==

  Basis Set: AUG-CC-PV(T+D)Z
    Blend: AUG-CC-PV(T+D)Z
    Number of shells: 37
    Number of basis function: 115
    Number of Cartesian functions: 135
    Spherical Harmonics?: true
    Max angular momentum: 3

  ==> DFT Potential <==

   => Composite Functional: WB97M-V <= 

    wB97M-V Hyb-GGA Exchange-Correlation Functional

    N. Mardirossian and M. Head-Gordon, J. Chem. Phys. 144, 214110 (2016)

    Deriv               =              1
    GGA                 =           TRUE
    Meta                =           TRUE

    Exchange Hybrid     =           TRUE
    MP2 Hybrid          =          FALSE

   => Exchange-Correlation Functionals <=

    1.0000   wB97M-V exchange-correlation functional

   => Exact (HF) Exchange <=

    0.8500            HF,LR [omega = 0.3000]
    0.1500               HF 

   => VV10 Non-Local Parameters <=

    VV10 B              =     6.0000E+00
    VV10 C              =     1.0000E-02

   => Molecular Quadrature <=

    Radial Scheme          =       TREUTLER
    Pruning Scheme         =           FLAT
    Nuclear Scheme         =       TREUTLER

    BS radius alpha        =              1
    Pruning alpha          =              1
    Radial Points          =             75
    Spherical Points       =            302
    Total Points           =          67950
    Total Blocks           =            571
    Max Points             =            255
    Max Functions          =            115

   => Loading Basis Set <=

    Name: (AUG-CC-PV(T+D)Z AUX)
    Role: JKFIT
    Keyword: DF_BASIS_SCF
    atoms 1 entry N          line   224 file /work/zw18965/.conda/envs/p4env/share/psi4/basis/aug-cc-pvtz-jkfit.gbs 
    atoms 2 entry H          line    70 file /work/zw18965/.conda/envs/p4env/share/psi4/basis/aug-cc-pvtz-jkfit.gbs 
    atoms 3 entry O          line   286 file /work/zw18965/.conda/envs/p4env/share/psi4/basis/aug-cc-pvtz-jkfit.gbs 

  ==> Pre-Iterations <==

   -------------------------------------------------------
    Irrep   Nso     Nmo     Nalpha   Nbeta   Ndocc  Nsocc
   -------------------------------------------------------
     A'        76      76       0       0       0       0
     A"        39      39       0       0       0       0
   -------------------------------------------------------
    Total     115     115       8       8       8       0
   -------------------------------------------------------

  ==> Integral Setup <==

  ==> DiskDFJK: Density-Fitted J/K Matrices <==

    J tasked:                  Yes
    K tasked:                  Yes
    wK tasked:                 Yes
    Omega:               3.000E-01
    OpenMP threads:             24
    Integrals threads:          24
    Memory [MiB]:           102455
    Algorithm:                Core
    Integral Cache:           NONE
    Schwarz Cutoff:          1E-12
    Fitting Condition:       1E-10

   => Auxiliary Basis Set <=

  Basis Set: (AUG-CC-PV(T+D)Z AUX)
    Blend: AUG-CC-PVTZ-JKFIT
    Number of shells: 74
    Number of basis function: 254
    Number of Cartesian functions: 317
    Spherical Harmonics?: true
    Max angular momentum: 4

  Cached 100.0% of DFT collocation blocks in 0.529 [GiB].

  Minimum eigenvalue in the overlap matrix is 2.3330886836E-04.
  Using Symmetric Orthogonalization.

  SCF Guess: Superposition of Atomic Densities via on-the-fly atomic UHF.

  ==> Iterations <==

                           Total Energy        Delta E     RMS |[F,P]|

   @DF-RKS iter SAD:  -129.91920834128325   -1.29919e+02   0.00000e+00 
   @DF-RKS iter   1:  -130.45013218660841   -5.30924e-01   3.54379e-03 DIIS
   @DF-RKS iter   2:  -130.46823700401717   -1.81048e-02   3.03367e-03 DIIS
   @DF-RKS iter   3:  -130.48752142913912   -1.92844e-02   9.44117e-04 DIIS
   @DF-RKS iter   4:  -130.48961552275173   -2.09409e-03   2.14706e-04 DIIS
   @DF-RKS iter   5:  -130.48976291550002   -1.47393e-04   4.67802e-05 DIIS
   @DF-RKS iter   6:  -130.48977346927180   -1.05538e-05   6.45072e-06 DIIS
   @DF-RKS iter   7:  -130.48977407188019   -6.02608e-07   1.30830e-06 DIIS
   @DF-RKS iter   8:  -130.48977409737128   -2.54911e-08   2.39671e-07 DIIS
   @DF-RKS iter   9:  -130.48977409840020   -1.02892e-09   6.27810e-08 DIIS
   @DF-RKS iter  10:  -130.48977409846552   -6.53131e-11   1.34343e-08 DIIS
   @DF-RKS iter  11:  -130.48977409846890   -3.38218e-12   3.31410e-09 DIIS
  Energy and wave function converged.


  ==> Post-Iterations <==

    Orbital Energies [Eh]
    ---------------------

    Doubly Occupied:                                                      

       1Ap   -19.425087     2Ap   -14.639671     3Ap    -1.308235  
       4Ap    -0.855364     5Ap    -0.650540     1App   -0.572285  
       6Ap    -0.569955     7Ap    -0.358248  

    Virtual:                                                              

       2App   -0.016362     8Ap     0.012331     9Ap     0.067043  
      10Ap     0.090781     3App    0.094024    11Ap     0.130257  
      12Ap     0.147347    13Ap     0.167174     4App    0.170232  
      14Ap     0.208547     5App    0.225396    15Ap     0.263994  
      16Ap     0.305296    17Ap     0.347782    18Ap     0.417855  
      19Ap     0.444648     6App    0.471730     7App    0.501802  
      20Ap     0.531742    21Ap     0.556366    22Ap     0.617491  
       8App    0.638057    23Ap     0.652475     9App    0.676752  
      24Ap     0.699722    25Ap     0.743483    10App    0.751827  
      26Ap     0.765216    27Ap     0.857643    11App    0.867092  
      28Ap     0.907518    29Ap     0.927403    12App    0.958930  
      30Ap     0.964967    13App    1.066781    31Ap     1.081135  
      14App    1.187253    32Ap     1.227759    33Ap     1.261951  
      34Ap     1.348894    15App    1.444267    35Ap     1.468381  
      16App    1.521388    36Ap     1.542099    37Ap     1.598244  
      17App    1.631453    38Ap     1.766222    18App    1.776813  
      39Ap     1.824940    40Ap     1.892932    19App    1.944037  
      41Ap     1.958341    42Ap     1.991665    43Ap     2.023566  
      20App    2.071811    21App    2.157108    44Ap     2.175508  
      45Ap     2.313749    22App    2.332720    46Ap     2.369404  
      47Ap     2.485415    23App    2.514698    24App    2.634536  
      48Ap     2.660063    49Ap     2.857006    50Ap     3.061046  
      51Ap     3.199762    25App    3.459391    52Ap     3.756561  
      53Ap     3.789055    26App    3.792077    27App    3.828757  
      54Ap     3.899803    55Ap     4.033600    28App    4.180534  
      56Ap     4.224377    57Ap     4.383866    29App    4.437555  
      58Ap     4.577533    59Ap     4.630801    30App    4.721239  
      31App    4.777476    60Ap     4.797408    61Ap     4.908577  
      32App    4.924355    62Ap     5.058876    63Ap     5.199792  
      33App    5.308183    64Ap     5.395792    34App    5.511311  
      65Ap     5.549899    66Ap     5.915684    67Ap     6.156171  
      35App    6.159812    36App    6.413168    68Ap     6.429990  
      69Ap     6.547469    37App    6.689329    70Ap     6.724622  
      38App    6.872095    39App    7.067161    71Ap     7.079624  
      72Ap     7.208619    73Ap     7.329765    74Ap     7.565778  
      75Ap    14.013948    76Ap    14.539063  

    Final Occupation by Irrep:
             Ap   App 
    DOCC [     7,    1 ]

  @DF-RKS Final Energy:  -130.48977409846890

   => Energetics <=

    Nuclear Repulsion Energy =             30.3197364490524635
    One-Electron Energy =                -237.7454931736414778
    Two-Electron Energy =                  88.2266223093390920
    DFT Exchange-Correlation Energy =     -11.3575818193176517
    Empirical Dispersion Energy =           0.0000000000000000
    VV10 Nonlocal Energy =                  0.0669421360986486
    Total Energy =                       -130.4897740984689278

Computation Completed


Properties will be evaluated at   0.000000,   0.000000,   0.000000 [a0]

Properties computed using the SCF density matrix

  Nuclear Dipole Moment: [e a0]
     X:     0.5530      Y:     1.1350      Z:     0.0000

  Electronic Dipole Moment: [e a0]
     X:    -0.3697      Y:    -0.4803      Z:     0.0000

  Dipole Moment: [e a0]
     X:     0.1833      Y:     0.6547      Z:     0.0000     Total:     0.6799

  Dipole Moment: [D]
     X:     0.4660      Y:     1.6641      Z:     0.0000     Total:     1.7281


*** tstop() called on bp1-compute00139.data.bp.acrc.priv at Tue Apr 27 17:31:26 2021
Module time:
	user time   =      87.81 seconds =       1.46 minutes
	system time =       2.96 seconds =       0.05 minutes
	total time  =          4 seconds =       0.07 minutes
Total time:
	user time   =     175.42 seconds =       2.92 minutes
	system time =       9.32 seconds =       0.16 minutes
	total time  =          8 seconds =       0.13 minutes

  //>>>>>>>>>>>>>>>>>>>>>>>>>>>>>>>>>>>//
  //    Loading displacement 3 of 7    //
  //<<<<<<<<<<<<<<<<<<<<<<<<<<<<<<<<<<<//

*** tstart() called on bp1-compute00139.data.bp.acrc.priv
*** at Tue Apr 27 17:31:26 2021

   => Loading Basis Set <=

    Name: AUG-CC-PV(T+D)Z
    Role: ORBITAL
    Keyword: BASIS
    atoms 1 entry N          line   301 file /work/zw18965/.conda/envs/p4env/share/psi4/basis/aug-cc-pv_tpd_z.gbs 
    atoms 2 entry H          line    56 file /work/zw18965/.conda/envs/p4env/share/psi4/basis/aug-cc-pv_tpd_z.gbs 
    atoms 3 entry O          line   347 file /work/zw18965/.conda/envs/p4env/share/psi4/basis/aug-cc-pv_tpd_z.gbs 


         ---------------------------------------------------------
                                   SCF
               by Justin Turney, Rob Parrish, Andy Simmonett
                          and Daniel G. A. Smith
                              RKS Reference
                       24 Threads, 137329 MiB Core
         ---------------------------------------------------------

  ==> Geometry <==

    Molecular point group: cs
    Full point group: Cs

    Geometry (in Angstrom), charge = 0, multiplicity = 1:

       Center              X                  Y                   Z               Mass       
    ------------   -----------------  -----------------  -----------------  -----------------
         N            0.594466437947     0.158957749209     0.000000000000    14.003074004430
         H            0.593307942393     1.212486159209     0.000000000000     1.007825032230
         O           -0.557821553419    -0.215560452197     0.000000000000    15.994914619570

  Running in cs symmetry.

  Rotational constants: A =     18.78052  B =      1.40933  C =      1.31095 [cm^-1]
  Rotational constants: A = 563025.82596  B =  42250.69008  C =  39301.42513 [MHz]
  Nuclear repulsion =   30.282063088167718

  Charge       = 0
  Multiplicity = 1
  Electrons    = 16
  Nalpha       = 8
  Nbeta        = 8

  ==> Algorithm <==

  SCF Algorithm Type is DF.
  DIIS enabled.
  MOM disabled.
  Fractional occupation disabled.
  Guess Type is SAD.
  Energy threshold   = 1.00e-08
  Density threshold  = 1.00e-08
  Integral threshold = 0.00e+00

  ==> Primary Basis <==

  Basis Set: AUG-CC-PV(T+D)Z
    Blend: AUG-CC-PV(T+D)Z
    Number of shells: 37
    Number of basis function: 115
    Number of Cartesian functions: 135
    Spherical Harmonics?: true
    Max angular momentum: 3

  ==> DFT Potential <==

   => Composite Functional: WB97M-V <= 

    wB97M-V Hyb-GGA Exchange-Correlation Functional

    N. Mardirossian and M. Head-Gordon, J. Chem. Phys. 144, 214110 (2016)

    Deriv               =              1
    GGA                 =           TRUE
    Meta                =           TRUE

    Exchange Hybrid     =           TRUE
    MP2 Hybrid          =          FALSE

   => Exchange-Correlation Functionals <=

    1.0000   wB97M-V exchange-correlation functional

   => Exact (HF) Exchange <=

    0.8500            HF,LR [omega = 0.3000]
    0.1500               HF 

   => VV10 Non-Local Parameters <=

    VV10 B              =     6.0000E+00
    VV10 C              =     1.0000E-02

   => Molecular Quadrature <=

    Radial Scheme          =       TREUTLER
    Pruning Scheme         =           FLAT
    Nuclear Scheme         =       TREUTLER

    BS radius alpha        =              1
    Pruning alpha          =              1
    Radial Points          =             75
    Spherical Points       =            302
    Total Points           =          67950
    Total Blocks           =            572
    Max Points             =            256
    Max Functions          =            115

   => Loading Basis Set <=

    Name: (AUG-CC-PV(T+D)Z AUX)
    Role: JKFIT
    Keyword: DF_BASIS_SCF
    atoms 1 entry N          line   224 file /work/zw18965/.conda/envs/p4env/share/psi4/basis/aug-cc-pvtz-jkfit.gbs 
    atoms 2 entry H          line    70 file /work/zw18965/.conda/envs/p4env/share/psi4/basis/aug-cc-pvtz-jkfit.gbs 
    atoms 3 entry O          line   286 file /work/zw18965/.conda/envs/p4env/share/psi4/basis/aug-cc-pvtz-jkfit.gbs 

  ==> Pre-Iterations <==

   -------------------------------------------------------
    Irrep   Nso     Nmo     Nalpha   Nbeta   Ndocc  Nsocc
   -------------------------------------------------------
     A'        76      76       0       0       0       0
     A"        39      39       0       0       0       0
   -------------------------------------------------------
    Total     115     115       8       8       8       0
   -------------------------------------------------------

  ==> Integral Setup <==

  ==> DiskDFJK: Density-Fitted J/K Matrices <==

    J tasked:                  Yes
    K tasked:                  Yes
    wK tasked:                 Yes
    Omega:               3.000E-01
    OpenMP threads:             24
    Integrals threads:          24
    Memory [MiB]:           102455
    Algorithm:                Core
    Integral Cache:           NONE
    Schwarz Cutoff:          1E-12
    Fitting Condition:       1E-10

   => Auxiliary Basis Set <=

  Basis Set: (AUG-CC-PV(T+D)Z AUX)
    Blend: AUG-CC-PVTZ-JKFIT
    Number of shells: 74
    Number of basis function: 254
    Number of Cartesian functions: 317
    Spherical Harmonics?: true
    Max angular momentum: 4

  Cached 100.0% of DFT collocation blocks in 0.529 [GiB].

  Minimum eigenvalue in the overlap matrix is 2.3392184228E-04.
  Using Symmetric Orthogonalization.

  SCF Guess: Superposition of Atomic Densities via on-the-fly atomic UHF.

  ==> Iterations <==

                           Total Energy        Delta E     RMS |[F,P]|

   @DF-RKS iter SAD:  -129.91523387064495   -1.29915e+02   0.00000e+00 
   @DF-RKS iter   1:  -130.45013401024988   -5.34900e-01   3.53981e-03 DIIS
   @DF-RKS iter   2:  -130.46809453540271   -1.79605e-02   3.03791e-03 DIIS
   @DF-RKS iter   3:  -130.48741812920437   -1.93236e-02   9.48914e-04 DIIS
   @DF-RKS iter   4:  -130.48953652290652   -2.11839e-03   2.14375e-04 DIIS
   @DF-RKS iter   5:  -130.48968348164493   -1.46959e-04   4.67279e-05 DIIS
   @DF-RKS iter   6:  -130.48969399790022   -1.05163e-05   6.42244e-06 DIIS
   @DF-RKS iter   7:  -130.48969459486290   -5.96963e-07   1.30330e-06 DIIS
   @DF-RKS iter   8:  -130.48969462019338   -2.53305e-08   2.39389e-07 DIIS
   @DF-RKS iter   9:  -130.48969462121562   -1.02224e-09   6.24646e-08 DIIS
   @DF-RKS iter  10:  -130.48969462128002   -6.44036e-11   1.33686e-08 DIIS
   @DF-RKS iter  11:  -130.48969462128358   -3.55271e-12   3.29243e-09 DIIS
  Energy and wave function converged.


  ==> Post-Iterations <==

    Orbital Energies [Eh]
    ---------------------

    Doubly Occupied:                                                      

       1Ap   -19.425167     2Ap   -14.639905     3Ap    -1.306948  
       4Ap    -0.855638     5Ap    -0.650109     1App   -0.571582  
       6Ap    -0.569532     7Ap    -0.358746  

    Virtual:                                                              

       2App   -0.016895     8Ap     0.012313     9Ap     0.067036  
      10Ap     0.090785     3App    0.094051    11Ap     0.130239  
      12Ap     0.147328    13Ap     0.167181     4App    0.170229  
      14Ap     0.208457     5App    0.225317    15Ap     0.263893  
      16Ap     0.305289    17Ap     0.347710    18Ap     0.416883  
      19Ap     0.444624     6App    0.471868     7App    0.501713  
      20Ap     0.530877    21Ap     0.556124    22Ap     0.617727  
       8App    0.638413    23Ap     0.652627     9App    0.676541  
      24Ap     0.699833    25Ap     0.743088    10App    0.751723  
      26Ap     0.764737    27Ap     0.857556    11App    0.867002  
      28Ap     0.907503    29Ap     0.927287    12App    0.958933  
      30Ap     0.964755    13App    1.066195    31Ap     1.081306  
      14App    1.187146    32Ap     1.227017    33Ap     1.261845  
      34Ap     1.349131    15App    1.444241    35Ap     1.468289  
      16App    1.521230    36Ap     1.541842    37Ap     1.598248  
      17App    1.631420    38Ap     1.766784    18App    1.776278  
      39Ap     1.824108    40Ap     1.893536    19App    1.944029  
      41Ap     1.958761    42Ap     1.991284    43Ap     2.023308  
      20App    2.071574    21App    2.156695    44Ap     2.174646  
      45Ap     2.313959    22App    2.331920    46Ap     2.368800  
      47Ap     2.483519    23App    2.513085    24App    2.634468  
      48Ap     2.656687    49Ap     2.857268    50Ap     3.061287  
      51Ap     3.198704    25App    3.459067    52Ap     3.754426  
      53Ap     3.787769    26App    3.791167    27App    3.828464  
      54Ap     3.898964    55Ap     4.033009    28App    4.178023  
      56Ap     4.223413    57Ap     4.383478    29App    4.437268  
      58Ap     4.577561    59Ap     4.630106    30App    4.721573  
      31App    4.777552    60Ap     4.795265    61Ap     4.908685  
      32App    4.924408    62Ap     5.057668    63Ap     5.203646  
      33App    5.305055    64Ap     5.395712    34App    5.511595  
      65Ap     5.548581    66Ap     5.913979    67Ap     6.156130  
      35App    6.159858    36App    6.411316    68Ap     6.427019  
      69Ap     6.544585    37App    6.688532    70Ap     6.723664  
      38App    6.867639    39App    7.066302    71Ap     7.074694  
      72Ap     7.207594    73Ap     7.326197    74Ap     7.566190  
      75Ap    13.991218    76Ap    14.500104  

    Final Occupation by Irrep:
             Ap   App 
    DOCC [     7,    1 ]

  @DF-RKS Final Energy:  -130.48969462128358

   => Energetics <=

    Nuclear Repulsion Energy =             30.2820630881677175
    One-Electron Energy =                -237.6742383103272402
    Two-Electron Energy =                  88.1918575329597871
    DFT Exchange-Correlation Energy =     -11.3563192915964954
    Empirical Dispersion Energy =           0.0000000000000000
    VV10 Nonlocal Energy =                  0.0669423595126513
    Total Energy =                       -130.4896946212836042

Computation Completed


Properties will be evaluated at   0.000000,   0.000000,   0.000000 [a0]

Properties computed using the SCF density matrix

  Nuclear Dipole Moment: [e a0]
     X:     0.5518      Y:     1.1352      Z:     0.0000

  Electronic Dipole Moment: [e a0]
     X:    -0.3674      Y:    -0.4792      Z:     0.0000

  Dipole Moment: [e a0]
     X:     0.1844      Y:     0.6560      Z:     0.0000     Total:     0.6814

  Dipole Moment: [D]
     X:     0.4688      Y:     1.6674      Z:     0.0000     Total:     1.7320


*** tstop() called on bp1-compute00139.data.bp.acrc.priv at Tue Apr 27 17:31:29 2021
Module time:
	user time   =      81.90 seconds =       1.36 minutes
	system time =       2.50 seconds =       0.04 minutes
	total time  =          3 seconds =       0.05 minutes
Total time:
	user time   =     257.45 seconds =       4.29 minutes
	system time =      11.82 seconds =       0.20 minutes
	total time  =         11 seconds =       0.18 minutes

  //>>>>>>>>>>>>>>>>>>>>>>>>>>>>>>>>>>>//
  //    Loading displacement 4 of 7    //
  //<<<<<<<<<<<<<<<<<<<<<<<<<<<<<<<<<<<//

*** tstart() called on bp1-compute00139.data.bp.acrc.priv
*** at Tue Apr 27 17:31:29 2021

   => Loading Basis Set <=

    Name: AUG-CC-PV(T+D)Z
    Role: ORBITAL
    Keyword: BASIS
    atoms 1 entry N          line   301 file /work/zw18965/.conda/envs/p4env/share/psi4/basis/aug-cc-pv_tpd_z.gbs 
    atoms 2 entry H          line    56 file /work/zw18965/.conda/envs/p4env/share/psi4/basis/aug-cc-pv_tpd_z.gbs 
    atoms 3 entry O          line   347 file /work/zw18965/.conda/envs/p4env/share/psi4/basis/aug-cc-pv_tpd_z.gbs 


         ---------------------------------------------------------
                                   SCF
               by Justin Turney, Rob Parrish, Andy Simmonett
                          and Daniel G. A. Smith
                              RKS Reference
                       24 Threads, 137329 MiB Core
         ---------------------------------------------------------

  ==> Geometry <==

    Molecular point group: cs
    Full point group: Cs

    Geometry (in Angstrom), charge = 0, multiplicity = 1:

       Center              X                  Y                   Z               Mass       
    ------------   -----------------  -----------------  -----------------  -----------------
         N            0.593956145973     0.158589209370     0.000000000000    14.003074004430
         H            0.592246067627     1.213984828598     0.000000000000     1.007825032230
         O           -0.557307900145    -0.215332236279     0.000000000000    15.994914619570

  Running in cs symmetry.

  Rotational constants: A =     18.70661  B =      1.41193  C =      1.31284 [cm^-1]
  Rotational constants: A = 560809.98869  B =  42328.59878  C =  39357.95437 [MHz]
  Nuclear repulsion =   30.299240876069575

  Charge       = 0
  Multiplicity = 1
  Electrons    = 16
  Nalpha       = 8
  Nbeta        = 8

  ==> Algorithm <==

  SCF Algorithm Type is DF.
  DIIS enabled.
  MOM disabled.
  Fractional occupation disabled.
  Guess Type is SAD.
  Energy threshold   = 1.00e-08
  Density threshold  = 1.00e-08
  Integral threshold = 0.00e+00

  ==> Primary Basis <==

  Basis Set: AUG-CC-PV(T+D)Z
    Blend: AUG-CC-PV(T+D)Z
    Number of shells: 37
    Number of basis function: 115
    Number of Cartesian functions: 135
    Spherical Harmonics?: true
    Max angular momentum: 3

  ==> DFT Potential <==

   => Composite Functional: WB97M-V <= 

    wB97M-V Hyb-GGA Exchange-Correlation Functional

    N. Mardirossian and M. Head-Gordon, J. Chem. Phys. 144, 214110 (2016)

    Deriv               =              1
    GGA                 =           TRUE
    Meta                =           TRUE

    Exchange Hybrid     =           TRUE
    MP2 Hybrid          =          FALSE

   => Exchange-Correlation Functionals <=

    1.0000   wB97M-V exchange-correlation functional

   => Exact (HF) Exchange <=

    0.8500            HF,LR [omega = 0.3000]
    0.1500               HF 

   => VV10 Non-Local Parameters <=

    VV10 B              =     6.0000E+00
    VV10 C              =     1.0000E-02

   => Molecular Quadrature <=

    Radial Scheme          =       TREUTLER
    Pruning Scheme         =           FLAT
    Nuclear Scheme         =       TREUTLER

    BS radius alpha        =              1
    Pruning alpha          =              1
    Radial Points          =             75
    Spherical Points       =            302
    Total Points           =          67950
    Total Blocks           =            571
    Max Points             =            256
    Max Functions          =            115

   => Loading Basis Set <=

    Name: (AUG-CC-PV(T+D)Z AUX)
    Role: JKFIT
    Keyword: DF_BASIS_SCF
    atoms 1 entry N          line   224 file /work/zw18965/.conda/envs/p4env/share/psi4/basis/aug-cc-pvtz-jkfit.gbs 
    atoms 2 entry H          line    70 file /work/zw18965/.conda/envs/p4env/share/psi4/basis/aug-cc-pvtz-jkfit.gbs 
    atoms 3 entry O          line   286 file /work/zw18965/.conda/envs/p4env/share/psi4/basis/aug-cc-pvtz-jkfit.gbs 

  ==> Pre-Iterations <==

   -------------------------------------------------------
    Irrep   Nso     Nmo     Nalpha   Nbeta   Ndocc  Nsocc
   -------------------------------------------------------
     A'        76      76       0       0       0       0
     A"        39      39       0       0       0       0
   -------------------------------------------------------
    Total     115     115       8       8       8       0
   -------------------------------------------------------

  ==> Integral Setup <==

  ==> DiskDFJK: Density-Fitted J/K Matrices <==

    J tasked:                  Yes
    K tasked:                  Yes
    wK tasked:                 Yes
    Omega:               3.000E-01
    OpenMP threads:             24
    Integrals threads:          24
    Memory [MiB]:           102455
    Algorithm:                Core
    Integral Cache:           NONE
    Schwarz Cutoff:          1E-12
    Fitting Condition:       1E-10

   => Auxiliary Basis Set <=

  Basis Set: (AUG-CC-PV(T+D)Z AUX)
    Blend: AUG-CC-PVTZ-JKFIT
    Number of shells: 74
    Number of basis function: 254
    Number of Cartesian functions: 317
    Spherical Harmonics?: true
    Max angular momentum: 4

  Cached 100.0% of DFT collocation blocks in 0.529 [GiB].

  Minimum eigenvalue in the overlap matrix is 2.3385948988E-04.
  Using Symmetric Orthogonalization.

  SCF Guess: Superposition of Atomic Densities via on-the-fly atomic UHF.

  ==> Iterations <==

                           Total Energy        Delta E     RMS |[F,P]|

   @DF-RKS iter SAD:  -129.91718015781285   -1.29917e+02   0.00000e+00 
   @DF-RKS iter   1:  -130.45006766949453   -5.32888e-01   3.54496e-03 DIIS
   @DF-RKS iter   2:  -130.46799328819904   -1.79256e-02   3.04814e-03 DIIS
   @DF-RKS iter   3:  -130.48747578936531   -1.94825e-02   9.46721e-04 DIIS
   @DF-RKS iter   4:  -130.48958392874164   -2.10814e-03   2.14360e-04 DIIS
   @DF-RKS iter   5:  -130.48973096047780   -1.47032e-04   4.67696e-05 DIIS
   @DF-RKS iter   6:  -130.48974150801175   -1.05475e-05   6.44498e-06 DIIS
   @DF-RKS iter   7:  -130.48974210963897   -6.01627e-07   1.30981e-06 DIIS
   @DF-RKS iter   8:  -130.48974213522320   -2.55842e-08   2.41532e-07 DIIS
   @DF-RKS iter   9:  -130.48974213626536   -1.04217e-09   6.30821e-08 DIIS
   @DF-RKS iter  10:  -130.48974213633198   -6.66205e-11   1.36402e-08 DIIS
   @DF-RKS iter  11:  -130.48974213633571   -3.72324e-12   3.37476e-09 DIIS
  Energy and wave function converged.


  ==> Post-Iterations <==

    Orbital Energies [Eh]
    ---------------------

    Doubly Occupied:                                                      

       1Ap   -19.425125     2Ap   -14.640006     3Ap    -1.307789  
       4Ap    -0.854976     5Ap    -0.650244     1App   -0.572053  
       6Ap    -0.569825     7Ap    -0.358481  

    Virtual:                                                              

       2App   -0.016548     8Ap     0.012320     9Ap     0.067047  
      10Ap     0.090778     3App    0.094060    11Ap     0.130171  
      12Ap     0.147296    13Ap     0.167155     4App    0.170227  
      14Ap     0.208291     5App    0.225298    15Ap     0.264012  
      16Ap     0.305349    17Ap     0.347370    18Ap     0.417384  
      19Ap     0.444614     6App    0.471917     7App    0.501671  
      20Ap     0.531561    21Ap     0.556102    22Ap     0.617467  
       8App    0.638162    23Ap     0.652520     9App    0.676465  
      24Ap     0.699655    25Ap     0.742814    10App    0.751824  
      26Ap     0.764800    27Ap     0.857503    11App    0.867031  
      28Ap     0.907270    29Ap     0.927469    12App    0.958905  
      30Ap     0.964837    13App    1.066478    31Ap     1.081278  
      14App    1.186443    32Ap     1.226639    33Ap     1.262485  
      34Ap     1.349362    15App    1.444285    35Ap     1.468093  
      16App    1.520870    36Ap     1.541911    37Ap     1.598052  
      17App    1.631186    38Ap     1.766160    18App    1.776538  
      39Ap     1.824138    40Ap     1.892312    19App    1.944141  
      41Ap     1.958679    42Ap     1.990561    43Ap     2.023235  
      20App    2.071845    21App    2.156878    44Ap     2.175195  
      45Ap     2.313649    22App    2.332367    46Ap     2.369229  
      47Ap     2.484471    23App    2.513704    24App    2.633230  
      48Ap     2.657769    49Ap     2.858171    50Ap     3.061009  
      51Ap     3.197637    25App    3.458512    52Ap     3.755809  
      53Ap     3.787874    26App    3.790585    27App    3.828400  
      54Ap     3.898406    55Ap     4.032551    28App    4.179238  
      56Ap     4.222236    57Ap     4.382562    29App    4.434922  
      58Ap     4.576204    59Ap     4.630342    30App    4.720501  
      31App    4.777368    60Ap     4.796881    61Ap     4.908877  
      32App    4.925138    62Ap     5.056693    63Ap     5.200096  
      33App    5.306475    64Ap     5.394143    34App    5.506587  
      65Ap     5.545277    66Ap     5.910336    67Ap     6.156116  
      35App    6.159869    36App    6.412150    68Ap     6.428010  
      69Ap     6.545038    37App    6.688813    70Ap     6.723882  
      38App    6.870344    39App    7.066803    71Ap     7.076614  
      72Ap     7.207708    73Ap     7.328063    74Ap     7.564190  
      75Ap    13.996157    76Ap    14.507847  

    Final Occupation by Irrep:
             Ap   App 
    DOCC [     7,    1 ]

  @DF-RKS Final Energy:  -130.48974213633571

   => Energetics <=

    Nuclear Repulsion Energy =             30.2992408760695753
    One-Electron Energy =                -237.7068179667310801
    Two-Electron Energy =                  88.2074393046100056
    DFT Exchange-Correlation Energy =     -11.3565455313782593
    Empirical Dispersion Energy =           0.0000000000000000
    VV10 Nonlocal Energy =                  0.0669411810940598
    Total Energy =                       -130.4897421363357068

Computation Completed


Properties will be evaluated at   0.000000,   0.000000,   0.000000 [a0]

Properties computed using the SCF density matrix

  Nuclear Dipole Moment: [e a0]
     X:     0.5508      Y:     1.1366      Z:     0.0000

  Electronic Dipole Moment: [e a0]
     X:    -0.3679      Y:    -0.4826      Z:     0.0000

  Dipole Moment: [e a0]
     X:     0.1829      Y:     0.6539      Z:     0.0000     Total:     0.6790

  Dipole Moment: [D]
     X:     0.4648      Y:     1.6621      Z:     0.0000     Total:     1.7259


*** tstop() called on bp1-compute00139.data.bp.acrc.priv at Tue Apr 27 17:31:33 2021
Module time:
	user time   =      80.88 seconds =       1.35 minutes
	system time =       2.14 seconds =       0.04 minutes
	total time  =          4 seconds =       0.07 minutes
Total time:
	user time   =     338.47 seconds =       5.64 minutes
	system time =      13.97 seconds =       0.23 minutes
	total time  =         15 seconds =       0.25 minutes

  //>>>>>>>>>>>>>>>>>>>>>>>>>>>>>>>>>>>//
  //    Loading displacement 5 of 7    //
  //<<<<<<<<<<<<<<<<<<<<<<<<<<<<<<<<<<<//

*** tstart() called on bp1-compute00139.data.bp.acrc.priv
*** at Tue Apr 27 17:31:33 2021

   => Loading Basis Set <=

    Name: AUG-CC-PV(T+D)Z
    Role: ORBITAL
    Keyword: BASIS
    atoms 1 entry N          line   301 file /work/zw18965/.conda/envs/p4env/share/psi4/basis/aug-cc-pv_tpd_z.gbs 
    atoms 2 entry H          line    56 file /work/zw18965/.conda/envs/p4env/share/psi4/basis/aug-cc-pv_tpd_z.gbs 
    atoms 3 entry O          line   347 file /work/zw18965/.conda/envs/p4env/share/psi4/basis/aug-cc-pv_tpd_z.gbs 


         ---------------------------------------------------------
                                   SCF
               by Justin Turney, Rob Parrish, Andy Simmonett
                          and Daniel G. A. Smith
                              RKS Reference
                       24 Threads, 137329 MiB Core
         ---------------------------------------------------------

  ==> Geometry <==

    Molecular point group: cs
    Full point group: Cs

    Geometry (in Angstrom), charge = 0, multiplicity = 1:

       Center              X                  Y                   Z               Mass       
    ------------   -----------------  -----------------  -----------------  -----------------
         N            0.593956145973     0.159124704963     0.000000000000    14.003074004430
         H            0.595666224318     1.210785905735     0.000000000000     1.007825032230
         O           -0.557523401110    -0.215599485588     0.000000000000    15.994914619570

  Running in cs symmetry.

  Rotational constants: A =     18.89339  B =      1.41036  C =      1.31240 [cm^-1]
  Rotational constants: A = 566409.60290  B =  42281.66351  C =  39344.64245 [MHz]
  Nuclear repulsion =   30.302542917181704

  Charge       = 0
  Multiplicity = 1
  Electrons    = 16
  Nalpha       = 8
  Nbeta        = 8

  ==> Algorithm <==

  SCF Algorithm Type is DF.
  DIIS enabled.
  MOM disabled.
  Fractional occupation disabled.
  Guess Type is SAD.
  Energy threshold   = 1.00e-08
  Density threshold  = 1.00e-08
  Integral threshold = 0.00e+00

  ==> Primary Basis <==

  Basis Set: AUG-CC-PV(T+D)Z
    Blend: AUG-CC-PV(T+D)Z
    Number of shells: 37
    Number of basis function: 115
    Number of Cartesian functions: 135
    Spherical Harmonics?: true
    Max angular momentum: 3

  ==> DFT Potential <==

   => Composite Functional: WB97M-V <= 

    wB97M-V Hyb-GGA Exchange-Correlation Functional

    N. Mardirossian and M. Head-Gordon, J. Chem. Phys. 144, 214110 (2016)

    Deriv               =              1
    GGA                 =           TRUE
    Meta                =           TRUE

    Exchange Hybrid     =           TRUE
    MP2 Hybrid          =          FALSE

   => Exchange-Correlation Functionals <=

    1.0000   wB97M-V exchange-correlation functional

   => Exact (HF) Exchange <=

    0.8500            HF,LR [omega = 0.3000]
    0.1500               HF 

   => VV10 Non-Local Parameters <=

    VV10 B              =     6.0000E+00
    VV10 C              =     1.0000E-02

   => Molecular Quadrature <=

    Radial Scheme          =       TREUTLER
    Pruning Scheme         =           FLAT
    Nuclear Scheme         =       TREUTLER

    BS radius alpha        =              1
    Pruning alpha          =              1
    Radial Points          =             75
    Spherical Points       =            302
    Total Points           =          67950
    Total Blocks           =            572
    Max Points             =            255
    Max Functions          =            115

   => Loading Basis Set <=

    Name: (AUG-CC-PV(T+D)Z AUX)
    Role: JKFIT
    Keyword: DF_BASIS_SCF
    atoms 1 entry N          line   224 file /work/zw18965/.conda/envs/p4env/share/psi4/basis/aug-cc-pvtz-jkfit.gbs 
    atoms 2 entry H          line    70 file /work/zw18965/.conda/envs/p4env/share/psi4/basis/aug-cc-pvtz-jkfit.gbs 
    atoms 3 entry O          line   286 file /work/zw18965/.conda/envs/p4env/share/psi4/basis/aug-cc-pvtz-jkfit.gbs 

  ==> Pre-Iterations <==

   -------------------------------------------------------
    Irrep   Nso     Nmo     Nalpha   Nbeta   Ndocc  Nsocc
   -------------------------------------------------------
     A'        76      76       0       0       0       0
     A"        39      39       0       0       0       0
   -------------------------------------------------------
    Total     115     115       8       8       8       0
   -------------------------------------------------------

  ==> Integral Setup <==

  ==> DiskDFJK: Density-Fitted J/K Matrices <==

    J tasked:                  Yes
    K tasked:                  Yes
    wK tasked:                 Yes
    Omega:               3.000E-01
    OpenMP threads:             24
    Integrals threads:          24
    Memory [MiB]:           102455
    Algorithm:                Core
    Integral Cache:           NONE
    Schwarz Cutoff:          1E-12
    Fitting Condition:       1E-10

   => Auxiliary Basis Set <=

  Basis Set: (AUG-CC-PV(T+D)Z AUX)
    Blend: AUG-CC-PVTZ-JKFIT
    Number of shells: 74
    Number of basis function: 254
    Number of Cartesian functions: 317
    Spherical Harmonics?: true
    Max angular momentum: 4

  Cached 100.0% of DFT collocation blocks in 0.529 [GiB].

  Minimum eigenvalue in the overlap matrix is 2.3337004487E-04.
  Using Symmetric Orthogonalization.

  SCF Guess: Superposition of Atomic Densities via on-the-fly atomic UHF.

  ==> Iterations <==

                           Total Energy        Delta E     RMS |[F,P]|

   @DF-RKS iter SAD:  -129.91725480698193   -1.29917e+02   0.00000e+00 
   @DF-RKS iter   1:  -130.45019566040372   -5.32941e-01   3.53863e-03 DIIS
   @DF-RKS iter   2:  -130.46833608706925   -1.81404e-02   3.02335e-03 DIIS
   @DF-RKS iter   3:  -130.48746116339800   -1.91251e-02   9.46267e-04 DIIS
   @DF-RKS iter   4:  -130.48956526403074   -2.10410e-03   2.14731e-04 DIIS
   @DF-RKS iter   5:  -130.48971259558309   -1.47332e-04   4.67400e-05 DIIS
   @DF-RKS iter   6:  -130.48972311871125   -1.05231e-05   6.42857e-06 DIIS
   @DF-RKS iter   7:  -130.48972371672582   -5.98015e-07   1.30189e-06 DIIS
   @DF-RKS iter   8:  -130.48972374197484   -2.52490e-08   2.37570e-07 DIIS
   @DF-RKS iter   9:  -130.48972374298418   -1.00934e-09   6.21817e-08 DIIS
   @DF-RKS iter  10:  -130.48972374304734   -6.31530e-11   1.31700e-08 DIIS
   @DF-RKS iter  11:  -130.48972374305063   -3.29692e-12   3.23195e-09 DIIS
  Energy and wave function converged.


  ==> Post-Iterations <==

    Orbital Energies [Eh]
    ---------------------

    Doubly Occupied:                                                      

       1Ap   -19.425129     2Ap   -14.639569     3Ap    -1.307394  
       4Ap    -0.856029     5Ap    -0.650405     1App   -0.571814  
       6Ap    -0.569662     7Ap    -0.358514  

    Virtual:                                                              

       2App   -0.016710     8Ap     0.012324     9Ap     0.067032  
      10Ap     0.090788     3App    0.094016    11Ap     0.130323  
      12Ap     0.147379    13Ap     0.167201     4App    0.170234  
      14Ap     0.208713     5App    0.225416    15Ap     0.263875  
      16Ap     0.305236    17Ap     0.348121    18Ap     0.417357  
      19Ap     0.444661     6App    0.471679     7App    0.501845  
      20Ap     0.531056    21Ap     0.556384    22Ap     0.617752  
       8App    0.638307    23Ap     0.652583     9App    0.676829  
      24Ap     0.699899    25Ap     0.743755    10App    0.751727  
      26Ap     0.765161    27Ap     0.857696    11App    0.867064  
      28Ap     0.907752    29Ap     0.927221    12App    0.958956  
      30Ap     0.964886    13App    1.066499    31Ap     1.081161  
      14App    1.187957    32Ap     1.228137    33Ap     1.261311  
      34Ap     1.348663    15App    1.444224    35Ap     1.468570  
      16App    1.521747    36Ap     1.542031    37Ap     1.598438  
      17App    1.631686    38Ap     1.766837    18App    1.776554  
      39Ap     1.824902    40Ap     1.894136    19App    1.943921  
      41Ap     1.958481    42Ap     1.992374    43Ap     2.023650  
      20App    2.071538    21App    2.156924    44Ap     2.174959  
      45Ap     2.314058    22App    2.332272    46Ap     2.368978  
      47Ap     2.484462    23App    2.514078    24App    2.635775  
      48Ap     2.658977    49Ap     2.856096    50Ap     3.061314  
      51Ap     3.200844    25App    3.459955    52Ap     3.755225  
      53Ap     3.788884    26App    3.792666    27App    3.828822  
      54Ap     3.900355    55Ap     4.034053    28App    4.179317  
      56Ap     4.225587    57Ap     4.384794    29App    4.439899  
      58Ap     4.578892    59Ap     4.630580    30App    4.722309  
      31App    4.777662    60Ap     4.795806    61Ap     4.908383  
      32App    4.923618    62Ap     5.059854    63Ap     5.203293  
      33App    5.306746    64Ap     5.397347    34App    5.516351  
      65Ap     5.553263    66Ap     5.919365    67Ap     6.156188  
      35App    6.159800    36App    6.412336    68Ap     6.428999  
      69Ap     6.547030    37App    6.689045    70Ap     6.724401  
      38App    6.869386    39App    7.066658    71Ap     7.077710  
      72Ap     7.208509    73Ap     7.327899    74Ap     7.567748  
      75Ap    14.008693    76Ap    14.531652  

    Final Occupation by Irrep:
             Ap   App 
    DOCC [     7,    1 ]

  @DF-RKS Final Energy:  -130.48972374305063

   => Energetics <=

    Nuclear Repulsion Energy =             30.3025429171817038
    One-Electron Energy =                -237.7128726315028473
    Two-Electron Energy =                  88.2110179666668444
    DFT Exchange-Correlation Energy =     -11.3573553117023742
    Empirical Dispersion Energy =           0.0000000000000000
    VV10 Nonlocal Energy =                  0.0669433163060215
    Total Energy =                       -130.4897237430506607

Computation Completed


Properties will be evaluated at   0.000000,   0.000000,   0.000000 [a0]

Properties computed using the SCF density matrix

  Nuclear Dipole Moment: [e a0]
     X:     0.5540      Y:     1.1336      Z:     0.0000

  Electronic Dipole Moment: [e a0]
     X:    -0.3691      Y:    -0.4768      Z:     0.0000

  Dipole Moment: [e a0]
     X:     0.1849      Y:     0.6568      Z:     0.0000     Total:     0.6823

  Dipole Moment: [D]
     X:     0.4700      Y:     1.6694      Z:     0.0000     Total:     1.7343


*** tstop() called on bp1-compute00139.data.bp.acrc.priv at Tue Apr 27 17:31:36 2021
Module time:
	user time   =      82.24 seconds =       1.37 minutes
	system time =       2.79 seconds =       0.05 minutes
	total time  =          3 seconds =       0.05 minutes
Total time:
	user time   =     420.84 seconds =       7.01 minutes
	system time =      16.76 seconds =       0.28 minutes
	total time  =         18 seconds =       0.30 minutes

  //>>>>>>>>>>>>>>>>>>>>>>>>>>>>>>>>>>>//
  //    Loading displacement 6 of 7    //
  //<<<<<<<<<<<<<<<<<<<<<<<<<<<<<<<<<<<//

*** tstart() called on bp1-compute00139.data.bp.acrc.priv
*** at Tue Apr 27 17:31:36 2021

   => Loading Basis Set <=

    Name: AUG-CC-PV(T+D)Z
    Role: ORBITAL
    Keyword: BASIS
    atoms 1 entry N          line   301 file /work/zw18965/.conda/envs/p4env/share/psi4/basis/aug-cc-pv_tpd_z.gbs 
    atoms 2 entry H          line    56 file /work/zw18965/.conda/envs/p4env/share/psi4/basis/aug-cc-pv_tpd_z.gbs 
    atoms 3 entry O          line   347 file /work/zw18965/.conda/envs/p4env/share/psi4/basis/aug-cc-pv_tpd_z.gbs 


         ---------------------------------------------------------
                                   SCF
               by Justin Turney, Rob Parrish, Andy Simmonett
                          and Daniel G. A. Smith
                              RKS Reference
                       24 Threads, 137329 MiB Core
         ---------------------------------------------------------

  ==> Geometry <==

    Molecular point group: cs
    Full point group: Cs

    Geometry (in Angstrom), charge = 0, multiplicity = 1:

       Center              X                  Y                   Z               Mass       
    ------------   -----------------  -----------------  -----------------  -----------------
         N            0.593956145973     0.158856957167     0.000000000000    14.003074004430
         H            0.592351531111     1.210395435411     0.000000000000     1.007825032230
         O           -0.557314545303    -0.215340477142     0.000000000000    15.994914619570

  Running in cs symmetry.

  Rotational constants: A =     18.84389  B =      1.41201  C =      1.31358 [cm^-1]
  Rotational constants: A = 564925.65097  B =  42331.12874  C =  39380.27744 [MHz]
  Nuclear repulsion =   30.313689360107158

  Charge       = 0
  Multiplicity = 1
  Electrons    = 16
  Nalpha       = 8
  Nbeta        = 8

  ==> Algorithm <==

  SCF Algorithm Type is DF.
  DIIS enabled.
  MOM disabled.
  Fractional occupation disabled.
  Guess Type is SAD.
  Energy threshold   = 1.00e-08
  Density threshold  = 1.00e-08
  Integral threshold = 0.00e+00

  ==> Primary Basis <==

  Basis Set: AUG-CC-PV(T+D)Z
    Blend: AUG-CC-PV(T+D)Z
    Number of shells: 37
    Number of basis function: 115
    Number of Cartesian functions: 135
    Spherical Harmonics?: true
    Max angular momentum: 3

  ==> DFT Potential <==

   => Composite Functional: WB97M-V <= 

    wB97M-V Hyb-GGA Exchange-Correlation Functional

    N. Mardirossian and M. Head-Gordon, J. Chem. Phys. 144, 214110 (2016)

    Deriv               =              1
    GGA                 =           TRUE
    Meta                =           TRUE

    Exchange Hybrid     =           TRUE
    MP2 Hybrid          =          FALSE

   => Exchange-Correlation Functionals <=

    1.0000   wB97M-V exchange-correlation functional

   => Exact (HF) Exchange <=

    0.8500            HF,LR [omega = 0.3000]
    0.1500               HF 

   => VV10 Non-Local Parameters <=

    VV10 B              =     6.0000E+00
    VV10 C              =     1.0000E-02

   => Molecular Quadrature <=

    Radial Scheme          =       TREUTLER
    Pruning Scheme         =           FLAT
    Nuclear Scheme         =       TREUTLER

    BS radius alpha        =              1
    Pruning alpha          =              1
    Radial Points          =             75
    Spherical Points       =            302
    Total Points           =          67950
    Total Blocks           =            570
    Max Points             =            256
    Max Functions          =            115

   => Loading Basis Set <=

    Name: (AUG-CC-PV(T+D)Z AUX)
    Role: JKFIT
    Keyword: DF_BASIS_SCF
    atoms 1 entry N          line   224 file /work/zw18965/.conda/envs/p4env/share/psi4/basis/aug-cc-pvtz-jkfit.gbs 
    atoms 2 entry H          line    70 file /work/zw18965/.conda/envs/p4env/share/psi4/basis/aug-cc-pvtz-jkfit.gbs 
    atoms 3 entry O          line   286 file /work/zw18965/.conda/envs/p4env/share/psi4/basis/aug-cc-pvtz-jkfit.gbs 

  ==> Pre-Iterations <==

   -------------------------------------------------------
    Irrep   Nso     Nmo     Nalpha   Nbeta   Ndocc  Nsocc
   -------------------------------------------------------
     A'        76      76       0       0       0       0
     A"        39      39       0       0       0       0
   -------------------------------------------------------
    Total     115     115       8       8       8       0
   -------------------------------------------------------

  ==> Integral Setup <==

  ==> DiskDFJK: Density-Fitted J/K Matrices <==

    J tasked:                  Yes
    K tasked:                  Yes
    wK tasked:                 Yes
    Omega:               3.000E-01
    OpenMP threads:             24
    Integrals threads:          24
    Memory [MiB]:           102455
    Algorithm:                Core
    Integral Cache:           NONE
    Schwarz Cutoff:          1E-12
    Fitting Condition:       1E-10

   => Auxiliary Basis Set <=

  Basis Set: (AUG-CC-PV(T+D)Z AUX)
    Blend: AUG-CC-PVTZ-JKFIT
    Number of shells: 74
    Number of basis function: 254
    Number of Cartesian functions: 317
    Spherical Harmonics?: true
    Max angular momentum: 4

  Cached 100.0% of DFT collocation blocks in 0.529 [GiB].

  Minimum eigenvalue in the overlap matrix is 2.3314142280E-04.
  Using Symmetric Orthogonalization.

  SCF Guess: Superposition of Atomic Densities via on-the-fly atomic UHF.

  ==> Iterations <==

                           Total Energy        Delta E     RMS |[F,P]|

   @DF-RKS iter SAD:  -129.91841730851300   -1.29918e+02   0.00000e+00 
   @DF-RKS iter   1:  -130.45019745912040   -5.31780e-01   3.53995e-03 DIIS
   @DF-RKS iter   2:  -130.46835619638162   -1.81587e-02   3.02366e-03 DIIS
   @DF-RKS iter   3:  -130.48748405331150   -1.91279e-02   9.44989e-04 DIIS
   @DF-RKS iter   4:  -130.48958211829617   -2.09806e-03   2.14788e-04 DIIS
   @DF-RKS iter   5:  -130.48972932286566   -1.47205e-04   4.66512e-05 DIIS
   @DF-RKS iter   6:  -130.48973978932278   -1.04665e-05   6.40769e-06 DIIS
   @DF-RKS iter   7:  -130.48974038302634   -5.93704e-07   1.29786e-06 DIIS
   @DF-RKS iter   8:  -130.48974040812618   -2.50998e-08   2.37433e-07 DIIS
   @DF-RKS iter   9:  -130.48974040913285   -1.00667e-09   6.21476e-08 DIIS
   @DF-RKS iter  10:  -130.48974040919634   -6.34941e-11   1.32318e-08 DIIS
   @DF-RKS iter  11:  -130.48974040919984   -3.49587e-12   3.25341e-09 DIIS
  Energy and wave function converged.


  ==> Post-Iterations <==

    Orbital Energies [Eh]
    ---------------------

    Doubly Occupied:                                                      

       1Ap   -19.425032     2Ap   -14.639545     3Ap    -1.307734  
       4Ap    -0.855847     5Ap    -0.650471     1App   -0.571969  
       6Ap    -0.569753     7Ap    -0.358529  

    Virtual:                                                              

       2App   -0.016574     8Ap     0.012343     9Ap     0.067055  
      10Ap     0.090774     3App    0.094019    11Ap     0.130353  
      12Ap     0.147328    13Ap     0.167184     4App    0.170239  
      14Ap     0.208659     5App    0.225354    15Ap     0.264041  
      16Ap     0.305397    17Ap     0.348127    18Ap     0.417406  
      19Ap     0.444556     6App    0.471889     7App    0.501730  
      20Ap     0.531521    21Ap     0.556305    22Ap     0.618221  
       8App    0.638306    23Ap     0.652613     9App    0.676656  
      24Ap     0.699846    25Ap     0.743309    10App    0.751779  
      26Ap     0.764866    27Ap     0.857749    11App    0.867100  
      28Ap     0.907838    29Ap     0.927402    12App    0.959322  
      30Ap     0.965057    13App    1.066438    31Ap     1.081248  
      14App    1.187825    32Ap     1.227443    33Ap     1.261557  
      34Ap     1.349481    15App    1.444401    35Ap     1.468938  
      16App    1.521646    36Ap     1.542110    37Ap     1.598617  
      17App    1.631690    38Ap     1.767481    18App    1.776559  
      39Ap     1.824415    40Ap     1.894222    19App    1.944289  
      41Ap     1.958540    42Ap     1.991769    43Ap     2.023731  
      20App    2.071655    21App    2.157119    44Ap     2.174898  
      45Ap     2.314083    22App    2.332381    46Ap     2.369245  
      47Ap     2.484672    23App    2.513941    24App    2.635491  
      48Ap     2.657380    49Ap     2.857326    50Ap     3.061943  
      51Ap     3.200395    25App    3.459843    52Ap     3.756222  
      53Ap     3.788728    26App    3.791783    27App    3.828912  
      54Ap     3.900973    55Ap     4.033856    28App    4.179738  
      56Ap     4.225006    57Ap     4.386209    29App    4.439944  
      58Ap     4.579761    59Ap     4.630765    30App    4.722356  
      31App    4.777743    60Ap     4.796335    61Ap     4.908863  
      32App    4.924265    62Ap     5.060418    63Ap     5.203836  
      33App    5.306945    64Ap     5.399131    34App    5.517027  
      65Ap     5.553696    66Ap     5.919193    67Ap     6.156596  
      35App    6.160123    36App    6.412287    68Ap     6.429464  
      69Ap     6.547377    37App    6.689080    70Ap     6.724000  
      38App    6.870411    39App    7.066946    71Ap     7.078442  
      72Ap     7.208267    73Ap     7.328555    74Ap     7.568978  
      75Ap    14.009976    76Ap    14.543658  

    Final Occupation by Irrep:
             Ap   App 
    DOCC [     7,    1 ]

  @DF-RKS Final Energy:  -130.48974040919984

   => Energetics <=

    Nuclear Repulsion Energy =             30.3136893601071584
    One-Electron Energy =                -237.7342345962710510
    Two-Electron Energy =                  88.2216186247675580
    DFT Exchange-Correlation Energy =     -11.3577565722222573
    Empirical Dispersion Energy =           0.0000000000000000
    VV10 Nonlocal Energy =                  0.0669427744187427
    Total Energy =                       -130.4897404091998396

Computation Completed


Properties will be evaluated at   0.000000,   0.000000,   0.000000 [a0]

Properties computed using the SCF density matrix

  Nuclear Dipole Moment: [e a0]
     X:     0.5509      Y:     1.1332      Z:     0.0000

  Electronic Dipole Moment: [e a0]
     X:    -0.3674      Y:    -0.4771      Z:     0.0000

  Dipole Moment: [e a0]
     X:     0.1836      Y:     0.6561      Z:     0.0000     Total:     0.6813

  Dipole Moment: [D]
     X:     0.4666      Y:     1.6677      Z:     0.0000     Total:     1.7317


*** tstop() called on bp1-compute00139.data.bp.acrc.priv at Tue Apr 27 17:31:40 2021
Module time:
	user time   =      81.33 seconds =       1.36 minutes
	system time =       2.18 seconds =       0.04 minutes
	total time  =          4 seconds =       0.07 minutes
Total time:
	user time   =     502.30 seconds =       8.37 minutes
	system time =      18.95 seconds =       0.32 minutes
	total time  =         22 seconds =       0.37 minutes

  //>>>>>>>>>>>>>>>>>>>>>>>>>>>>>>>>>>>//
  //    Loading displacement 7 of 7    //
  //<<<<<<<<<<<<<<<<<<<<<<<<<<<<<<<<<<<//

*** tstart() called on bp1-compute00139.data.bp.acrc.priv
*** at Tue Apr 27 17:31:40 2021

   => Loading Basis Set <=

    Name: AUG-CC-PV(T+D)Z
    Role: ORBITAL
    Keyword: BASIS
    atoms 1 entry N          line   301 file /work/zw18965/.conda/envs/p4env/share/psi4/basis/aug-cc-pv_tpd_z.gbs 
    atoms 2 entry H          line    56 file /work/zw18965/.conda/envs/p4env/share/psi4/basis/aug-cc-pv_tpd_z.gbs 
    atoms 3 entry O          line   347 file /work/zw18965/.conda/envs/p4env/share/psi4/basis/aug-cc-pv_tpd_z.gbs 


         ---------------------------------------------------------
                                   SCF
               by Justin Turney, Rob Parrish, Andy Simmonett
                          and Daniel G. A. Smith
                              RKS Reference
                       24 Threads, 137329 MiB Core
         ---------------------------------------------------------

  ==> Geometry <==

    Molecular point group: cs
    Full point group: Cs

    Geometry (in Angstrom), charge = 0, multiplicity = 1:

       Center              X                  Y                   Z               Mass       
    ------------   -----------------  -----------------  -----------------  -----------------
         N            0.593956145973     0.158856957167     0.000000000000    14.003074004430
         H            0.595560760834     1.214375298922     0.000000000000     1.007825032230
         O           -0.557516755951    -0.215591244725     0.000000000000    15.994914619570

  Running in cs symmetry.

  Rotational constants: A =     18.75561  B =      1.41028  C =      1.31165 [cm^-1]
  Rotational constants: A = 562278.93115  B =  42279.10236  C =  39322.35975 [MHz]
  Nuclear repulsion =   30.288113202601853

  Charge       = 0
  Multiplicity = 1
  Electrons    = 16
  Nalpha       = 8
  Nbeta        = 8

  ==> Algorithm <==

  SCF Algorithm Type is DF.
  DIIS enabled.
  MOM disabled.
  Fractional occupation disabled.
  Guess Type is SAD.
  Energy threshold   = 1.00e-08
  Density threshold  = 1.00e-08
  Integral threshold = 0.00e+00

  ==> Primary Basis <==

  Basis Set: AUG-CC-PV(T+D)Z
    Blend: AUG-CC-PV(T+D)Z
    Number of shells: 37
    Number of basis function: 115
    Number of Cartesian functions: 135
    Spherical Harmonics?: true
    Max angular momentum: 3

  ==> DFT Potential <==

   => Composite Functional: WB97M-V <= 

    wB97M-V Hyb-GGA Exchange-Correlation Functional

    N. Mardirossian and M. Head-Gordon, J. Chem. Phys. 144, 214110 (2016)

    Deriv               =              1
    GGA                 =           TRUE
    Meta                =           TRUE

    Exchange Hybrid     =           TRUE
    MP2 Hybrid          =          FALSE

   => Exchange-Correlation Functionals <=

    1.0000   wB97M-V exchange-correlation functional

   => Exact (HF) Exchange <=

    0.8500            HF,LR [omega = 0.3000]
    0.1500               HF 

   => VV10 Non-Local Parameters <=

    VV10 B              =     6.0000E+00
    VV10 C              =     1.0000E-02

   => Molecular Quadrature <=

    Radial Scheme          =       TREUTLER
    Pruning Scheme         =           FLAT
    Nuclear Scheme         =       TREUTLER

    BS radius alpha        =              1
    Pruning alpha          =              1
    Radial Points          =             75
    Spherical Points       =            302
    Total Points           =          67950
    Total Blocks           =            569
    Max Points             =            256
    Max Functions          =            115

   => Loading Basis Set <=

    Name: (AUG-CC-PV(T+D)Z AUX)
    Role: JKFIT
    Keyword: DF_BASIS_SCF
    atoms 1 entry N          line   224 file /work/zw18965/.conda/envs/p4env/share/psi4/basis/aug-cc-pvtz-jkfit.gbs 
    atoms 2 entry H          line    70 file /work/zw18965/.conda/envs/p4env/share/psi4/basis/aug-cc-pvtz-jkfit.gbs 
    atoms 3 entry O          line   286 file /work/zw18965/.conda/envs/p4env/share/psi4/basis/aug-cc-pvtz-jkfit.gbs 

  ==> Pre-Iterations <==

   -------------------------------------------------------
    Irrep   Nso     Nmo     Nalpha   Nbeta   Ndocc  Nsocc
   -------------------------------------------------------
     A'        76      76       0       0       0       0
     A"        39      39       0       0       0       0
   -------------------------------------------------------
    Total     115     115       8       8       8       0
   -------------------------------------------------------

  ==> Integral Setup <==

  ==> DiskDFJK: Density-Fitted J/K Matrices <==

    J tasked:                  Yes
    K tasked:                  Yes
    wK tasked:                 Yes
    Omega:               3.000E-01
    OpenMP threads:             24
    Integrals threads:          24
    Memory [MiB]:           102455
    Algorithm:                Core
    Integral Cache:           NONE
    Schwarz Cutoff:          1E-12
    Fitting Condition:       1E-10

   => Auxiliary Basis Set <=

  Basis Set: (AUG-CC-PV(T+D)Z AUX)
    Blend: AUG-CC-PVTZ-JKFIT
    Number of shells: 74
    Number of basis function: 254
    Number of Cartesian functions: 317
    Spherical Harmonics?: true
    Max angular momentum: 4

  Cached 100.0% of DFT collocation blocks in 0.529 [GiB].

  Minimum eigenvalue in the overlap matrix is 2.3408738527E-04.
  Using Symmetric Orthogonalization.

  SCF Guess: Superposition of Atomic Densities via on-the-fly atomic UHF.

  ==> Iterations <==

                           Total Energy        Delta E     RMS |[F,P]|

   @DF-RKS iter SAD:  -129.91601977399253   -1.29916e+02   0.00000e+00 
   @DF-RKS iter   1:  -130.45006563522122   -5.34046e-01   3.54364e-03 DIIS
   @DF-RKS iter   2:  -130.46797232697526   -1.79067e-02   3.04787e-03 DIIS
   @DF-RKS iter   3:  -130.48745266250114   -1.94803e-02   9.48000e-04 DIIS
   @DF-RKS iter   4:  -130.48956686033586   -2.11420e-03   2.14303e-04 DIIS
   @DF-RKS iter   5:  -130.48971401782936   -1.47157e-04   4.68579e-05 DIIS
   @DF-RKS iter   6:  -130.48972462200953   -1.06042e-05   6.46553e-06 DIIS
   @DF-RKS iter   7:  -130.48972522790976   -6.05900e-07   1.31374e-06 DIIS
   @DF-RKS iter   8:  -130.48972525363880   -2.57290e-08   2.41620e-07 DIIS
   @DF-RKS iter   9:  -130.48972525468318   -1.04438e-09   6.30973e-08 DIIS
   @DF-RKS iter  10:  -130.48972525474946   -6.62794e-11   1.35718e-08 DIIS
   @DF-RKS iter  11:  -130.48972525475315   -3.69482e-12   3.35298e-09 DIIS
  Energy and wave function converged.


  ==> Post-Iterations <==

    Orbital Energies [Eh]
    ---------------------

    Doubly Occupied:                                                      

       1Ap   -19.425223     2Ap   -14.640030     3Ap    -1.307450  
       4Ap    -0.855157     5Ap    -0.650178     1App   -0.571898  
       6Ap    -0.569734     7Ap    -0.358467  

    Virtual:                                                              

       2App   -0.016684     8Ap     0.012301     9Ap     0.067024  
      10Ap     0.090792     3App    0.094057    11Ap     0.130142  
      12Ap     0.147347    13Ap     0.167171     4App    0.170221  
      14Ap     0.208345     5App    0.225360    15Ap     0.263846  
      16Ap     0.305188    17Ap     0.347366    18Ap     0.417335  
      19Ap     0.444717     6App    0.471708     7App    0.501784  
      20Ap     0.531096    21Ap     0.556179    22Ap     0.617000  
       8App    0.638165    23Ap     0.652490     9App    0.676639  
      24Ap     0.699712    25Ap     0.743262    10App    0.751771  
      26Ap     0.765089    27Ap     0.857450    11App    0.866993  
      28Ap     0.907185    29Ap     0.927286    12App    0.958540  
      30Ap     0.964666    13App    1.066537    31Ap     1.081195  
      14App    1.186575    32Ap     1.227332    33Ap     1.262235  
      34Ap     1.348546    15App    1.444108    35Ap     1.467730  
      16App    1.520972    36Ap     1.541830    37Ap     1.597876  
      17App    1.631181    38Ap     1.765509    18App    1.776532  
      39Ap     1.824633    40Ap     1.892199    19App    1.943772  
      41Ap     1.958634    42Ap     1.991184    43Ap     2.023151  
      20App    2.071723    21App    2.156692    44Ap     2.175256  
      45Ap     2.313620    22App    2.332257    46Ap     2.368965  
      47Ap     2.484259    23App    2.513836    24App    2.633514  
      48Ap     2.659348    49Ap     2.856956    50Ap     3.060381  
      51Ap     3.198081    25App    3.458624    52Ap     3.754818  
      53Ap     3.788032    26App    3.791461    27App    3.828308  
      54Ap     3.897796    55Ap     4.032738    28App    4.178819  
      56Ap     4.222819    57Ap     4.381146    29App    4.434874  
      58Ap     4.575355    59Ap     4.630157    30App    4.720457  
      31App    4.777288    60Ap     4.796348    61Ap     4.908391  
      32App    4.924495    62Ap     5.056110    63Ap     5.199606  
      33App    5.306283    64Ap     5.392380    34App    5.505905  
      65Ap     5.544797    66Ap     5.910518    67Ap     6.155707  
      35App    6.159551    36App    6.412195    68Ap     6.427540  
      69Ap     6.544680    37App    6.688776    70Ap     6.724284  
      38App    6.869320    39App    7.066516    71Ap     7.075873  
      72Ap     7.207939    73Ap     7.327413    74Ap     7.562968  
      75Ap    13.994913    76Ap    14.495845  

    Final Occupation by Irrep:
             Ap   App 
    DOCC [     7,    1 ]

  @DF-RKS Final Energy:  -130.48972525475315

   => Energetics <=

    Nuclear Repulsion Energy =             30.2881132026018527
    One-Electron Energy =                -237.6854914254734013
    Two-Electron Energy =                  88.1968564537878592
    DFT Exchange-Correlation Energy =     -11.3561452095605766
    Empirical Dispersion Energy =           0.0000000000000000
    VV10 Nonlocal Energy =                  0.0669417238910967
    Total Energy =                       -130.4897252547531536

Computation Completed


Properties will be evaluated at   0.000000,   0.000000,   0.000000 [a0]

Properties computed using the SCF density matrix

  Nuclear Dipole Moment: [e a0]
     X:     0.5539      Y:     1.1369      Z:     0.0000

  Electronic Dipole Moment: [e a0]
     X:    -0.3697      Y:    -0.4823      Z:     0.0000

  Dipole Moment: [e a0]
     X:     0.1842      Y:     0.6546      Z:     0.0000     Total:     0.6800

  Dipole Moment: [D]
     X:     0.4682      Y:     1.6638      Z:     0.0000     Total:     1.7285


*** tstop() called on bp1-compute00139.data.bp.acrc.priv at Tue Apr 27 17:31:43 2021
Module time:
	user time   =      81.14 seconds =       1.35 minutes
	system time =       2.24 seconds =       0.04 minutes
	total time  =          3 seconds =       0.05 minutes
Total time:
	user time   =     583.58 seconds =       9.73 minutes
	system time =      21.20 seconds =       0.35 minutes
	total time  =         25 seconds =       0.42 minutes

         ----------------------------------------------------------
                                   FINDIF
                     R. A. King and Jonathon Misiewicz
         ---------------------------------------------------------

  Computing gradient from energies.
    Using 3-point formula.
    Energy without displacement: -130.4897355859
[...]
     X:     0.1719      Y:     0.6422      Z:     0.0000     Total:     0.6648

  Dipole Moment: [D]
     X:     0.4369      Y:     1.6323      Z:     0.0000     Total:     1.6898


*** tstop() called on bp1-compute00139.data.bp.acrc.priv at Tue Apr 27 17:33:47 2021
Module time:
	user time   =      93.57 seconds =       1.56 minutes
	system time =       2.13 seconds =       0.04 minutes
	total time  =          4 seconds =       0.07 minutes
Total time:
	user time   =    3439.71 seconds =      57.33 minutes
	system time =      95.07 seconds =       1.58 minutes
	total time  =        149 seconds =       2.48 minutes

  //>>>>>>>>>>>>>>>>>>>>>>>>>>>>>>>>>>>//
  //   Loading displacement 13 of 13   //
  //<<<<<<<<<<<<<<<<<<<<<<<<<<<<<<<<<<<//

*** tstart() called on bp1-compute00139.data.bp.acrc.priv
*** at Tue Apr 27 17:33:47 2021

   => Loading Basis Set <=

    Name: AUG-CC-PV(T+D)Z
    Role: ORBITAL
    Keyword: BASIS
    atoms 1 entry N          line   301 file /work/zw18965/.conda/envs/p4env/share/psi4/basis/aug-cc-pv_tpd_z.gbs 
    atoms 2 entry H          line    56 file /work/zw18965/.conda/envs/p4env/share/psi4/basis/aug-cc-pv_tpd_z.gbs 
    atoms 3 entry O          line   347 file /work/zw18965/.conda/envs/p4env/share/psi4/basis/aug-cc-pv_tpd_z.gbs 


         ---------------------------------------------------------
                                   SCF
               by Justin Turney, Rob Parrish, Andy Simmonett
                          and Daniel G. A. Smith
                              RKS Reference
                       24 Threads, 137329 MiB Core
         ---------------------------------------------------------

  ==> Geometry <==

    Molecular point group: cs
    Full point group: Cs

    Geometry (in Angstrom), charge = 0, multiplicity = 1:

       Center              X                  Y                   Z               Mass       
    ------------   -----------------  -----------------  -----------------  -----------------
         N            0.586152660154     0.156171815155     0.000000000000    14.003074004430
         H            0.590307811765     1.211829922218     0.000000000000     1.007825032230
         O           -0.550354051698    -0.213080100551     0.000000000000    15.994914619570

  Running in cs symmetry.

  Rotational constants: A =     18.80184  B =      1.44599  C =      1.34273 [cm^-1]
  Rotational constants: A = 563664.93019  B =  43349.78752  C =  40253.97448 [MHz]
  Nuclear repulsion =   30.626823839785473

  Charge       = 0
  Multiplicity = 1
  Electrons    = 16
  Nalpha       = 8
  Nbeta        = 8

  ==> Algorithm <==

  SCF Algorithm Type is DF.
  DIIS enabled.
  MOM disabled.
  Fractional occupation disabled.
  Guess Type is SAD.
  Energy threshold   = 1.00e-10
  Density threshold  = 1.00e-10
  Integral threshold = 0.00e+00

  ==> Primary Basis <==

  Basis Set: AUG-CC-PV(T+D)Z
    Blend: AUG-CC-PV(T+D)Z
    Number of shells: 37
    Number of basis function: 115
    Number of Cartesian functions: 135
    Spherical Harmonics?: true
    Max angular momentum: 3

  ==> DFT Potential <==

   => Composite Functional: WB97M-V <= 

    wB97M-V Hyb-GGA Exchange-Correlation Functional

    N. Mardirossian and M. Head-Gordon, J. Chem. Phys. 144, 214110 (2016)

    Deriv               =              1
    GGA                 =           TRUE
    Meta                =           TRUE

    Exchange Hybrid     =           TRUE
    MP2 Hybrid          =          FALSE

   => Exchange-Correlation Functionals <=

    1.0000   wB97M-V exchange-correlation functional

   => Exact (HF) Exchange <=

    0.8500            HF,LR [omega = 0.3000]
    0.1500               HF 

   => VV10 Non-Local Parameters <=

    VV10 B              =     6.0000E+00
    VV10 C              =     1.0000E-02

   => Molecular Quadrature <=

    Radial Scheme          =       TREUTLER
    Pruning Scheme         =           FLAT
    Nuclear Scheme         =       TREUTLER

    BS radius alpha        =              1
    Pruning alpha          =              1
    Radial Points          =             75
    Spherical Points       =            302
    Total Points           =          67950
    Total Blocks           =            574
    Max Points             =            256
    Max Functions          =            115

   => Loading Basis Set <=

    Name: (AUG-CC-PV(T+D)Z AUX)
    Role: JKFIT
    Keyword: DF_BASIS_SCF
    atoms 1 entry N          line   224 file /work/zw18965/.conda/envs/p4env/share/psi4/basis/aug-cc-pvtz-jkfit.gbs 
    atoms 2 entry H          line    70 file /work/zw18965/.conda/envs/p4env/share/psi4/basis/aug-cc-pvtz-jkfit.gbs 
    atoms 3 entry O          line   286 file /work/zw18965/.conda/envs/p4env/share/psi4/basis/aug-cc-pvtz-jkfit.gbs 

  ==> Pre-Iterations <==

   -------------------------------------------------------
    Irrep   Nso     Nmo     Nalpha   Nbeta   Ndocc  Nsocc
   -------------------------------------------------------
     A'        76      76       0       0       0       0
     A"        39      39       0       0       0       0
   -------------------------------------------------------
    Total     115     115       8       8       8       0
   -------------------------------------------------------

  ==> Integral Setup <==

  ==> DiskDFJK: Density-Fitted J/K Matrices <==

    J tasked:                  Yes
    K tasked:                  Yes
    wK tasked:                 Yes
    Omega:               3.000E-01
    OpenMP threads:             24
    Integrals threads:          24
    Memory [MiB]:           102455
    Algorithm:                Core
    Integral Cache:           NONE
    Schwarz Cutoff:          1E-12
    Fitting Condition:       1E-10

   => Auxiliary Basis Set <=

  Basis Set: (AUG-CC-PV(T+D)Z AUX)
    Blend: AUG-CC-PVTZ-JKFIT
    Number of shells: 74
    Number of basis function: 254
    Number of Cartesian functions: 317
    Spherical Harmonics?: true
    Max angular momentum: 4

  Cached 100.0% of DFT collocation blocks in 0.528 [GiB].

  Minimum eigenvalue in the overlap matrix is 2.2851365581E-04.
  Using Symmetric Orthogonalization.

  SCF Guess: Superposition of Atomic Densities via on-the-fly atomic UHF.

  ==> Iterations <==

                           Total Energy        Delta E     RMS |[F,P]|

   @DF-RKS iter SAD:  -129.95179150493149   -1.29952e+02   0.00000e+00 
   @DF-RKS iter   1:  -130.44965041720951   -4.97859e-01   3.58308e-03 DIIS
   @DF-RKS iter   2:  -130.46866922254958   -1.90188e-02   3.02605e-03 DIIS
   @DF-RKS iter   3:  -130.48799435290047   -1.93251e-02   9.06449e-04 DIIS
   @DF-RKS iter   4:  -130.48990560603741   -1.91125e-03   2.16952e-04 DIIS
   @DF-RKS iter   5:  -130.49005543954314   -1.49834e-04   4.68901e-05 DIIS
   @DF-RKS iter   6:  -130.49006609717401   -1.06576e-05   6.61049e-06 DIIS
   @DF-RKS iter   7:  -130.49006673130506   -6.34131e-07   1.34147e-06 DIIS
   @DF-RKS iter   8:  -130.49006675787149   -2.65664e-08   2.46871e-07 DIIS
   @DF-RKS iter   9:  -130.49006675897587   -1.10438e-09   6.64151e-08 DIIS
   @DF-RKS iter  10:  -130.49006675905133   -7.54596e-11   1.46312e-08 DIIS
   @DF-RKS iter  11:  -130.49006675905568   -4.34852e-12   3.65434e-09 DIIS
   @DF-RKS iter  12:  -130.49006675905588   -1.98952e-13   9.30543e-10 DIIS
   @DF-RKS iter  13:  -130.49006675905574    1.42109e-13   2.18200e-10 DIIS
   @DF-RKS iter  14:  -130.49006675905611   -3.69482e-13   8.40746e-11 DIIS
  Energy and wave function converged.


  ==> Post-Iterations <==

    Orbital Energies [Eh]
    ---------------------

    Doubly Occupied:                                                      

       1Ap   -19.424204     2Ap   -14.638225     3Ap    -1.318982  
       4Ap    -0.852119     5Ap    -0.653778     1App   -0.578093  
       6Ap    -0.573458     7Ap    -0.354683  

    Virtual:                                                              

       2App   -0.011962     8Ap     0.012523     9Ap     0.067172  
      10Ap     0.090699     3App    0.093871    11Ap     0.130380  
      12Ap     0.147256    13Ap     0.167034     4App    0.170265  
      14Ap     0.208740     5App    0.225689    15Ap     0.265261  
      16Ap     0.305915    17Ap     0.347796    18Ap     0.424455  
      19Ap     0.444445     6App    0.471586     7App    0.501941  
      20Ap     0.539746    21Ap     0.558264    22Ap     0.617195  
       8App    0.635347    23Ap     0.651382     9App    0.677437  
      24Ap     0.698675    25Ap     0.744158    10App    0.752812  
      26Ap     0.767567    27Ap     0.858301    11App    0.867837  
      28Ap     0.907576    29Ap     0.929203    12App    0.960083  
      30Ap     0.967025    13App    1.070809    31Ap     1.080361  
      14App    1.186541    32Ap     1.229755    33Ap     1.264322  
      34Ap     1.350399    15App    1.444997    35Ap     1.469831  
      16App    1.521595    36Ap     1.544159    37Ap     1.598515  
      17App    1.631328    38Ap     1.763636    18App    1.780577  
      39Ap     1.828744    40Ap     1.887470    19App    1.945540  
      41Ap     1.955723    42Ap     1.991372    43Ap     2.025437  
      20App    2.074129    21App    2.160641    44Ap     2.181596  
      45Ap     2.312475    22App    2.338857    46Ap     2.374681  
      47Ap     2.499716    23App    2.525551    24App    2.632453  
      48Ap     2.678502    49Ap     2.860441    50Ap     3.060647  
      51Ap     3.203255    25App    3.460046    52Ap     3.768964  
      26App    3.794233    53Ap     3.802544    27App    3.830884  
      54Ap     3.907767    55Ap     4.036690    28App    4.199978  
      56Ap     4.226795    57Ap     4.390261    29App    4.436453  
      58Ap     4.577838    59Ap     4.636382    30App    4.717813  
      31App    4.776864    60Ap     4.814157    61Ap     4.909798  
      32App    4.927098    62Ap     5.065994    63Ap     5.174331  
      33App    5.331401    64Ap     5.401134    34App    5.504965  
      65Ap     5.556648    66Ap     5.921143    67Ap     6.157740  
      35App    6.160643    36App    6.426312    68Ap     6.452099  
      69Ap     6.568198    37App    6.695241    70Ap     6.729989  
      38App    6.908260    39App    7.074594    71Ap     7.117191  
      72Ap     7.214347    73Ap     7.357149    74Ap     7.565337  
      75Ap    14.152515    76Ap    14.874016  

    Final Occupation by Irrep:
             Ap   App 
    DOCC [     7,    1 ]

  @DF-RKS Final Energy:  -130.49006675905611

   => Energetics <=

    Nuclear Repulsion Energy =             30.6268238397854731
    One-Electron Energy =                -238.3261443439075720
    Two-Electron Energy =                  88.5098714252331717
    DFT Exchange-Correlation Energy =     -11.3675553294630909
    Empirical Dispersion Energy =           0.0000000000000000
    VV10 Nonlocal Energy =                  0.0669376492959178
    Total Energy =                       -130.4900667590561341

Computation Completed


Properties will be evaluated at   0.000000,   0.000000,   0.000000 [a0]

Properties computed using the SCF density matrix

  Nuclear Dipole Moment: [e a0]
     X:     0.5490      Y:     1.1346      Z:     0.0000

  Electronic Dipole Moment: [e a0]
     X:    -0.3798      Y:    -0.4937      Z:     0.0000

  Dipole Moment: [e a0]
     X:     0.1692      Y:     0.6409      Z:     0.0000     Total:     0.6629

  Dipole Moment: [D]
     X:     0.4301      Y:     1.6290      Z:     0.0000     Total:     1.6848


*** tstop() called on bp1-compute00139.data.bp.acrc.priv at Tue Apr 27 17:33:51 2021
Module time:
	user time   =      93.03 seconds =       1.55 minutes
	system time =       2.16 seconds =       0.04 minutes
	total time  =          4 seconds =       0.07 minutes
Total time:
	user time   =    3532.93 seconds =      58.88 minutes
	system time =      97.24 seconds =       1.62 minutes
	total time  =        153 seconds =       2.55 minutes

         ----------------------------------------------------------
                                   FINDIF
                     R. A. King and Jonathon Misiewicz
         ---------------------------------------------------------

  Computing second-derivative from energies using projected, 
  symmetry-adapted, cartesian coordinates.

  13 energies passed in, including the reference geometry.
    Using 3-point formula.
    Energy without displacement: -130.4900699974
    Check energies below for precision!
    0: -1        :      -130.4900688178
    0: 1         :      -130.4900684657
    1: -1        :      -130.4900672013
    1: 1         :      -130.4900676258
    2: -1        :      -130.4900666599
    2: 1         :      -130.4900678311
    0: 1, 1: 1   :      -130.4900662700
    0: -1, 1: -1 :      -130.4900661986
    0: 1, 2: 1   :      -130.4900658578
    0: -1, 2: -1 :      -130.4900650334
    1: 1, 2: 1   :      -130.4900683550
    1: -1, 2: -1 :      -130.4900667591

-------------------------------------------------------------


  ==> Harmonic Vibrational Analysis <==

  non-mass-weighted Hessian:       Symmetric? True   Hermitian? True   Lin Dep Dim?  6 (0)
  projection of translations (True) and rotations (True) removed 6 degrees of freedom (6)
  total projector:                 Symmetric? True   Hermitian? True   Lin Dep Dim?  6 (6)
  mass-weighted Hessian:           Symmetric? True   Hermitian? True   Lin Dep Dim?  6 (0)
  pre-proj  low-frequency mode:    0.0000i [cm^-1]
  pre-proj  low-frequency mode:    0.0000i [cm^-1]
  pre-proj  low-frequency mode:    0.0000  [cm^-1]
  pre-proj  low-frequency mode:    0.0000  [cm^-1]
  pre-proj  low-frequency mode:    0.0000  [cm^-1]
  pre-proj  low-frequency mode:    0.0000  [cm^-1]
  pre-proj  all modes:['0.0000i' '0.0000i' '0.0000' '0.0000' '0.0000' '0.0000' '1573.4976'
 '1710.7249' '2956.8030']
  projected mass-weighted Hessian: Symmetric? True   Hermitian? True   Lin Dep Dim?  6 (6)
  post-proj low-frequency mode:    0.0000i [cm^-1] (TR)
  post-proj low-frequency mode:    0.0000  [cm^-1] (TR)
  post-proj low-frequency mode:    0.0000  [cm^-1] (TR)
  post-proj low-frequency mode:    0.0000  [cm^-1] (TR)
  post-proj low-frequency mode:    0.0000  [cm^-1] (TR)
  post-proj low-frequency mode:    0.0000  [cm^-1] (TR)
  post-proj  all modes:['0.0000i' '0.0000' '0.0000' '0.0000' '0.0000' '0.0000' '1573.4976'
 '1710.7249' '2956.8030']

  Vibration                       7                   8                   9           
  Freq [cm^-1]                1573.4976           1710.7249           2956.8030       
  Irrep                           Ap                  Ap                  Ap          
  Reduced mass [u]              1.2140              9.6871              1.0755        
  Force const [mDyne/A]         1.7709             16.7035              5.5398        
  Turning point v=0 [a0]        0.2511              0.0852              0.1946        
  RMS dev v=0 [a0 u^1/2]        0.1956              0.1876              0.1427        
  Char temp [K]               2263.9128           2461.3522           4254.1812       
  ----------------------------------------------------------------------------------
      1   N               -0.10  0.05  0.00    0.53  0.23  0.00    0.02 -0.07 -0.00   
      2   H                0.99  0.09 -0.00    0.61  0.01 -0.00   -0.02  1.00  0.00   
      3   O                0.02 -0.05 -0.00   -0.50 -0.20 -0.00   -0.01 -0.00  0.00   

  ==> Thermochemistry Components <==

  Entropy, S
    Electronic S            0.000 [cal/(mol K)]        0.000 [J/(mol K)]       0.00000000 [mEh/K] (multiplicity = 1)
    Translational S        36.227 [cal/(mol K)]      151.576 [J/(mol K)]       0.05773217 [mEh/K] (mol. weight = 31.0058 [u], P = 101325.00 [Pa])
    Rotational S           16.442 [cal/(mol K)]       68.795 [J/(mol K)]       0.02620246 [mEh/K] (symmetry no. = 1)
    Vibrational S           0.013 [cal/(mol K)]        0.056 [J/(mol K)]       0.00002137 [mEh/K]
  Total S                  52.683 [cal/(mol K)]      220.426 [J/(mol K)]       0.08395600 [mEh/K]
  Correction S              0.000 [cal/(mol K)]        0.000 [J/(mol K)]       0.00000000 [mEh/K]

  Constant volume heat capacity, Cv
    Electronic Cv           0.000 [cal/(mol K)]        0.000 [J/(mol K)]       0.00000000 [mEh/K]
    Translational Cv        2.981 [cal/(mol K)]       12.472 [J/(mol K)]       0.00475022 [mEh/K]
    Rotational Cv           2.981 [cal/(mol K)]       12.472 [J/(mol K)]       0.00475022 [mEh/K]
    Vibrational Cv          0.093 [cal/(mol K)]        0.390 [J/(mol K)]       0.00014861 [mEh/K]
  Total Cv                  6.055 [cal/(mol K)]       25.334 [J/(mol K)]       0.00964904 [mEh/K]
  Correction Cv             0.000 [cal/(mol K)]        0.000 [J/(mol K)]       0.00000000 [mEh/K]

  Constant pressure heat capacity, Cp
    Electronic Cp           0.000 [cal/(mol K)]        0.000 [J/(mol K)]       0.00000000 [mEh/K]
    Translational Cp        4.968 [cal/(mol K)]       20.786 [J/(mol K)]       0.00791703 [mEh/K]
    Rotational Cp           2.981 [cal/(mol K)]       12.472 [J/(mol K)]       0.00475022 [mEh/K]
    Vibrational Cp          0.093 [cal/(mol K)]        0.390 [J/(mol K)]       0.00014861 [mEh/K]
  Total Cp                  8.042 [cal/(mol K)]       33.648 [J/(mol K)]       0.01281585 [mEh/K]
  Correction Cp             0.000 [cal/(mol K)]        0.000 [J/(mol K)]       0.00000000 [mEh/K]

  ==> Thermochemistry Energy Analysis <==

  Raw electronic energy, E0
  Total E0, Electronic energy at well bottom at 0 [K]                 -130.49007000 [Eh]

  Zero-point energy, ZPE_vib = Sum_i nu_i / 2
    Electronic ZPE          0.000 [kcal/mol]        0.000 [kJ/mol]       0.00000000 [Eh]
    Translational ZPE       0.000 [kcal/mol]        0.000 [kJ/mol]       0.00000000 [Eh]
    Rotational ZPE          0.000 [kcal/mol]        0.000 [kJ/mol]       0.00000000 [Eh]
    Vibrational ZPE         8.922 [kcal/mol]       37.330 [kJ/mol]       0.01421810 [Eh]        3120.513 [cm^-1]
  Correction ZPE            8.922 [kcal/mol]       37.330 [kJ/mol]       0.01421810 [Eh]        3120.513 [cm^-1]
  Total ZPE, Electronic energy at 0 [K]                               -130.47585190 [Eh]

  Thermal Energy, E (includes ZPE)
    Electronic E            0.000 [kcal/mol]        0.000 [kJ/mol]       0.00000000 [Eh]
    Translational E         0.889 [kcal/mol]        3.718 [kJ/mol]       0.00141628 [Eh]
    Rotational E            0.889 [kcal/mol]        3.718 [kJ/mol]       0.00141628 [Eh]
    Vibrational E           8.926 [kcal/mol]       37.344 [kJ/mol]       0.01422375 [Eh]
  Correction E             10.703 [kcal/mol]       44.781 [kJ/mol]       0.01705630 [Eh]
  Total E, Electronic energy at  298.15 [K]                           -130.47301369 [Eh]

  Enthalpy, H_trans = E_trans + k_B * T
    Electronic H            0.000 [kcal/mol]        0.000 [kJ/mol]       0.00000000 [Eh]
    Translational H         1.481 [kcal/mol]        6.197 [kJ/mol]       0.00236046 [Eh]
    Rotational H            0.889 [kcal/mol]        3.718 [kJ/mol]       0.00141628 [Eh]
    Vibrational H           8.926 [kcal/mol]       37.344 [kJ/mol]       0.01422375 [Eh]
  Correction H             11.295 [kcal/mol]       47.260 [kJ/mol]       0.01800049 [Eh]
  Total H, Enthalpy at  298.15 [K]                                    -130.47206951 [Eh]

  Gibbs free energy, G = H - T * S
    Electronic G            0.000 [kcal/mol]        0.000 [kJ/mol]       0.00000000 [Eh]
    Translational G        -9.320 [kcal/mol]      -38.995 [kJ/mol]      -0.01485238 [Eh]
    Rotational G           -4.014 [kcal/mol]      -16.793 [kJ/mol]      -0.00639599 [Eh]
    Vibrational G           8.922 [kcal/mol]       37.328 [kJ/mol]       0.01421738 [Eh]
  Correction G             -4.412 [kcal/mol]      -18.460 [kJ/mol]      -0.00703099 [Eh]
  Total G, Free enthalpy at  298.15 [K]                               -130.49710099 [Eh]

    Psi4 stopped on: Tuesday, 27 April 2021 05:33PM
    Psi4 wall time for execution: 0:02:33.53

*** Psi4 exiting successfully. Buy a developer a beer!
