
    -----------------------------------------------------------------------
          Psi4: An Open-Source Ab Initio Electronic Structure Package
                               Psi4 1.3.2 release

                         Git: Rev {HEAD} ecbda83 


    R. M. Parrish, L. A. Burns, D. G. A. Smith, A. C. Simmonett,
    A. E. DePrince III, E. G. Hohenstein, U. Bozkaya, A. Yu. Sokolov,
    R. Di Remigio, R. M. Richard, J. F. Gonthier, A. M. James,
    H. R. McAlexander, A. Kumar, M. Saitow, X. Wang, B. P. Pritchard,
    P. Verma, H. F. Schaefer III, K. Patkowski, R. A. King, E. F. Valeev,
    F. A. Evangelista, J. M. Turney, T. D. Crawford, and C. D. Sherrill,
    J. Chem. Theory Comput. 13(7) pp 3185--3197 (2017).
    (doi: 10.1021/acs.jctc.7b00174)


                         Additional Contributions by
    P. Kraus, H. Kruse, M. H. Lechner, M. C. Schieber, R. A. Shaw,
    A. Alenaizan, R. Galvelis, Z. L. Glick, S. Lehtola, and J. P. Misiewicz

    -----------------------------------------------------------------------


    Psi4 started on: Tuesday, 27 April 2021 05:32PM

    Process ID: 187493
    Host:       bp1-compute00090.data.bp.acrc.priv
    PSIDATADIR: /work/zw18965/.conda/envs/p4env/share/psi4
    Memory:     500.0 MiB
    Threads:    24
    
  ==> Input File <==

--------------------------------------------------------------------------
memory 144 GB

molecule {
0 1
N 0.0000000000 0.0000000000 0.0000000000
H 0.0000000000 0.0000000000 1.0124000000
H 0.9722998620 0.0000000000 -0.2821112163
H -0.3756003142 0.8968229622 -0.2821112163
}

set dynamic_level 1
set basis aug-cc-pV(T+d)Z
 
optimize("wB97M-V")
frequencies("wB97M-V")
--------------------------------------------------------------------------

  Memory set to 134.110 GiB by Python driver.
gradient() will perform gradient computation by finite difference of analytic energies.

         ----------------------------------------------------------
                                   FINDIF
                     R. A. King and Jonathon Misiewicz
         ---------------------------------------------------------

  Using finite-differences of energies to determine gradients.
    Generating geometries for use with 3-point formula.
    Displacement size will be 5.00e-03.
    Number of atoms is 4.
    Number of symmetric SALCs is 4.
    Translations projected? 1. Rotations projected? 1.
    Number of geometries (including reference) is 9.

  //>>>>>>>>>>>>>>>>>>>>>>>>>>>>>>>>>>>//
  //    Loading displacement 1 of 9    //
  //<<<<<<<<<<<<<<<<<<<<<<<<<<<<<<<<<<<//

*** tstart() called on bp1-compute00090.data.bp.acrc.priv
*** at Tue Apr 27 17:32:57 2021

   => Loading Basis Set <=

    Name: AUG-CC-PV(T+D)Z
    Role: ORBITAL
    Keyword: BASIS
    atoms 1   entry N          line   301 file /work/zw18965/.conda/envs/p4env/share/psi4/basis/aug-cc-pv_tpd_z.gbs 
    atoms 2-4 entry H          line    56 file /work/zw18965/.conda/envs/p4env/share/psi4/basis/aug-cc-pv_tpd_z.gbs 


         ---------------------------------------------------------
                                   SCF
               by Justin Turney, Rob Parrish, Andy Simmonett
                          and Daniel G. A. Smith
                              RKS Reference
                       24 Threads, 137329 MiB Core
         ---------------------------------------------------------

  ==> Geometry <==

    Molecular point group: cs
    Full point group: C3v

    Geometry (in Angstrom), charge = 0, multiplicity = 1:

       Center              X                  Y                   Z               Mass       
    ------------   -----------------  -----------------  -----------------  -----------------
         N           -0.044172539916    -0.053084193715     0.000000000000    14.003074004430
         H            0.563834188921    -0.053084193715     0.809494643400     1.007825032230
         H            0.563834188921    -0.053084193715    -0.809494643400     1.007825032230
         H           -0.513919636117     0.843738768485     0.000000000000     1.007825032230

  Running in cs symmetry.

  Rotational constants: A =      9.93436  B =      9.93436  C =      6.38151 [cm^-1]
  Rotational constants: A = 297824.55791  B = 297824.55789  C = 191312.83542 [MHz]
  Nuclear repulsion =   11.957181014327382

  Charge       = 0
  Multiplicity = 1
  Electrons    = 10
  Nalpha       = 5
  Nbeta        = 5

  ==> Algorithm <==

  SCF Algorithm Type is DF.
  DIIS enabled.
  MOM disabled.
  Fractional occupation disabled.
  Guess Type is SAD.
  Energy threshold   = 1.00e-08
  Density threshold  = 1.00e-08
  Integral threshold = 0.00e+00

  ==> Primary Basis <==

  Basis Set: AUG-CC-PV(T+D)Z
    Blend: AUG-CC-PV(T+D)Z
    Number of shells: 41
    Number of basis function: 115
    Number of Cartesian functions: 130
    Spherical Harmonics?: true
    Max angular momentum: 3

  ==> DFT Potential <==

   => Composite Functional: WB97M-V <= 

    wB97M-V Hyb-GGA Exchange-Correlation Functional

    N. Mardirossian and M. Head-Gordon, J. Chem. Phys. 144, 214110 (2016)

    Deriv               =              1
    GGA                 =           TRUE
    Meta                =           TRUE

    Exchange Hybrid     =           TRUE
    MP2 Hybrid          =          FALSE

   => Exchange-Correlation Functionals <=

    1.0000   wB97M-V exchange-correlation functional

   => Exact (HF) Exchange <=

    0.8500            HF,LR [omega = 0.3000]
    0.1500               HF 

   => VV10 Non-Local Parameters <=

    VV10 B              =     6.0000E+00
    VV10 C              =     1.0000E-02

   => Molecular Quadrature <=

    Radial Scheme          =       TREUTLER
    Pruning Scheme         =           FLAT
    Nuclear Scheme         =       TREUTLER

    BS radius alpha        =              1
    Pruning alpha          =              1
    Radial Points          =             75
    Spherical Points       =            302
    Total Points           =          90600
    Total Blocks           =            749
    Max Points             =            256
    Max Functions          =            115

   => Loading Basis Set <=

    Name: (AUG-CC-PV(T+D)Z AUX)
    Role: JKFIT
    Keyword: DF_BASIS_SCF
    atoms 1   entry N          line   224 file /work/zw18965/.conda/envs/p4env/share/psi4/basis/aug-cc-pvtz-jkfit.gbs 
    atoms 2-4 entry H          line    70 file /work/zw18965/.conda/envs/p4env/share/psi4/basis/aug-cc-pvtz-jkfit.gbs 

  ==> Pre-Iterations <==

   -------------------------------------------------------
    Irrep   Nso     Nmo     Nalpha   Nbeta   Ndocc  Nsocc
   -------------------------------------------------------
     A'        69      69       0       0       0       0
     A"        46      46       0       0       0       0
   -------------------------------------------------------
    Total     115     115       5       5       5       0
   -------------------------------------------------------

  ==> Integral Setup <==

  ==> DiskDFJK: Density-Fitted J/K Matrices <==

    J tasked:                  Yes
    K tasked:                  Yes
    wK tasked:                 Yes
    Omega:               3.000E-01
    OpenMP threads:             24
    Integrals threads:          24
    Memory [MiB]:           102254
    Algorithm:                Core
    Integral Cache:           NONE
    Schwarz Cutoff:          1E-12
    Fitting Condition:       1E-10

   => Auxiliary Basis Set <=

  Basis Set: (AUG-CC-PV(T+D)Z AUX)
    Blend: AUG-CC-PVTZ-JKFIT
    Number of shells: 72
    Number of basis function: 242
    Number of Cartesian functions: 296
    Spherical Harmonics?: true
    Max angular momentum: 4

  Cached 100.0% of DFT collocation blocks in 0.725 [GiB].

  Minimum eigenvalue in the overlap matrix is 2.6982236366E-04.
  Using Symmetric Orthogonalization.

  SCF Guess: Superposition of Atomic Densities via on-the-fly atomic UHF.

  ==> Iterations <==

                           Total Energy        Delta E     RMS |[F,P]|

   @DF-RKS iter SAD:   -56.04338040411372   -5.60434e+01   0.00000e+00 
   @DF-RKS iter   1:   -56.37276464304026   -3.29384e-01   7.97203e-03 DIIS
   @DF-RKS iter   2:   -56.38476581569886   -1.20012e-02   7.64361e-03 DIIS
   @DF-RKS iter   3:   -56.55070223861547   -1.65936e-01   2.51623e-04 DIIS
   @DF-RKS iter   4:   -56.55107601465360   -3.73776e-04   5.92369e-05 DIIS
   @DF-RKS iter   5:   -56.55109534043529   -1.93258e-05   7.41142e-06 DIIS
   @DF-RKS iter   6:   -56.55109604562383   -7.05189e-07   2.42709e-06 DIIS
   @DF-RKS iter   7:   -56.55109611206853   -6.64447e-08   5.95767e-07 DIIS
   @DF-RKS iter   8:   -56.55109611958337   -7.51484e-09   1.32609e-07 DIIS
   @DF-RKS iter   9:   -56.55109611994592   -3.62554e-10   1.73527e-08 DIIS
   @DF-RKS iter  10:   -56.55109611995054   -4.61853e-12   1.49227e-09 DIIS
  Energy and wave function converged.


  ==> Post-Iterations <==

    Orbital Energies [Eh]
    ---------------------

    Doubly Occupied:                                                      

       1Ap   -14.483574     2Ap    -0.977326     3Ap    -0.565775  
       1App   -0.565775     4Ap    -0.377031  

    Virtual:                                                              

       5Ap     0.010826     6Ap     0.037250     2App    0.037250  
       7Ap     0.093998     8Ap     0.127038     9Ap     0.139369  
       3App    0.139370     4App    0.184541    10Ap     0.184541  
      11Ap     0.201537     5App    0.201538    12Ap     0.219793  
      13Ap     0.318292     6App    0.320906    14Ap     0.335628  
       7App    0.335630    15Ap     0.379262    16Ap     0.401527  
       8App    0.401527    17Ap     0.440044     9App    0.440044  
      18Ap     0.511169    19Ap     0.544165    10App    0.544165  
      20Ap     0.667658    11App    0.701545    21Ap     0.701546  
      22Ap     0.734410    23Ap     0.790182    12App    0.840128  
      24Ap     0.841184    13App    0.841186    25Ap     0.896582  
      14App    0.896582    26Ap     0.950646    15App    0.961884  
      27Ap     0.961884    16App    1.009793    17App    1.021361  
      28Ap     1.021362    29Ap     1.063899    18App    1.063901  
      30Ap     1.100337    31Ap     1.136775    19App    1.136776  
      32Ap     1.214519    20App    1.250197    33Ap     1.250197  
      34Ap     1.484796    35Ap     1.622164    21App    1.622165  
      22App    1.632823    36Ap     1.707788    23App    1.719195  
      37Ap     1.719196    38Ap     1.852937    39Ap     1.869718  
      24App    1.869718    40Ap     1.906084    25App    1.906092  
      41Ap     2.092303    26App    2.189613    42Ap     2.202921  
      27App    2.202925    43Ap     2.258720    28App    2.258721  
      44Ap     2.279106    45Ap     3.115018    46Ap     3.286777  
      29App    3.286778    47Ap     3.740158    30App    3.740162  
      48Ap     3.753477    49Ap     3.906282    31App    3.906286  
      32App    3.929352    33App    3.975961    50Ap     3.975964  
      34App    3.999100    51Ap     4.075471    35App    4.094082  
      52Ap     4.094083    53Ap     4.219917    36App    4.261745  
      54Ap     4.261746    55Ap     4.416645    37App    4.468115  
      56Ap     4.468118    57Ap     4.704445    38App    4.704454  
      39App    4.757967    58Ap     4.764688    40App    4.764690  
      59Ap     4.787390    60Ap     4.948295    41App    5.349905  
      61Ap     5.349905    62Ap     5.402119    63Ap     5.568119  
      42App    5.568125    64Ap     5.693452    65Ap     6.013739  
      43App    6.013744    44App    6.071191    66Ap     6.251416  
      45App    6.567818    67Ap     6.567823    68Ap     7.295185  
      46App    7.295185    69Ap    16.618899  

    Final Occupation by Irrep:
             Ap   App 
    DOCC [     4,    1 ]

  @DF-RKS Final Energy:   -56.55109611995054

   => Energetics <=

    Nuclear Repulsion Energy =             11.9571810143273822
    One-Electron Energy =                 -99.6381219121674917
    Two-Electron Energy =                  36.6459687995229118
    DFT Exchange-Correlation Energy =      -5.5579515803159811
    Empirical Dispersion Energy =           0.0000000000000000
    VV10 Nonlocal Energy =                  0.0418275586826388
    Total Energy =                        -56.5510961199505431

Computation Completed


Properties will be evaluated at   0.000000,   0.000000,   0.000000 [a0]

Properties computed using the SCF density matrix

  Nuclear Dipole Moment: [e a0]
     X:     0.5755      Y:     0.6916      Z:     0.0000

  Electronic Dipole Moment: [e a0]
     X:    -0.1827      Y:    -0.2195      Z:     0.0000

  Dipole Moment: [e a0]
     X:     0.3928      Y:     0.4721      Z:     0.0000     Total:     0.6142

  Dipole Moment: [D]
     X:     0.9985      Y:     1.2000      Z:     0.0000     Total:     1.5611


*** tstop() called on bp1-compute00090.data.bp.acrc.priv at Tue Apr 27 17:33:02 2021
Module time:
	user time   =     102.11 seconds =       1.70 minutes
	system time =       5.44 seconds =       0.09 minutes
	total time  =          5 seconds =       0.08 minutes
Total time:
	user time   =     102.11 seconds =       1.70 minutes
	system time =       5.44 seconds =       0.09 minutes
	total time  =          5 seconds =       0.08 minutes

  //>>>>>>>>>>>>>>>>>>>>>>>>>>>>>>>>>>>//
  //    Loading displacement 2 of 9    //
  //<<<<<<<<<<<<<<<<<<<<<<<<<<<<<<<<<<<//

*** tstart() called on bp1-compute00090.data.bp.acrc.priv
*** at Tue Apr 27 17:33:02 2021

   => Loading Basis Set <=

    Name: AUG-CC-PV(T+D)Z
    Role: ORBITAL
    Keyword: BASIS
    atoms 1   entry N          line   301 file /work/zw18965/.conda/envs/p4env/share/psi4/basis/aug-cc-pv_tpd_z.gbs 
    atoms 2-4 entry H          line    56 file /work/zw18965/.conda/envs/p4env/share/psi4/basis/aug-cc-pv_tpd_z.gbs 


         ---------------------------------------------------------
                                   SCF
               by Justin Turney, Rob Parrish, Andy Simmonett
                          and Daniel G. A. Smith
                              RKS Reference
                       24 Threads, 137329 MiB Core
         ---------------------------------------------------------

  ==> Geometry <==

    Molecular point group: cs
    Full point group: Cs

    Geometry (in Angstrom), charge = 0, multiplicity = 1:

       Center              X                  Y                   Z               Mass       
    ------------   -----------------  -----------------  -----------------  -----------------
         N           -0.044450300625    -0.053119022022     0.000000000000    14.003074004430
         H            0.565356326971    -0.052639632675     0.809494643400     1.007825032230
         H            0.565356326971    -0.052639632675    -0.809494643400     1.007825032230
         H           -0.513104607633     0.843333563103     0.000000000000     1.007825032230

  Running in cs symmetry.

  Rotational constants: A =      9.92134  B =      9.92130  C =      6.38149 [cm^-1]
  Rotational constants: A = 297434.35468  B = 297433.04179  C = 191312.29224 [MHz]
  Nuclear repulsion =   11.952387408110855

  Charge       = 0
  Multiplicity = 1
  Electrons    = 10
  Nalpha       = 5
  Nbeta        = 5

  ==> Algorithm <==

  SCF Algorithm Type is DF.
  DIIS enabled.
  MOM disabled.
  Fractional occupation disabled.
  Guess Type is SAD.
  Energy threshold   = 1.00e-08
  Density threshold  = 1.00e-08
  Integral threshold = 0.00e+00

  ==> Primary Basis <==

  Basis Set: AUG-CC-PV(T+D)Z
    Blend: AUG-CC-PV(T+D)Z
    Number of shells: 41
    Number of basis function: 115
    Number of Cartesian functions: 130
    Spherical Harmonics?: true
    Max angular momentum: 3

  ==> DFT Potential <==

   => Composite Functional: WB97M-V <= 

    wB97M-V Hyb-GGA Exchange-Correlation Functional

    N. Mardirossian and M. Head-Gordon, J. Chem. Phys. 144, 214110 (2016)

    Deriv               =              1
    GGA                 =           TRUE
    Meta                =           TRUE

    Exchange Hybrid     =           TRUE
    MP2 Hybrid          =          FALSE

   => Exchange-Correlation Functionals <=

    1.0000   wB97M-V exchange-correlation functional

   => Exact (HF) Exchange <=

    0.8500            HF,LR [omega = 0.3000]
    0.1500               HF 

   => VV10 Non-Local Parameters <=

    VV10 B              =     6.0000E+00
    VV10 C              =     1.0000E-02

   => Molecular Quadrature <=

    Radial Scheme          =       TREUTLER
    Pruning Scheme         =           FLAT
    Nuclear Scheme         =       TREUTLER

    BS radius alpha        =              1
    Pruning alpha          =              1
    Radial Points          =             75
    Spherical Points       =            302
    Total Points           =          90600
    Total Blocks           =            747
    Max Points             =            256
    Max Functions          =            115

   => Loading Basis Set <=

    Name: (AUG-CC-PV(T+D)Z AUX)
    Role: JKFIT
    Keyword: DF_BASIS_SCF
    atoms 1   entry N          line   224 file /work/zw18965/.conda/envs/p4env/share/psi4/basis/aug-cc-pvtz-jkfit.gbs 
    atoms 2-4 entry H          line    70 file /work/zw18965/.conda/envs/p4env/share/psi4/basis/aug-cc-pvtz-jkfit.gbs 

  ==> Pre-Iterations <==

   -------------------------------------------------------
    Irrep   Nso     Nmo     Nalpha   Nbeta   Ndocc  Nsocc
   -------------------------------------------------------
     A'        69      69       0       0       0       0
     A"        46      46       0       0       0       0
   -------------------------------------------------------
    Total     115     115       5       5       5       0
   -------------------------------------------------------

  ==> Integral Setup <==

  ==> DiskDFJK: Density-Fitted J/K Matrices <==

    J tasked:                  Yes
    K tasked:                  Yes
    wK tasked:                 Yes
    Omega:               3.000E-01
    OpenMP threads:             24
    Integrals threads:          24
    Memory [MiB]:           102254
    Algorithm:                Core
    Integral Cache:           NONE
    Schwarz Cutoff:          1E-12
    Fitting Condition:       1E-10

   => Auxiliary Basis Set <=

  Basis Set: (AUG-CC-PV(T+D)Z AUX)
    Blend: AUG-CC-PVTZ-JKFIT
    Number of shells: 72
    Number of basis function: 242
    Number of Cartesian functions: 296
    Spherical Harmonics?: true
    Max angular momentum: 4

  Cached 100.0% of DFT collocation blocks in 0.725 [GiB].

  Minimum eigenvalue in the overlap matrix is 2.6996900443E-04.
  Using Symmetric Orthogonalization.

  SCF Guess: Superposition of Atomic Densities via on-the-fly atomic UHF.

  ==> Iterations <==

                           Total Energy        Delta E     RMS |[F,P]|

   @DF-RKS iter SAD:   -56.04306858788845   -5.60431e+01   0.00000e+00 
   @DF-RKS iter   1:   -56.37281399055706   -3.29745e-01   7.96913e-03 DIIS
   @DF-RKS iter   2:   -56.38468824219505   -1.18743e-02   7.64416e-03 DIIS
   @DF-RKS iter   3:   -56.55069476986147   -1.66007e-01   2.51512e-04 DIIS
   @DF-RKS iter   4:   -56.55106859109524   -3.73821e-04   5.92825e-05 DIIS
   @DF-RKS iter   5:   -56.55108794741782   -1.93563e-05   7.42899e-06 DIIS
   @DF-RKS iter   6:   -56.55108865445234   -7.07035e-07   2.43135e-06 DIIS
   @DF-RKS iter   7:   -56.55108872112503   -6.66727e-08   5.96467e-07 DIIS
   @DF-RKS iter   8:   -56.55108872864859   -7.52356e-09   1.32598e-07 DIIS
   @DF-RKS iter   9:   -56.55108872901111   -3.62519e-10   1.73790e-08 DIIS
   @DF-RKS iter  10:   -56.55108872901565   -4.53326e-12   1.52653e-09 DIIS
  Energy and wave function converged.


  ==> Post-Iterations <==

    Orbital Energies [Eh]
    ---------------------

    Doubly Occupied:                                                      

       1Ap   -14.483744     2Ap    -0.977246     3Ap    -0.565920  
       1App   -0.565175     4Ap    -0.377187  

    Virtual:                                                              

       5Ap     0.010808     6Ap     0.037243     2App    0.037256  
       7Ap     0.093996     8Ap     0.127016     3App    0.139363  
       9Ap     0.139384     4App    0.184416    10Ap     0.184589  
      11Ap     0.201440     5App    0.201532    12Ap     0.219750  
      13Ap     0.318220     6App    0.320911     7App    0.335609  
      14Ap     0.335623    15Ap     0.379190     8App    0.401122  
      16Ap     0.401628    17Ap     0.440070     9App    0.440121  
      18Ap     0.511291    19Ap     0.543963    10App    0.544145  
      20Ap     0.667637    11App    0.701058    21Ap     0.701617  
      22Ap     0.734398    23Ap     0.789767    12App    0.840164  
      24Ap     0.841161    13App    0.841286    14App    0.896134  
      25Ap     0.896385    26Ap     0.950567    15App    0.961872  
      27Ap     0.962032    16App    1.009763    28Ap     1.021235  
      17App    1.021323    18App    1.063870    29Ap     1.063898  
      30Ap     1.100277    31Ap     1.136628    19App    1.136901  
      32Ap     1.214834    33Ap     1.249532    20App    1.250105  
      34Ap     1.484779    21App    1.622029    35Ap     1.622126  
      22App    1.632879    36Ap     1.707656    23App    1.718993  
      37Ap     1.719016    38Ap     1.852711    24App    1.868610  
      39Ap     1.870147    25App    1.905760    40Ap     1.906035  
      41Ap     2.092920    26App    2.188740    42Ap     2.202473  
      27App    2.203375    28App    2.258466    43Ap     2.258791  
      44Ap     2.278403    45Ap     3.113581    29App    3.285531  
      46Ap     3.286270    47Ap     3.740164    30App    3.740234  
      48Ap     3.753663    49Ap     3.905305    31App    3.905537  
      32App    3.928888    33App    3.975573    50Ap     3.975652  
      34App    3.999081    51Ap     4.074215    35App    4.093200  
      52Ap     4.093860    53Ap     4.220044    36App    4.260477  
      54Ap     4.261625    55Ap     4.415804    37App    4.466813  
      56Ap     4.466987    38App    4.704185    57Ap     4.704563  
      39App    4.757855    40App    4.763543    58Ap     4.764217  
      59Ap     4.788663    60Ap     4.948589    41App    5.350303  
      61Ap     5.351515    62Ap     5.400025    63Ap     5.566172  
      42App    5.566898    64Ap     5.690491    43App    6.011811  
      65Ap     6.016502    44App    6.067514    66Ap     6.248669  
      45App    6.564706    67Ap     6.567573    46App    7.293272  
      68Ap     7.295176    69Ap    16.603778  

    Final Occupation by Irrep:
             Ap   App 
    DOCC [     4,    1 ]

  @DF-RKS Final Energy:   -56.55108872901565

   => Energetics <=

    Nuclear Repulsion Energy =             11.9523874081108552
    One-Electron Energy =                 -99.6291838681372752
    Two-Electron Energy =                  36.6414103326540612
    DFT Exchange-Correlation Energy =      -5.5575295569743188
    Empirical Dispersion Energy =           0.0000000000000000
    VV10 Nonlocal Energy =                  0.0418269553310349
    Total Energy =                        -56.5510887290156461

Computation Completed


Properties will be evaluated at   0.000000,   0.000000,   0.000000 [a0]

Properties computed using the SCF density matrix

  Nuclear Dipole Moment: [e a0]
     X:     0.5791      Y:     0.6921      Z:     0.0000

  Electronic Dipole Moment: [e a0]
     X:    -0.1852      Y:    -0.2194      Z:     0.0000

  Dipole Moment: [e a0]
     X:     0.3939      Y:     0.4727      Z:     0.0000     Total:     0.6153

  Dipole Moment: [D]
     X:     1.0012      Y:     1.2014      Z:     0.0000     Total:     1.5639


*** tstop() called on bp1-compute00090.data.bp.acrc.priv at Tue Apr 27 17:33:06 2021
Module time:
	user time   =      99.15 seconds =       1.65 minutes
	system time =       4.09 seconds =       0.07 minutes
	total time  =          4 seconds =       0.07 minutes
Total time:
	user time   =     201.41 seconds =       3.36 minutes
	system time =       9.53 seconds =       0.16 minutes
	total time  =          9 seconds =       0.15 minutes

  //>>>>>>>>>>>>>>>>>>>>>>>>>>>>>>>>>>>//
  //    Loading displacement 3 of 9    //
  //<<<<<<<<<<<<<<<<<<<<<<<<<<<<<<<<<<<//

*** tstart() called on bp1-compute00090.data.bp.acrc.priv
*** at Tue Apr 27 17:33:06 2021

   => Loading Basis Set <=

    Name: AUG-CC-PV(T+D)Z
    Role: ORBITAL
    Keyword: BASIS
    atoms 1   entry N          line   301 file /work/zw18965/.conda/envs/p4env/share/psi4/basis/aug-cc-pv_tpd_z.gbs 
    atoms 2-4 entry H          line    56 file /work/zw18965/.conda/envs/p4env/share/psi4/basis/aug-cc-pv_tpd_z.gbs 


         ---------------------------------------------------------
                                   SCF
               by Justin Turney, Rob Parrish, Andy Simmonett
                          and Daniel G. A. Smith
                              RKS Reference
                       24 Threads, 137329 MiB Core
         ---------------------------------------------------------

  ==> Geometry <==

    Molecular point group: cs
    Full point group: Cs

    Geometry (in Angstrom), charge = 0, multiplicity = 1:

       Center              X                  Y                   Z               Mass       
    ------------   -----------------  -----------------  -----------------  -----------------
         N           -0.043894779207    -0.053049365408     0.000000000000    14.003074004430
         H            0.562312050870    -0.053528754755     0.809494643400     1.007825032230
         H            0.562312050870    -0.053528754755    -0.809494643400     1.007825032230
         H           -0.514734664601     0.844143973867     0.000000000000     1.007825032230

  Running in cs symmetry.

  Rotational constants: A =      9.94741  B =      9.94737  C =      6.38149 [cm^-1]
  Rotational constants: A = 298215.95345  B = 298214.64224  C = 191312.29578 [MHz]
  Nuclear repulsion =   11.961977288575349

  Charge       = 0
  Multiplicity = 1
  Electrons    = 10
  Nalpha       = 5
  Nbeta        = 5

  ==> Algorithm <==

  SCF Algorithm Type is DF.
  DIIS enabled.
  MOM disabled.
  Fractional occupation disabled.
  Guess Type is SAD.
  Energy threshold   = 1.00e-08
  Density threshold  = 1.00e-08
  Integral threshold = 0.00e+00

  ==> Primary Basis <==

  Basis Set: AUG-CC-PV(T+D)Z
    Blend: AUG-CC-PV(T+D)Z
    Number of shells: 41
    Number of basis function: 115
    Number of Cartesian functions: 130
    Spherical Harmonics?: true
    Max angular momentum: 3

  ==> DFT Potential <==

   => Composite Functional: WB97M-V <= 

    wB97M-V Hyb-GGA Exchange-Correlation Functional

    N. Mardirossian and M. Head-Gordon, J. Chem. Phys. 144, 214110 (2016)

    Deriv               =              1
    GGA                 =           TRUE
    Meta                =           TRUE

    Exchange Hybrid     =           TRUE
    MP2 Hybrid          =          FALSE

   => Exchange-Correlation Functionals <=

    1.0000   wB97M-V exchange-correlation functional

   => Exact (HF) Exchange <=

    0.8500            HF,LR [omega = 0.3000]
    0.1500               HF 

   => VV10 Non-Local Parameters <=

    VV10 B              =     6.0000E+00
    VV10 C              =     1.0000E-02

   => Molecular Quadrature <=

    Radial Scheme          =       TREUTLER
    Pruning Scheme         =           FLAT
    Nuclear Scheme         =       TREUTLER

    BS radius alpha        =              1
    Pruning alpha          =              1
    Radial Points          =             75
    Spherical Points       =            302
    Total Points           =          90600
    Total Blocks           =            746
    Max Points             =            256
    Max Functions          =            115

   => Loading Basis Set <=

    Name: (AUG-CC-PV(T+D)Z AUX)
    Role: JKFIT
    Keyword: DF_BASIS_SCF
    atoms 1   entry N          line   224 file /work/zw18965/.conda/envs/p4env/share/psi4/basis/aug-cc-pvtz-jkfit.gbs 
    atoms 2-4 entry H          line    70 file /work/zw18965/.conda/envs/p4env/share/psi4/basis/aug-cc-pvtz-jkfit.gbs 

  ==> Pre-Iterations <==

   -------------------------------------------------------
    Irrep   Nso     Nmo     Nalpha   Nbeta   Ndocc  Nsocc
   -------------------------------------------------------
     A'        69      69       0       0       0       0
     A"        46      46       0       0       0       0
   -------------------------------------------------------
    Total     115     115       5       5       5       0
   -------------------------------------------------------

  ==> Integral Setup <==

  ==> DiskDFJK: Density-Fitted J/K Matrices <==

    J tasked:                  Yes
    K tasked:                  Yes
    wK tasked:                 Yes
    Omega:               3.000E-01
    OpenMP threads:             24
    Integrals threads:          24
    Memory [MiB]:           102254
    Algorithm:                Core
    Integral Cache:           NONE
    Schwarz Cutoff:          1E-12
    Fitting Condition:       1E-10

   => Auxiliary Basis Set <=

  Basis Set: (AUG-CC-PV(T+D)Z AUX)
    Blend: AUG-CC-PVTZ-JKFIT
    Number of shells: 72
    Number of basis function: 242
    Number of Cartesian functions: 296
    Spherical Harmonics?: true
    Max angular momentum: 4

  Cached 100.0% of DFT collocation blocks in 0.725 [GiB].

  Minimum eigenvalue in the overlap matrix is 2.6967205704E-04.
  Using Symmetric Orthogonalization.

  SCF Guess: Superposition of Atomic Densities via on-the-fly atomic UHF.

  ==> Iterations <==

                           Total Energy        Delta E     RMS |[F,P]|

   @DF-RKS iter SAD:   -56.04368703286632   -5.60437e+01   0.00000e+00 
   @DF-RKS iter   1:   -56.37270735835666   -3.29020e-01   7.97498e-03 DIIS
   @DF-RKS iter   2:   -56.38483387732406   -1.21265e-02   7.64314e-03 DIIS
   @DF-RKS iter   3:   -56.55070425645597   -1.65870e-01   2.51737e-04 DIIS
   @DF-RKS iter   4:   -56.55107799777010   -3.73741e-04   5.91926e-05 DIIS
   @DF-RKS iter   5:   -56.55109729383084   -1.92961e-05   7.39434e-06 DIIS
   @DF-RKS iter   6:   -56.55109799720704   -7.03376e-07   2.42281e-06 DIIS
   @DF-RKS iter   7:   -56.55109806342583   -6.62188e-08   5.95070e-07 DIIS
   @DF-RKS iter   8:   -56.55109807093073   -7.50490e-09   1.32628e-07 DIIS
   @DF-RKS iter   9:   -56.55109807129719   -3.66462e-10   1.73462e-08 DIIS
   @DF-RKS iter  10:   -56.55109807130184   -4.65405e-12   1.52228e-09 DIIS
  Energy and wave function converged.


  ==> Post-Iterations <==

    Orbital Energies [Eh]
    ---------------------

    Doubly Occupied:                                                      

       1Ap   -14.483403     2Ap    -0.977405     1App   -0.566376  
       3Ap    -0.565629     4Ap    -0.376875  

    Virtual:                                                              

       5Ap     0.010843     2App    0.037243     6Ap     0.037256  
       7Ap     0.094000     8Ap     0.127060     9Ap     0.139353  
       3App    0.139376    10Ap     0.184493     4App    0.184665  
       5App    0.201545    11Ap     0.201636    12Ap     0.219837  
      13Ap     0.318362     6App    0.320902    14Ap     0.335633  
       7App    0.335650    15Ap     0.379331    16Ap     0.401430  
       8App    0.401930     9App    0.439970    17Ap     0.440018  
      18Ap     0.511045    10App    0.544185    19Ap     0.544363  
      20Ap     0.667678    21Ap     0.701476    11App    0.702032  
      22Ap     0.734427    23Ap     0.790598    12App    0.840090  
      13App    0.841086    24Ap     0.841208    25Ap     0.896778  
      14App    0.897033    26Ap     0.950722    27Ap     0.961740  
      15App    0.961895    16App    1.009821    17App    1.021398  
      28Ap     1.021490    29Ap     1.063900    18App    1.063935  
      30Ap     1.100400    19App    1.136652    31Ap     1.136923  
      32Ap     1.214202    20App    1.250289    33Ap     1.250857  
      34Ap     1.484815    35Ap     1.622202    21App    1.622291  
      22App    1.632762    36Ap     1.707910    37Ap     1.719387  
      23App    1.719405    38Ap     1.853158    39Ap     1.869281  
      24App    1.870820    40Ap     1.906133    25App    1.906436  
      41Ap     2.091662    26App    2.190426    27App    2.202534  
      42Ap     2.203415    43Ap     2.258628    28App    2.258984  
      44Ap     2.279843    45Ap     3.116435    46Ap     3.287297  
      29App    3.288015    30App    3.740093    47Ap     3.740137  
      48Ap     3.753305    31App    3.907032    49Ap     3.907253  
      32App    3.929799    50Ap     3.976274    33App    3.976332  
      34App    3.999135    51Ap     4.076719    52Ap     4.094298  
      35App    4.094954    53Ap     4.219781    54Ap     4.261855  
      36App    4.263003    55Ap     4.417445    56Ap     4.469291  
      37App    4.469448    57Ap     4.704332    38App    4.704732  
      39App    4.758064    58Ap     4.765130    40App    4.765856  
      59Ap     4.786151    60Ap     4.948027    61Ap     5.348243  
      41App    5.349483    62Ap     5.404224    42App    5.569314  
      63Ap     5.570123    64Ap     5.696397    65Ap     6.010990  
      43App    6.015684    44App    6.074933    66Ap     6.254120  
      67Ap     6.568158    45App    6.570917    68Ap     7.295185  
      46App    7.297067    69Ap    16.634103  

    Final Occupation by Irrep:
             Ap   App 
    DOCC [     4,    1 ]

  @DF-RKS Final Energy:   -56.55109807130184

   => Energetics <=

    Nuclear Repulsion Energy =             11.9619772885753495
    One-Electron Energy =                 -99.6470525830063139
    Two-Electron Energy =                  36.6505227354176242
    DFT Exchange-Correlation Energy =      -5.5583736738830805
    Empirical Dispersion Energy =           0.0000000000000000
    VV10 Nonlocal Energy =                  0.0418281615945719
    Total Energy =                        -56.5510980713018441

Computation Completed


Properties will be evaluated at   0.000000,   0.000000,   0.000000 [a0]

Properties computed using the SCF density matrix

  Nuclear Dipole Moment: [e a0]
     X:     0.5719      Y:     0.6912      Z:     0.0000

  Electronic Dipole Moment: [e a0]
     X:    -0.1801      Y:    -0.2196      Z:     0.0000

  Dipole Moment: [e a0]
     X:     0.3918      Y:     0.4715      Z:     0.0000     Total:     0.6130

  Dipole Moment: [D]
     X:     0.9958      Y:     1.1985      Z:     0.0000     Total:     1.5582


*** tstop() called on bp1-compute00090.data.bp.acrc.priv at Tue Apr 27 17:33:10 2021
Module time:
	user time   =      94.20 seconds =       1.57 minutes
	system time =       3.59 seconds =       0.06 minutes
	total time  =          4 seconds =       0.07 minutes
Total time:
	user time   =     295.77 seconds =       4.93 minutes
	system time =      13.13 seconds =       0.22 minutes
	total time  =         13 seconds =       0.22 minutes

  //>>>>>>>>>>>>>>>>>>>>>>>>>>>>>>>>>>>//
  //    Loading displacement 4 of 9    //
  //<<<<<<<<<<<<<<<<<<<<<<<<<<<<<<<<<<<//

*** tstart() called on bp1-compute00090.data.bp.acrc.priv
*** at Tue Apr 27 17:33:10 2021

   => Loading Basis Set <=

    Name: AUG-CC-PV(T+D)Z
    Role: ORBITAL
    Keyword: BASIS
    atoms 1   entry N          line   301 file /work/zw18965/.conda/envs/p4env/share/psi4/basis/aug-cc-pv_tpd_z.gbs 
    atoms 2-4 entry H          line    56 file /work/zw18965/.conda/envs/p4env/share/psi4/basis/aug-cc-pv_tpd_z.gbs 


         ---------------------------------------------------------
                                   SCF
               by Justin Turney, Rob Parrish, Andy Simmonett
                          and Daniel G. A. Smith
                              RKS Reference
                       24 Threads, 137329 MiB Core
         ---------------------------------------------------------

  ==> Geometry <==

    Molecular point group: cs
    Full point group: Cs

    Geometry (in Angstrom), charge = 0, multiplicity = 1:

       Center              X                  Y                   Z               Mass       
    ------------   -----------------  -----------------  -----------------  -----------------
         N           -0.044172539916    -0.053366175490     0.000000000000    14.003074004430
         H            0.563611878713    -0.052045369706     0.809494643400     1.007825032230
         H            0.563611878713    -0.052045369706    -0.809494643400     1.007825032230
         H           -0.513475015702     0.845579074011     0.000000000000     1.007825032230

  Running in cs symmetry.

  Rotational constants: A =      9.92055  B =      9.92052  C =      6.38149 [cm^-1]
  Rotational constants: A = 297410.72974  B = 297409.56176  C = 191312.35212 [MHz]
  Nuclear repulsion =   11.952097444212807

  Charge       = 0
  Multiplicity = 1
  Electrons    = 10
  Nalpha       = 5
  Nbeta        = 5

  ==> Algorithm <==

  SCF Algorithm Type is DF.
  DIIS enabled.
  MOM disabled.
  Fractional occupation disabled.
  Guess Type is SAD.
  Energy threshold   = 1.00e-08
  Density threshold  = 1.00e-08
  Integral threshold = 0.00e+00

  ==> Primary Basis <==

  Basis Set: AUG-CC-PV(T+D)Z
    Blend: AUG-CC-PV(T+D)Z
    Number of shells: 41
    Number of basis function: 115
    Number of Cartesian functions: 130
    Spherical Harmonics?: true
    Max angular momentum: 3

  ==> DFT Potential <==

   => Composite Functional: WB97M-V <= 

    wB97M-V Hyb-GGA Exchange-Correlation Functional

    N. Mardirossian and M. Head-Gordon, J. Chem. Phys. 144, 214110 (2016)

    Deriv               =              1
    GGA                 =           TRUE
    Meta                =           TRUE

    Exchange Hybrid     =           TRUE
    MP2 Hybrid          =          FALSE

   => Exchange-Correlation Functionals <=

    1.0000   wB97M-V exchange-correlation functional

   => Exact (HF) Exchange <=

    0.8500            HF,LR [omega = 0.3000]
    0.1500               HF 

   => VV10 Non-Local Parameters <=

    VV10 B              =     6.0000E+00
    VV10 C              =     1.0000E-02

   => Molecular Quadrature <=

    Radial Scheme          =       TREUTLER
    Pruning Scheme         =           FLAT
    Nuclear Scheme         =       TREUTLER

    BS radius alpha        =              1
    Pruning alpha          =              1
    Radial Points          =             75
    Spherical Points       =            302
    Total Points           =          90600
    Total Blocks           =            745
    Max Points             =            256
    Max Functions          =            115

   => Loading Basis Set <=

    Name: (AUG-CC-PV(T+D)Z AUX)
    Role: JKFIT
    Keyword: DF_BASIS_SCF
    atoms 1   entry N          line   224 file /work/zw18965/.conda/envs/p4env/share/psi4/basis/aug-cc-pvtz-jkfit.gbs 
    atoms 2-4 entry H          line    70 file /work/zw18965/.conda/envs/p4env/share/psi4/basis/aug-cc-pvtz-jkfit.gbs 

  ==> Pre-Iterations <==

   -------------------------------------------------------
    Irrep   Nso     Nmo     Nalpha   Nbeta   Ndocc  Nsocc
   -------------------------------------------------------
     A'        69      69       0       0       0       0
     A"        46      46       0       0       0       0
   -------------------------------------------------------
    Total     115     115       5       5       5       0
   -------------------------------------------------------

  ==> Integral Setup <==

  ==> DiskDFJK: Density-Fitted J/K Matrices <==

    J tasked:                  Yes
    K tasked:                  Yes
    wK tasked:                 Yes
    Omega:               3.000E-01
    OpenMP threads:             24
    Integrals threads:          24
    Memory [MiB]:           102254
    Algorithm:                Core
    Integral Cache:           NONE
    Schwarz Cutoff:          1E-12
    Fitting Condition:       1E-10

   => Auxiliary Basis Set <=

  Basis Set: (AUG-CC-PV(T+D)Z AUX)
    Blend: AUG-CC-PVTZ-JKFIT
    Number of shells: 72
    Number of basis function: 242
    Number of Cartesian functions: 296
    Spherical Harmonics?: true
    Max angular momentum: 4

  Cached 100.0% of DFT collocation blocks in 0.725 [GiB].

  Minimum eigenvalue in the overlap matrix is 2.6997827585E-04.
  Using Symmetric Orthogonalization.

  SCF Guess: Superposition of Atomic Densities via on-the-fly atomic UHF.

  ==> Iterations <==

                           Total Energy        Delta E     RMS |[F,P]|

   @DF-RKS iter SAD:   -56.04305004771966   -5.60431e+01   0.00000e+00 
   @DF-RKS iter   1:   -56.37281746761911   -3.29767e-01   7.96895e-03 DIIS
   @DF-RKS iter   2:   -56.38468411862522   -1.18667e-02   7.64419e-03 DIIS
   @DF-RKS iter   3:   -56.55069464736678   -1.66011e-01   2.51505e-04 DIIS
   @DF-RKS iter   4:   -56.55106847060090   -3.73823e-04   5.92852e-05 DIIS
   @DF-RKS iter   5:   -56.55108782870850   -1.93581e-05   7.43002e-06 DIIS
   @DF-RKS iter   6:   -56.55108853585114   -7.07143e-07   2.43160e-06 DIIS
   @DF-RKS iter   7:   -56.55108860253736   -6.66862e-08   5.96507e-07 DIIS
   @DF-RKS iter   8:   -56.55108861006202   -7.52466e-09   1.32597e-07 DIIS
   @DF-RKS iter   9:   -56.55108861042844   -3.66420e-10   1.73789e-08 DIIS
   @DF-RKS iter  10:   -56.55108861043297   -4.52616e-12   1.52248e-09 DIIS
  Energy and wave function converged.


  ==> Post-Iterations <==

    Orbital Energies [Eh]
    ---------------------

    Doubly Occupied:                                                      

       1Ap   -14.483754     2Ap    -0.977242     1App   -0.565886  
       3Ap    -0.565182     4Ap    -0.377197  

    Virtual:                                                              

       5Ap     0.010807     2App    0.037244     6Ap     0.037256  
       7Ap     0.093996     8Ap     0.127015     9Ap     0.139364  
       3App    0.139385    10Ap     0.184419     4App    0.184582  
       5App    0.201440    11Ap     0.201526    12Ap     0.219747  
      13Ap     0.318216     6App    0.320911    14Ap     0.335607  
       7App    0.335623    15Ap     0.379186    16Ap     0.401129  
       8App    0.401603     9App    0.440074    17Ap     0.440122  
      18Ap     0.511299    10App    0.543963    19Ap     0.544133  
      20Ap     0.667636    21Ap     0.701061    11App    0.701589  
      22Ap     0.734397    23Ap     0.789742    12App    0.840167  
      13App    0.841169    24Ap     0.841282    25Ap     0.896122  
      14App    0.896359    26Ap     0.950562    27Ap     0.961883  
      15App    0.962029    16App    1.009762    17App    1.021233  
      28Ap     1.021315    29Ap     1.063867    18App    1.063898  
      30Ap     1.100273    19App    1.136636    31Ap     1.136892  
      32Ap     1.214853    20App    1.249527    33Ap     1.250066  
      34Ap     1.484778    35Ap     1.622025    21App    1.622119  
      22App    1.632883    36Ap     1.707649    37Ap     1.718985  
      23App    1.719000    38Ap     1.852697    39Ap     1.868630  
      24App    1.870087    40Ap     1.905750    25App    1.906022  
      41Ap     2.092960    26App    2.188691    27App    2.202504  
      42Ap     2.203338    43Ap     2.258458    28App    2.258789  
      44Ap     2.278358    45Ap     3.113497    46Ap     3.285504  
      29App    3.286192    30App    3.740179    47Ap     3.740226  
      48Ap     3.753673    31App    3.905264    49Ap     3.905474  
      32App    3.928861    50Ap     3.975559    33App    3.975625  
      34App    3.999079    51Ap     4.074139    52Ap     4.093186  
      35App    4.093809    53Ap     4.220052    54Ap     4.260463  
      36App    4.261557    55Ap     4.415756    56Ap     4.466764  
      37App    4.466885    57Ap     4.704186    38App    4.704551  
      39App    4.757851    58Ap     4.763489    40App    4.764172  
      59Ap     4.788737    60Ap     4.948605    61Ap     5.350395  
      41App    5.351546    62Ap     5.399900    42App    5.566077  
      63Ap     5.566801    64Ap     5.690314    65Ap     6.011976  
      43App    6.016386    44App    6.067289    66Ap     6.248508  
      67Ap     6.564739    45App    6.567327    68Ap     7.293265  
      46App    7.295069    69Ap    16.602856  

    Final Occupation by Irrep:
             Ap   App 
    DOCC [     4,    1 ]

  @DF-RKS Final Energy:   -56.55108861043297

   => Energetics <=

    Nuclear Repulsion Energy =             11.9520974442128072
    One-Electron Energy =                 -99.6286439900145240
    Two-Electron Energy =                  36.6411350382199927
    DFT Exchange-Correlation Energy =      -5.5575040036828582
    Empirical Dispersion Energy =           0.0000000000000000
    VV10 Nonlocal Energy =                  0.0418269008316079
    Total Energy =                        -56.5510886104329700

Computation Completed


Properties will be evaluated at   0.000000,   0.000000,   0.000000 [a0]

Properties computed using the SCF density matrix

  Nuclear Dipole Moment: [e a0]
     X:     0.5755      Y:     0.6953      Z:     0.0000

  Electronic Dipole Moment: [e a0]
     X:    -0.1822      Y:    -0.2220      Z:     0.0000

  Dipole Moment: [e a0]
     X:     0.3933      Y:     0.4733      Z:     0.0000     Total:     0.6154

  Dipole Moment: [D]
     X:     0.9996      Y:     1.2030      Z:     0.0000     Total:     1.5641


*** tstop() called on bp1-compute00090.data.bp.acrc.priv at Tue Apr 27 17:33:14 2021
Module time:
	user time   =      92.39 seconds =       1.54 minutes
	system time =       2.66 seconds =       0.04 minutes
	total time  =          4 seconds =       0.07 minutes
Total time:
	user time   =     388.31 seconds =       6.47 minutes
	system time =      15.80 seconds =       0.26 minutes
	total time  =         17 seconds =       0.28 minutes

  //>>>>>>>>>>>>>>>>>>>>>>>>>>>>>>>>>>>//
  //    Loading displacement 5 of 9    //
  //<<<<<<<<<<<<<<<<<<<<<<<<<<<<<<<<<<<//

*** tstart() called on bp1-compute00090.data.bp.acrc.priv
*** at Tue Apr 27 17:33:14 2021

   => Loading Basis Set <=

    Name: AUG-CC-PV(T+D)Z
    Role: ORBITAL
    Keyword: BASIS
    atoms 1   entry N          line   301 file /work/zw18965/.conda/envs/p4env/share/psi4/basis/aug-cc-pv_tpd_z.gbs 
    atoms 2-4 entry H          line    56 file /work/zw18965/.conda/envs/p4env/share/psi4/basis/aug-cc-pv_tpd_z.gbs 


         ---------------------------------------------------------
                                   SCF
               by Justin Turney, Rob Parrish, Andy Simmonett
                          and Daniel G. A. Smith
                              RKS Reference
                       24 Threads, 137329 MiB Core
         ---------------------------------------------------------

  ==> Geometry <==

    Molecular point group: cs
    Full point group: Cs

    Geometry (in Angstrom), charge = 0, multiplicity = 1:

       Center              X                  Y                   Z               Mass       
    ------------   -----------------  -----------------  -----------------  -----------------
         N           -0.044172539916    -0.052802211941     0.000000000000    14.003074004430
         H            0.564056499128    -0.054123017724     0.809494643400     1.007825032230
         H            0.564056499128    -0.054123017724    -0.809494643400     1.007825032230
         H           -0.514364256532     0.841898462958     0.000000000000     1.007825032230

  Running in cs symmetry.

  Rotational constants: A =      9.94820  B =      9.94816  C =      6.38149 [cm^-1]
  Rotational constants: A = 298239.41596  B = 298238.24957  C = 191312.35545 [MHz]
  Nuclear repulsion =   11.962265102565624

  Charge       = 0
  Multiplicity = 1
  Electrons    = 10
  Nalpha       = 5
  Nbeta        = 5

  ==> Algorithm <==

  SCF Algorithm Type is DF.
  DIIS enabled.
  MOM disabled.
  Fractional occupation disabled.
  Guess Type is SAD.
  Energy threshold   = 1.00e-08
  Density threshold  = 1.00e-08
  Integral threshold = 0.00e+00

  ==> Primary Basis <==

  Basis Set: AUG-CC-PV(T+D)Z
    Blend: AUG-CC-PV(T+D)Z
    Number of shells: 41
    Number of basis function: 115
    Number of Cartesian functions: 130
    Spherical Harmonics?: true
    Max angular momentum: 3

  ==> DFT Potential <==

   => Composite Functional: WB97M-V <= 

    wB97M-V Hyb-GGA Exchange-Correlation Functional

    N. Mardirossian and M. Head-Gordon, J. Chem. Phys. 144, 214110 (2016)

    Deriv               =              1
    GGA                 =           TRUE
    Meta                =           TRUE

    Exchange Hybrid     =           TRUE
    MP2 Hybrid          =          FALSE

   => Exchange-Correlation Functionals <=

    1.0000   wB97M-V exchange-correlation functional

   => Exact (HF) Exchange <=

    0.8500            HF,LR [omega = 0.3000]
    0.1500               HF 

   => VV10 Non-Local Parameters <=

    VV10 B              =     6.0000E+00
    VV10 C              =     1.0000E-02

   => Molecular Quadrature <=

    Radial Scheme          =       TREUTLER
    Pruning Scheme         =           FLAT
    Nuclear Scheme         =       TREUTLER

    BS radius alpha        =              1
    Pruning alpha          =              1
    Radial Points          =             75
    Spherical Points       =            302
    Total Points           =          90600
    Total Blocks           =            749
    Max Points             =            256
    Max Functions          =            115

   => Loading Basis Set <=

    Name: (AUG-CC-PV(T+D)Z AUX)
    Role: JKFIT
    Keyword: DF_BASIS_SCF
    atoms 1   entry N          line   224 file /work/zw18965/.conda/envs/p4env/share/psi4/basis/aug-cc-pvtz-jkfit.gbs 
    atoms 2-4 entry H          line    70 file /work/zw18965/.conda/envs/p4env/share/psi4/basis/aug-cc-pvtz-jkfit.gbs 

  ==> Pre-Iterations <==

   -------------------------------------------------------
    Irrep   Nso     Nmo     Nalpha   Nbeta   Ndocc  Nsocc
   -------------------------------------------------------
     A'        69      69       0       0       0       0
     A"        46      46       0       0       0       0
   -------------------------------------------------------
    Total     115     115       5       5       5       0
   -------------------------------------------------------

  ==> Integral Setup <==

  ==> DiskDFJK: Density-Fitted J/K Matrices <==

    J tasked:                  Yes
    K tasked:                  Yes
    wK tasked:                 Yes
    Omega:               3.000E-01
    OpenMP threads:             24
    Integrals threads:          24
    Memory [MiB]:           102254
    Algorithm:                Core
    Integral Cache:           NONE
    Schwarz Cutoff:          1E-12
    Fitting Condition:       1E-10

   => Auxiliary Basis Set <=

  Basis Set: (AUG-CC-PV(T+D)Z AUX)
    Blend: AUG-CC-PVTZ-JKFIT
    Number of shells: 72
    Number of basis function: 242
    Number of Cartesian functions: 296
    Spherical Harmonics?: true
    Max angular momentum: 4

  Cached 100.0% of DFT collocation blocks in 0.725 [GiB].

  Minimum eigenvalue in the overlap matrix is 2.6966339824E-04.
  Using Symmetric Orthogonalization.

  SCF Guess: Superposition of Atomic Densities via on-the-fly atomic UHF.

  ==> Iterations <==

                           Total Energy        Delta E     RMS |[F,P]|

   @DF-RKS iter SAD:   -56.04370578852411   -5.60437e+01   0.00000e+00 
   @DF-RKS iter   1:   -56.37270447826550   -3.28999e-01   7.97516e-03 DIIS
   @DF-RKS iter   2:   -56.38483864855745   -1.21342e-02   7.64311e-03 DIIS
   @DF-RKS iter   3:   -56.55070473009351   -1.65866e-01   2.51744e-04 DIIS
   @DF-RKS iter   4:   -56.55107846828266   -3.73738e-04   5.91897e-05 DIIS
   @DF-RKS iter   5:   -56.55109776246656   -1.92942e-05   7.39327e-06 DIIS
   @DF-RKS iter   6:   -56.55109846573092   -7.03264e-07   2.42254e-06 DIIS
   @DF-RKS iter   7:   -56.55109853193581   -6.62049e-08   5.95024e-07 DIIS
   @DF-RKS iter   8:   -56.55109853944027   -7.50446e-09   1.32628e-07 DIIS
   @DF-RKS iter   9:   -56.55109853980275   -3.62483e-10   1.73441e-08 DIIS
   @DF-RKS iter  10:   -56.55109853980738   -4.62563e-12   1.51932e-09 DIIS
  Energy and wave function converged.


  ==> Post-Iterations <==

    Orbital Energies [Eh]
    ---------------------

    Doubly Occupied:                                                      

       1Ap   -14.483393     2Ap    -0.977410     3Ap    -0.566369  
       1App   -0.565664     4Ap    -0.376866  

    Virtual:                                                              

       5Ap     0.010844     6Ap     0.037243     2App    0.037255  
       7Ap     0.094000     8Ap     0.127061     3App    0.139354  
       9Ap     0.139374     4App    0.184500    10Ap     0.184662  
      11Ap     0.201550     5App    0.201637    12Ap     0.219840  
      13Ap     0.318366     6App    0.320901     7App    0.335636  
      14Ap     0.335649    15Ap     0.379335     8App    0.401451  
      16Ap     0.401926    17Ap     0.439968     9App    0.440013  
      18Ap     0.511038    19Ap     0.544196    10App    0.544365  
      20Ap     0.667679    11App    0.701505    21Ap     0.702029  
      22Ap     0.734428    23Ap     0.790623    12App    0.840087  
      24Ap     0.841085    13App    0.841204    14App    0.896805  
      25Ap     0.897045    26Ap     0.950727    15App    0.961737  
      27Ap     0.961889    16App    1.009823    28Ap     1.021406  
      17App    1.021492    18App    1.063905    29Ap     1.063933  
      30Ap     1.100404    31Ap     1.136660    19App    1.136916  
      32Ap     1.214183    33Ap     1.250327    20App    1.250864  
      34Ap     1.484816    21App    1.622211    35Ap     1.622293  
      22App    1.632758    36Ap     1.707918    23App    1.719396  
      37Ap     1.719419    38Ap     1.853171    24App    1.869349  
      39Ap     1.870793    25App    1.906160    40Ap     1.906433  
      41Ap     2.091626    26App    2.190483    42Ap     2.202544  
      27App    2.203401    28App    2.258655    43Ap     2.258968  
      44Ap     2.279884    45Ap     3.116522    29App    3.287366  
      46Ap     3.288052    47Ap     3.740082    30App    3.740143  
      48Ap     3.753294    49Ap     3.907086    31App    3.907303  
      32App    3.929826    33App    3.976291    50Ap     3.976355  
      34App    3.999136    51Ap     4.076795    35App    4.094350  
      52Ap     4.094969    53Ap     4.219773    36App    4.261935  
      54Ap     4.263006    55Ap     4.417496    37App    4.469347  
      56Ap     4.469538    38App    4.704353    57Ap     4.704721  
      39App    4.758070    40App    4.765222    58Ap     4.765860  
      59Ap     4.786075    60Ap     4.948008    41App    5.348220  
      61Ap     5.349383    62Ap     5.404351    63Ap     5.569452  
      42App    5.570176    64Ap     5.696576    43App    6.011092  
      65Ap     6.015534    44App    6.075153    66Ap     6.254287  
      45App    6.568276    67Ap     6.570996    46App    7.295300  
      68Ap     7.297067    69Ap    16.635008  

    Final Occupation by Irrep:
             Ap   App 
    DOCC [     4,    1 ]

  @DF-RKS Final Energy:   -56.55109853980738

   => Energetics <=

    Nuclear Repulsion Energy =             11.9622651025656239
    One-Electron Energy =                 -99.6475892663121670
    Two-Electron Energy =                  36.6507964374157709
    DFT Exchange-Correlation Energy =      -5.5583990293439385
    Empirical Dispersion Energy =           0.0000000000000000
    VV10 Nonlocal Energy =                  0.0418282158673372
    Total Energy =                        -56.5510985398073700

Computation Completed


Properties will be evaluated at   0.000000,   0.000000,   0.000000 [a0]

Properties computed using the SCF density matrix

  Nuclear Dipole Moment: [e a0]
     X:     0.5755      Y:     0.6879      Z:     0.0000

  Electronic Dipole Moment: [e a0]
     X:    -0.1831      Y:    -0.2170      Z:     0.0000

  Dipole Moment: [e a0]
     X:     0.3924      Y:     0.4709      Z:     0.0000     Total:     0.6130

  Dipole Moment: [D]
     X:     0.9974      Y:     1.1969      Z:     0.0000     Total:     1.5580


*** tstop() called on bp1-compute00090.data.bp.acrc.priv at Tue Apr 27 17:33:18 2021
Module time:
	user time   =      91.52 seconds =       1.53 minutes
	system time =       2.55 seconds =       0.04 minutes
	total time  =          4 seconds =       0.07 minutes
Total time:
	user time   =     479.96 seconds =       8.00 minutes
	system time =      18.36 seconds =       0.31 minutes
	total time  =         21 seconds =       0.35 minutes

  //>>>>>>>>>>>>>>>>>>>>>>>>>>>>>>>>>>>//
  //    Loading displacement 6 of 9    //
  //<<<<<<<<<<<<<<<<<<<<<<<<<<<<<<<<<<<//

*** tstart() called on bp1-compute00090.data.bp.acrc.priv
*** at Tue Apr 27 17:33:18 2021

   => Loading Basis Set <=

    Name: AUG-CC-PV(T+D)Z
    Role: ORBITAL
    Keyword: BASIS
    atoms 1   entry N          line   301 file /work/zw18965/.conda/envs/p4env/share/psi4/basis/aug-cc-pv_tpd_z.gbs 
    atoms 2-4 entry H          line    56 file /work/zw18965/.conda/envs/p4env/share/psi4/basis/aug-cc-pv_tpd_z.gbs 


         ---------------------------------------------------------
                                   SCF
               by Justin Turney, Rob Parrish, Andy Simmonett
                          and Daniel G. A. Smith
                              RKS Reference
                       24 Threads, 137329 MiB Core
         ---------------------------------------------------------

  ==> Geometry <==

    Molecular point group: cs
    Full point group: Cs

    Geometry (in Angstrom), charge = 0, multiplicity = 1:

       Center              X                  Y                   Z               Mass       
    ------------   -----------------  -----------------  -----------------  -----------------
         N           -0.044172539916    -0.053084193715     0.000000000000    14.003074004430
         H            0.563007108181    -0.052395961410     0.809494643400     1.007825032230
         H            0.563007108181    -0.052395961410    -0.809494643400     1.007825032230
         H           -0.512265474637     0.842362303875     0.000000000000     1.007825032230

  Running in cs symmetry.

  Rotational constants: A =      9.97005  B =      9.93436  C =      6.39622 [cm^-1]
  Rotational constants: A = 298894.55792  B = 297824.55789  C = 191753.78946 [MHz]
  Nuclear repulsion =   11.969093647182326

  Charge       = 0
  Multiplicity = 1
  Electrons    = 10
  Nalpha       = 5
  Nbeta        = 5

  ==> Algorithm <==

  SCF Algorithm Type is DF.
  DIIS enabled.
  MOM disabled.
  Fractional occupation disabled.
  Guess Type is SAD.
  Energy threshold   = 1.00e-08
  Density threshold  = 1.00e-08
  Integral threshold = 0.00e+00

  ==> Primary Basis <==

  Basis Set: AUG-CC-PV(T+D)Z
    Blend: AUG-CC-PV(T+D)Z
    Number of shells: 41
    Number of basis function: 115
    Number of Cartesian functions: 130
    Spherical Harmonics?: true
    Max angular momentum: 3

  ==> DFT Potential <==

   => Composite Functional: WB97M-V <= 

    wB97M-V Hyb-GGA Exchange-Correlation Functional

    N. Mardirossian and M. Head-Gordon, J. Chem. Phys. 144, 214110 (2016)

    Deriv               =              1
    GGA                 =           TRUE
    Meta                =           TRUE

    Exchange Hybrid     =           TRUE
    MP2 Hybrid          =          FALSE

   => Exchange-Correlation Functionals <=

    1.0000   wB97M-V exchange-correlation functional

   => Exact (HF) Exchange <=

    0.8500            HF,LR [omega = 0.3000]
    0.1500               HF 

   => VV10 Non-Local Parameters <=

    VV10 B              =     6.0000E+00
    VV10 C              =     1.0000E-02

   => Molecular Quadrature <=

    Radial Scheme          =       TREUTLER
    Pruning Scheme         =           FLAT
    Nuclear Scheme         =       TREUTLER

    BS radius alpha        =              1
    Pruning alpha          =              1
    Radial Points          =             75
    Spherical Points       =            302
    Total Points           =          90600
    Total Blocks           =            750
    Max Points             =            256
    Max Functions          =            115

   => Loading Basis Set <=

    Name: (AUG-CC-PV(T+D)Z AUX)
    Role: JKFIT
    Keyword: DF_BASIS_SCF
    atoms 1   entry N          line   224 file /work/zw18965/.conda/envs/p4env/share/psi4/basis/aug-cc-pvtz-jkfit.gbs 
    atoms 2-4 entry H          line    70 file /work/zw18965/.conda/envs/p4env/share/psi4/basis/aug-cc-pvtz-jkfit.gbs 

  ==> Pre-Iterations <==

   -------------------------------------------------------
    Irrep   Nso     Nmo     Nalpha   Nbeta   Ndocc  Nsocc
   -------------------------------------------------------
     A'        69      69       0       0       0       0
     A"        46      46       0       0       0       0
   -------------------------------------------------------
    Total     115     115       5       5       5       0
   -------------------------------------------------------

  ==> Integral Setup <==

  ==> DiskDFJK: Density-Fitted J/K Matrices <==

    J tasked:                  Yes
    K tasked:                  Yes
    wK tasked:                 Yes
    Omega:               3.000E-01
    OpenMP threads:             24
    Integrals threads:          24
    Memory [MiB]:           102254
    Algorithm:                Core
    Integral Cache:           NONE
    Schwarz Cutoff:          1E-12
    Fitting Condition:       1E-10

   => Auxiliary Basis Set <=

  Basis Set: (AUG-CC-PV(T+D)Z AUX)
    Blend: AUG-CC-PVTZ-JKFIT
    Number of shells: 72
    Number of basis function: 242
    Number of Cartesian functions: 296
    Spherical Harmonics?: true
    Max angular momentum: 4

  Cached 100.0% of DFT collocation blocks in 0.725 [GiB].

  Minimum eigenvalue in the overlap matrix is 2.6929481075E-04.
  Using Symmetric Orthogonalization.

  SCF Guess: Superposition of Atomic Densities via on-the-fly atomic UHF.

  ==> Iterations <==

                           Total Energy        Delta E     RMS |[F,P]|

   @DF-RKS iter SAD:   -56.04447941820877   -5.60445e+01   0.00000e+00 
   @DF-RKS iter   1:   -56.37260828187499   -3.28129e-01   7.97803e-03 DIIS
   @DF-RKS iter   2:   -56.38491640836718   -1.23081e-02   7.64213e-03 DIIS
   @DF-RKS iter   3:   -56.55069309201767   -1.65777e-01   2.51644e-04 DIIS
   @DF-RKS iter   4:   -56.55106636430916   -3.73272e-04   5.91208e-05 DIIS
   @DF-RKS iter   5:   -56.55108560533079   -1.92410e-05   7.37116e-06 DIIS
   @DF-RKS iter   6:   -56.55108630437326   -6.99042e-07   2.41132e-06 DIIS
   @DF-RKS iter   7:   -56.55108636988992   -6.55167e-08   5.92015e-07 DIIS
   @DF-RKS iter   8:   -56.55108637731505   -7.42513e-09   1.32223e-07 DIIS
   @DF-RKS iter   9:   -56.55108637767521   -3.60160e-10   1.72997e-08 DIIS
   @DF-RKS iter  10:   -56.55108637767960   -4.39115e-12   1.53324e-09 DIIS
  Energy and wave function converged.


  ==> Post-Iterations <==

    Orbital Energies [Eh]
    ---------------------

    Doubly Occupied:                                                      

       1Ap   -14.483287     2Ap    -0.977792     1App   -0.566099  
       3Ap    -0.566000     4Ap    -0.377128  

    Virtual:                                                              

       5Ap     0.010843     2App    0.037246     6Ap     0.037270  
       7Ap     0.093976     8Ap     0.127103     9Ap     0.139363  
       3App    0.139389     4App    0.184613    10Ap     0.184701  
       5App    0.201517    11Ap     0.201597    12Ap     0.219873  
      13Ap     0.318345     6App    0.320962     7App    0.335639  
      14Ap     0.335682    15Ap     0.379500     8App    0.401693  
      16Ap     0.401912    17Ap     0.440003     9App    0.440084  
      18Ap     0.511182    10App    0.544166    19Ap     0.544309  
      20Ap     0.668002    11App    0.701806    21Ap     0.701893  
      22Ap     0.734658    23Ap     0.790325    12App    0.840294  
      13App    0.841223    24Ap     0.841386    14App    0.896520  
      25Ap     0.896737    26Ap     0.951061    27Ap     0.962023  
      15App    0.962058    16App    1.010049    17App    1.021418  
      28Ap     1.021462    18App    1.064092    29Ap     1.064200  
      30Ap     1.100665    19App    1.136880    31Ap     1.137164  
      32Ap     1.214263    20App    1.249904    33Ap     1.250229  
      34Ap     1.484702    21App    1.622706    35Ap     1.623445  
      22App    1.633972    36Ap     1.708020    23App    1.719239  
      37Ap     1.719535    38Ap     1.853136    24App    1.870284  
      39Ap     1.870686    40Ap     1.906159    25App    1.906394  
      41Ap     2.093019    26App    2.189591    42Ap     2.202455  
      27App    2.203225    43Ap     2.259274    28App    2.259394  
      44Ap     2.280202    45Ap     3.115213    29App    3.286937  
      46Ap     3.287978    30App    3.740341    47Ap     3.741317  
      48Ap     3.754444    31App    3.906502    49Ap     3.906977  
      32App    3.930725    33App    3.976833    50Ap     3.977739  
      34App    4.000788    51Ap     4.076017    35App    4.094716  
      52Ap     4.095170    53Ap     4.220304    36App    4.262053  
      54Ap     4.263430    55Ap     4.418624    56Ap     4.468981  
      37App    4.469435    38App    4.705500    57Ap     4.706988  
      39App    4.760738    40App    4.764508    58Ap     4.765142  
      59Ap     4.790172    60Ap     4.950924    61Ap     5.350030  
      41App    5.350941    62Ap     5.403646    63Ap     5.570154  
      42App    5.573084    64Ap     5.696872    65Ap     6.018633  
      43App    6.019178    44App    6.073446    66Ap     6.254863  
      45App    6.572151    67Ap     6.572930    46App    7.296062  
      68Ap     7.299976    69Ap    16.650033  

    Final Occupation by Irrep:
             Ap   App 
    DOCC [     4,    1 ]

  @DF-RKS Final Energy:   -56.55108637767960

   => Energetics <=

    Nuclear Repulsion Energy =             11.9690936471823264
    One-Electron Energy =                 -99.6596455366699843
    Two-Electron Energy =                  36.6566389426879269
    DFT Exchange-Correlation Energy =      -5.5590025548989797
    Empirical Dispersion Energy =           0.0000000000000000
    VV10 Nonlocal Energy =                  0.0418291240191121
    Total Energy =                        -56.5510863776796100

Computation Completed


Properties will be evaluated at   0.000000,   0.000000,   0.000000 [a0]

Properties computed using the SCF density matrix

  Nuclear Dipole Moment: [e a0]
     X:     0.5755      Y:     0.6916      Z:     0.0000

  Electronic Dipole Moment: [e a0]
     X:    -0.1824      Y:    -0.2189      Z:     0.0000

  Dipole Moment: [e a0]
     X:     0.3931      Y:     0.4727      Z:     0.0000     Total:     0.6148

  Dipole Moment: [D]
     X:     0.9992      Y:     1.2016      Z:     0.0000     Total:     1.5628


*** tstop() called on bp1-compute00090.data.bp.acrc.priv at Tue Apr 27 17:33:22 2021
Module time:
	user time   =      91.75 seconds =       1.53 minutes
	system time =       2.47 seconds =       0.04 minutes
	total time  =          4 seconds =       0.07 minutes
Total time:
	user time   =     571.86 seconds =       9.53 minutes
	system time =      20.83 seconds =       0.35 minutes
	total time  =         25 seconds =       0.42 minutes

  //>>>>>>>>>>>>>>>>>>>>>>>>>>>>>>>>>>>//
  //    Loading displacement 7 of 9    //
  //<<<<<<<<<<<<<<<<<<<<<<<<<<<<<<<<<<<//

*** tstart() called on bp1-compute00090.data.bp.acrc.priv
*** at Tue Apr 27 17:33:22 2021

   => Loading Basis Set <=

    Name: AUG-CC-PV(T+D)Z
    Role: ORBITAL
    Keyword: BASIS
    atoms 1   entry N          line   301 file /work/zw18965/.conda/envs/p4env/share/psi4/basis/aug-cc-pv_tpd_z.gbs 
    atoms 2-4 entry H          line    56 file /work/zw18965/.conda/envs/p4env/share/psi4/basis/aug-cc-pv_tpd_z.gbs 


         ---------------------------------------------------------
                                   SCF
               by Justin Turney, Rob Parrish, Andy Simmonett
                          and Daniel G. A. Smith
                              RKS Reference
                       24 Threads, 137329 MiB Core
         ---------------------------------------------------------

  ==> Geometry <==

    Molecular point group: cs
    Full point group: Cs

    Geometry (in Angstrom), charge = 0, multiplicity = 1:

       Center              X                  Y                   Z               Mass       
    ------------   -----------------  -----------------  -----------------  -----------------
         N           -0.044172539916    -0.053084193715     0.000000000000    14.003074004430
         H            0.564661269661    -0.053772426020     0.809494643400     1.007825032230
         H            0.564661269661    -0.053772426020    -0.809494643400     1.007825032230
         H           -0.515573797597     0.845115233095     0.000000000000     1.007825032230

  Running in cs symmetry.

  Rotational constants: A =      9.93436  B =      9.89884  C =      6.36683 [cm^-1]
  Rotational constants: A = 297824.55789  B = 296759.75159  C = 190872.89538 [MHz]
  Nuclear repulsion =   11.945294393117610

  Charge       = 0
  Multiplicity = 1
  Electrons    = 10
  Nalpha       = 5
  Nbeta        = 5

  ==> Algorithm <==

  SCF Algorithm Type is DF.
  DIIS enabled.
  MOM disabled.
  Fractional occupation disabled.
  Guess Type is SAD.
  Energy threshold   = 1.00e-08
  Density threshold  = 1.00e-08
  Integral threshold = 0.00e+00

  ==> Primary Basis <==

  Basis Set: AUG-CC-PV(T+D)Z
    Blend: AUG-CC-PV(T+D)Z
    Number of shells: 41
    Number of basis function: 115
    Number of Cartesian functions: 130
    Spherical Harmonics?: true
    Max angular momentum: 3

  ==> DFT Potential <==

   => Composite Functional: WB97M-V <= 

    wB97M-V Hyb-GGA Exchange-Correlation Functional

    N. Mardirossian and M. Head-Gordon, J. Chem. Phys. 144, 214110 (2016)

    Deriv               =              1
    GGA                 =           TRUE
    Meta                =           TRUE

    Exchange Hybrid     =           TRUE
    MP2 Hybrid          =          FALSE

   => Exchange-Correlation Functionals <=

    1.0000   wB97M-V exchange-correlation functional

   => Exact (HF) Exchange <=

    0.8500            HF,LR [omega = 0.3000]
    0.1500               HF 

   => VV10 Non-Local Parameters <=

    VV10 B              =     6.0000E+00
    VV10 C              =     1.0000E-02

   => Molecular Quadrature <=

    Radial Scheme          =       TREUTLER
    Pruning Scheme         =           FLAT
    Nuclear Scheme         =       TREUTLER

    BS radius alpha        =              1
    Pruning alpha          =              1
    Radial Points          =             75
    Spherical Points       =            302
    Total Points           =          90600
    Total Blocks           =            747
    Max Points             =            256
    Max Functions          =            115

   => Loading Basis Set <=

    Name: (AUG-CC-PV(T+D)Z AUX)
    Role: JKFIT
    Keyword: DF_BASIS_SCF
    atoms 1   entry N          line   224 file /work/zw18965/.conda/envs/p4env/share/psi4/basis/aug-cc-pvtz-jkfit.gbs 
    atoms 2-4 entry H          line    70 file /work/zw18965/.conda/envs/p4env/share/psi4/basis/aug-cc-pvtz-jkfit.gbs 

  ==> Pre-Iterations <==

   -------------------------------------------------------
    Irrep   Nso     Nmo     Nalpha   Nbeta   Ndocc  Nsocc
   -------------------------------------------------------
     A'        69      69       0       0       0       0
     A"        46      46       0       0       0       0
   -------------------------------------------------------
    Total     115     115       5       5       5       0
   -------------------------------------------------------

  ==> Integral Setup <==

  ==> DiskDFJK: Density-Fitted J/K Matrices <==

    J tasked:                  Yes
    K tasked:                  Yes
    wK tasked:                 Yes
    Omega:               3.000E-01
    OpenMP threads:             24
    Integrals threads:          24
    Memory [MiB]:           102254
    Algorithm:                Core
    Integral Cache:           NONE
    Schwarz Cutoff:          1E-12
    Fitting Condition:       1E-10

   => Auxiliary Basis Set <=

  Basis Set: (AUG-CC-PV(T+D)Z AUX)
    Blend: AUG-CC-PVTZ-JKFIT
    Number of shells: 72
    Number of basis function: 242
    Number of Cartesian functions: 296
    Spherical Harmonics?: true
    Max angular momentum: 4

  Cached 100.0% of DFT collocation blocks in 0.725 [GiB].

  Minimum eigenvalue in the overlap matrix is 2.7034563446E-04.
  Using Symmetric Orthogonalization.

  SCF Guess: Superposition of Atomic Densities via on-the-fly atomic UHF.

  ==> Iterations <==

                           Total Energy        Delta E     RMS |[F,P]|

   @DF-RKS iter SAD:   -56.04227615030437   -5.60423e+01   0.00000e+00 
   @DF-RKS iter   1:   -56.37290999809603   -3.30634e-01   7.96609e-03 DIIS
   @DF-RKS iter   2:   -56.38460366010093   -1.16937e-02   7.64516e-03 DIIS
   @DF-RKS iter   3:   -56.55070284046055   -1.66099e-01   2.51606e-04 DIIS
   @DF-RKS iter   4:   -56.55107713412745   -3.74294e-04   5.93547e-05 DIIS
   @DF-RKS iter   5:   -56.55109654629831   -1.94122e-05   7.45285e-06 DIIS
   @DF-RKS iter   6:   -56.55109725781507   -7.11517e-07   2.44295e-06 DIIS
   @DF-RKS iter   7:   -56.55109732521449   -6.73994e-08   5.99568e-07 DIIS
   @DF-RKS iter   8:   -56.55109733282413   -7.60964e-09   1.33001e-07 DIIS
   @DF-RKS iter   9:   -56.55109733319332   -3.69191e-10   1.74337e-08 DIIS
   @DF-RKS iter  10:   -56.55109733319789   -4.56879e-12   1.54792e-09 DIIS
  Energy and wave function converged.


  ==> Post-Iterations <==

    Orbital Energies [Eh]
    ---------------------

    Doubly Occupied:                                                      

       1Ap   -14.483860     2Ap    -0.976861     3Ap    -0.565550  
       1App   -0.565452     4Ap    -0.376934  

    Virtual:                                                              

       5Ap     0.010809     6Ap     0.037229     2App    0.037254  
       7Ap     0.094020     8Ap     0.126972     3App    0.139350  
       9Ap     0.139375    10Ap     0.184380     4App    0.184469  
      11Ap     0.201478     5App    0.201559    12Ap     0.219714  
      13Ap     0.318237     6App    0.320851    14Ap     0.335574  
       7App    0.335620    15Ap     0.379021    16Ap     0.401146  
       8App    0.401360     9App    0.440005    17Ap     0.440085  
      18Ap     0.511156    19Ap     0.544020    10App    0.544163  
      20Ap     0.667305    21Ap     0.701206    11App    0.701284  
      22Ap     0.734168    23Ap     0.790039    12App    0.839932  
      24Ap     0.840983    13App    0.841182    25Ap     0.896427  
      14App    0.896645    26Ap     0.950229    15App    0.961708  
      27Ap     0.961749    16App    1.009536    28Ap     1.021261  
      17App    1.021305    29Ap     1.063597    18App    1.063710  
      30Ap     1.100009    31Ap     1.136389    19App    1.136673  
      32Ap     1.214780    33Ap     1.250166    20App    1.250488  
      34Ap     1.484894    35Ap     1.620878    21App    1.621500  
      22App    1.631794    36Ap     1.707548    37Ap     1.718864  
      23App    1.719153    38Ap     1.852727    39Ap     1.868737  
      24App    1.869152    25App    1.905791    40Ap     1.906020  
      41Ap     2.091600    26App    2.189634    27App    2.202625  
      42Ap     2.203406    28App    2.258049    43Ap     2.258162  
      44Ap     2.278018    45Ap     3.114813    46Ap     3.285553  
      29App    3.286607    47Ap     3.738977    30App    3.739987  
      48Ap     3.752541    49Ap     3.905606    31App    3.906046  
      32App    3.927937    50Ap     3.974191    33App    3.975103  
      34App    3.997464    51Ap     4.074911    52Ap     4.092993  
      35App    4.093447    53Ap     4.219519    54Ap     4.260031  
      36App    4.261441    55Ap     4.414659    37App    4.466799  
      56Ap     4.467276    57Ap     4.701866    38App    4.703329  
      39App    4.755274    58Ap     4.764274    40App    4.764885  
      59Ap     4.784621    60Ap     4.945682    41App    5.348855  
      61Ap     5.349709    62Ap     5.400643    42App    5.563139  
      63Ap     5.566091    64Ap     5.690045    43App    6.008286  
      65Ap     6.008895    44App    6.068975    66Ap     6.247997  
      67Ap     6.562757    45App    6.563506    68Ap     7.290369  
      46App    7.294310    69Ap    16.587810  

    Final Occupation by Irrep:
             Ap   App 
    DOCC [     4,    1 ]

  @DF-RKS Final Energy:   -56.55109733319789

   => Energetics <=

    Nuclear Repulsion Energy =             11.9452943931176101
    One-Electron Energy =                 -99.6166299856897979
    Two-Electron Energy =                  36.6353149001297567
    DFT Exchange-Correlation Energy =      -5.5569026364803253
    Empirical Dispersion Energy =           0.0000000000000000
    VV10 Nonlocal Energy =                  0.0418259957248748
    Total Energy =                        -56.5510973331978803

Computation Completed


Properties will be evaluated at   0.000000,   0.000000,   0.000000 [a0]

Properties computed using the SCF density matrix

  Nuclear Dipole Moment: [e a0]
     X:     0.5755      Y:     0.6916      Z:     0.0000

  Electronic Dipole Moment: [e a0]
     X:    -0.1829      Y:    -0.2201      Z:     0.0000

  Dipole Moment: [e a0]
     X:     0.3926      Y:     0.4715      Z:     0.0000     Total:     0.6135

  Dipole Moment: [D]
     X:     0.9978      Y:     1.1983      Z:     0.0000     Total:     1.5594


*** tstop() called on bp1-compute00090.data.bp.acrc.priv at Tue Apr 27 17:33:26 2021
Module time:
	user time   =      92.16 seconds =       1.54 minutes
	system time =       2.50 seconds =       0.04 minutes
	total time  =          4 seconds =       0.07 minutes
Total time:
	user time   =     664.16 seconds =      11.07 minutes
	system time =      23.34 seconds =       0.39 minutes
	total time  =         29 seconds =       0.48 minutes

  //>>>>>>>>>>>>>>>>>>>>>>>>>>>>>>>>>>>//
  //    Loading displacement 8 of 9    //
  //<<<<<<<<<<<<<<<<<<<<<<<<<<<<<<<<<<<//

*** tstart() called on bp1-compute00090.data.bp.acrc.priv
*** at Tue Apr 27 17:33:26 2021

   => Loading Basis Set <=

    Name: AUG-CC-PV(T+D)Z
    Role: ORBITAL
    Keyword: BASIS
    atoms 1   entry N          line   301 file /work/zw18965/.conda/envs/p4env/share/psi4/basis/aug-cc-pv_tpd_z.gbs 
    atoms 2-4 entry H          line    56 file /work/zw18965/.conda/envs/p4env/share/psi4/basis/aug-cc-pv_tpd_z.gbs 


         ---------------------------------------------------------
                                   SCF
               by Justin Turney, Rob Parrish, Andy Simmonett
                          and Daniel G. A. Smith
                              RKS Reference
                       24 Threads, 137329 MiB Core
         ---------------------------------------------------------

  ==> Geometry <==

    Molecular point group: cs
    Full point group: Cs

    Geometry (in Angstrom), charge = 0, multiplicity = 1:

       Center              X                  Y                   Z               Mass       
    ------------   -----------------  -----------------  -----------------  -----------------
         N           -0.044172539916    -0.053084193715     0.000000000000    14.003074004430
         H            0.563834188921    -0.053084193715     0.807630996768     1.007825032230
         H            0.563834188921    -0.053084193715    -0.807630996768     1.007825032230
         H           -0.513919636117     0.843738768485     0.000000000000     1.007825032230

  Running in cs symmetry.

  Rotational constants: A =      9.97005  B =      9.93436  C =      6.39622 [cm^-1]
[...]
                       24 Threads, 137329 MiB Core
         ---------------------------------------------------------

  ==> Geometry <==

    Molecular point group: c1
    Full point group: C1

    Geometry (in Angstrom), charge = 0, multiplicity = 1:

       Center              X                  Y                   Z               Mass       
    ------------   -----------------  -----------------  -----------------  -----------------
         N           -0.042682719269    -0.051293392553    -0.000265127472    14.003074004430
         H            0.558435076081    -0.061520650809     0.814399359669     1.007825032230
         H            0.559373136437    -0.064513804908    -0.813465172658     1.007825032230
         H           -0.524759560697     0.838722818170     0.002749586944     1.007825032230

  Running in c1 symmetry.

  Rotational constants: A =     10.02142  B =      9.97016  C =      6.31206 [cm^-1]
  Rotational constants: A = 300434.53944  B = 298897.92133  C = 189230.73667 [MHz]
  Nuclear repulsion =   11.954084301332921

  Charge       = 0
  Multiplicity = 1
  Electrons    = 10
  Nalpha       = 5
  Nbeta        = 5

  ==> Algorithm <==

  SCF Algorithm Type is DF.
  DIIS enabled.
  MOM disabled.
  Fractional occupation disabled.
  Guess Type is SAD.
  Energy threshold   = 1.00e-10
  Density threshold  = 1.00e-10
  Integral threshold = 0.00e+00

  ==> Primary Basis <==

  Basis Set: AUG-CC-PV(T+D)Z
    Blend: AUG-CC-PV(T+D)Z
    Number of shells: 41
    Number of basis function: 115
    Number of Cartesian functions: 130
    Spherical Harmonics?: true
    Max angular momentum: 3

  ==> DFT Potential <==

   => Composite Functional: WB97M-V <= 

    wB97M-V Hyb-GGA Exchange-Correlation Functional

    N. Mardirossian and M. Head-Gordon, J. Chem. Phys. 144, 214110 (2016)

    Deriv               =              1
    GGA                 =           TRUE
    Meta                =           TRUE

    Exchange Hybrid     =           TRUE
    MP2 Hybrid          =          FALSE

   => Exchange-Correlation Functionals <=

    1.0000   wB97M-V exchange-correlation functional

   => Exact (HF) Exchange <=

    0.8500            HF,LR [omega = 0.3000]
    0.1500               HF 

   => VV10 Non-Local Parameters <=

    VV10 B              =     6.0000E+00
    VV10 C              =     1.0000E-02

   => Molecular Quadrature <=

    Radial Scheme          =       TREUTLER
    Pruning Scheme         =           FLAT
    Nuclear Scheme         =       TREUTLER

    BS radius alpha        =              1
    Pruning alpha          =              1
    Radial Points          =             75
    Spherical Points       =            302
    Total Points           =          90600
    Total Blocks           =            733
    Max Points             =            256
    Max Functions          =            115

   => Loading Basis Set <=

    Name: (AUG-CC-PV(T+D)Z AUX)
    Role: JKFIT
    Keyword: DF_BASIS_SCF
    atoms 1   entry N          line   224 file /work/zw18965/.conda/envs/p4env/share/psi4/basis/aug-cc-pvtz-jkfit.gbs 
    atoms 2-4 entry H          line    70 file /work/zw18965/.conda/envs/p4env/share/psi4/basis/aug-cc-pvtz-jkfit.gbs 

  ==> Pre-Iterations <==

   -------------------------------------------------------
    Irrep   Nso     Nmo     Nalpha   Nbeta   Ndocc  Nsocc
   -------------------------------------------------------
     A        115     115       0       0       0       0
   -------------------------------------------------------
    Total     115     115       5       5       5       0
   -------------------------------------------------------

  ==> Integral Setup <==

  ==> DiskDFJK: Density-Fitted J/K Matrices <==

    J tasked:                  Yes
    K tasked:                  Yes
    wK tasked:                 Yes
    Omega:               3.000E-01
    OpenMP threads:             24
    Integrals threads:          24
    Memory [MiB]:           102255
    Algorithm:                Core
    Integral Cache:           NONE
    Schwarz Cutoff:          1E-12
    Fitting Condition:       1E-10

   => Auxiliary Basis Set <=

  Basis Set: (AUG-CC-PV(T+D)Z AUX)
    Blend: AUG-CC-PVTZ-JKFIT
    Number of shells: 72
    Number of basis function: 242
    Number of Cartesian functions: 296
    Spherical Harmonics?: true
    Max angular momentum: 4

  Cached 100.0% of DFT collocation blocks in 0.724 [GiB].

  Minimum eigenvalue in the overlap matrix is 2.7059486907E-04.
  Using Symmetric Orthogonalization.

  SCF Guess: Superposition of Atomic Densities via on-the-fly atomic UHF.

  ==> Iterations <==

                           Total Energy        Delta E     RMS |[F,P]|

   @DF-RKS iter SAD:   -56.04159825941535   -5.60416e+01   0.00000e+00 
   @DF-RKS iter   1:   -56.37284577756990   -3.31248e-01   5.75186e-03 DIIS
   @DF-RKS iter   2:   -56.38477664634834   -1.19309e-02   5.51325e-03 DIIS
   @DF-RKS iter   3:   -56.55073832195233   -1.65962e-01   1.82303e-04 DIIS
   @DF-RKS iter   4:   -56.55111404069530   -3.75719e-04   4.27486e-05 DIIS
   @DF-RKS iter   5:   -56.55113342467723   -1.93840e-05   5.34141e-06 DIIS
   @DF-RKS iter   6:   -56.55113413795833   -7.13281e-07   1.76865e-06 DIIS
   @DF-RKS iter   7:   -56.55113420621244   -6.82541e-08   4.36610e-07 DIIS
   @DF-RKS iter   8:   -56.55113421404455   -7.83211e-09   9.70689e-08 DIIS
   @DF-RKS iter   9:   -56.55113421441933   -3.74783e-10   1.26148e-08 DIIS
   @DF-RKS iter  10:   -56.55113421442395   -4.61853e-12   1.09185e-09 DIIS
   @DF-RKS iter  11:   -56.55113421442397   -1.42109e-14   1.87851e-10 DIIS
   @DF-RKS iter  12:   -56.55113421442399   -2.13163e-14   2.50587e-11 DIIS
  Energy and wave function converged.


  ==> Post-Iterations <==

    Orbital Energies [Eh]
    ---------------------

    Doubly Occupied:                                                      

       1A    -14.483031     2A     -0.975994     3A     -0.567585  
       4A     -0.566428     5A     -0.374817  

    Virtual:                                                              

       6A      0.010940     7A      0.037177     8A      0.037231  
       9A      0.094133    10A      0.126961    11A      0.139247  
      12A      0.139314    13A      0.184326    14A      0.184440  
      15A      0.201955    16A      0.202201    17A      0.219890  
      18A      0.318841    19A      0.320590    20A      0.335593  
      21A      0.335639    22A      0.378893    23A      0.401735  
      24A      0.402108    25A      0.439452    26A      0.439521  
      27A      0.509653    28A      0.544792    29A      0.545208  
      30A      0.666169    31A      0.702274    32A      0.702869  
      33A      0.733550    34A      0.794290    35A      0.838797  
      36A      0.840029    37A      0.840465    38A      0.899983  
      39A      0.900057    40A      0.949518    41A      0.960192  
      42A      0.960454    43A      1.008936    44A      1.021850  
      45A      1.022070    46A      1.062880    47A      1.062984  
      48A      1.099461    49A      1.135374    50A      1.136143  
      51A      1.212024    52A      1.254364    53A      1.255531  
      54A      1.485416    55A      1.617771    56A      1.618784  
      57A      1.627045    58A      1.708002    59A      1.720649  
      60A      1.720920    61A      1.854232    62A      1.868995  
      63A      1.870509    64A      1.907095    65A      1.907894  
      66A      2.082255    67A      2.199252    68A      2.203658  
      69A      2.203932    70A      2.256454    71A      2.257090  
      72A      2.282014    73A      3.130340    74A      3.292992  
      75A      3.293449    76A      3.736033    77A      3.737336  
      78A      3.746553    79A      3.913319    80A      3.914106  
      81A      3.926720    82A      3.973037    83A      3.974215  
      84A      3.992683    85A      4.086519    86A      4.096029  
      87A      4.096342    88A      4.215947    89A      4.264429  
      90A      4.264897    91A      4.415988    92A      4.476511  
      93A      4.477582    94A      4.695875    95A      4.697283  
      96A      4.746446    97A      4.761169    98A      4.773045  
      99A      4.773188   100A      4.932637   101A      5.332718  
     102A      5.335691   103A      5.419735   104A      5.566991  
     105A      5.570131   106A      5.710527   107A      5.982243  
     108A      5.989032   109A      6.103022   110A      6.266330  
     111A      6.561359   112A      6.564164   113A      7.290688  
     114A      7.293899   115A     16.641293  

    Final Occupation by Irrep:
              A 
    DOCC [     5 ]

  @DF-RKS Final Energy:   -56.55113421442399

   => Energetics <=

    Nuclear Repulsion Energy =             11.9540843013329212
    One-Electron Energy =                 -99.6354831020981919
    Two-Electron Energy =                  36.6460916821263609
    DFT Exchange-Correlation Energy =      -5.5576540577207911
    Empirical Dispersion Energy =           0.0000000000000000
    VV10 Nonlocal Energy =                  0.0418269619357086
    Total Energy =                        -56.5511342144239819

Computation Completed


Properties will be evaluated at   0.000000,   0.000000,   0.000000 [a0]

Properties computed using the SCF density matrix

  Nuclear Dipole Moment: [e a0]
     X:     0.5561      Y:     0.6683      Z:     0.0035

  Electronic Dipole Moment: [e a0]
     X:    -0.1736      Y:    -0.2087      Z:    -0.0025

  Dipole Moment: [e a0]
     X:     0.3825      Y:     0.4596      Z:     0.0009     Total:     0.5979

  Dipole Moment: [D]
     X:     0.9721      Y:     1.1682      Z:     0.0024     Total:     1.5198


*** tstop() called on bp1-compute00090.data.bp.acrc.priv at Tue Apr 27 17:36:50 2021
Module time:
	user time   =     102.15 seconds =       1.70 minutes
	system time =       2.38 seconds =       0.04 minutes
	total time  =          4 seconds =       0.07 minutes
Total time:
	user time   =    5402.41 seconds =      90.04 minutes
	system time =     145.58 seconds =       2.43 minutes
	total time  =        233 seconds =       3.88 minutes

         ----------------------------------------------------------
                                   FINDIF
                     R. A. King and Jonathon Misiewicz
         ---------------------------------------------------------

  Computing second-derivative from energies using projected, 
  symmetry-adapted, cartesian coordinates.

  25 energies passed in, including the reference geometry.
    Using 3-point formula.
    Energy without displacement:  -56.5511360576
    Check energies below for precision!
    0: -1        :       -56.5511328822
    0: 1         :       -56.5511338384
    1: -1        :       -56.5511330530
    1: 1         :       -56.5511340745
    2: -1        :       -56.5511326574
    2: 1         :       -56.5511308793
    3: -1        :       -56.5511326597
    3: 1         :       -56.5511308760
    0: 1, 1: 1   :       -56.5511349110
    0: -1, 1: -1 :       -56.5511329060
    0: 1, 2: 1   :       -56.5511277769
    0: -1, 2: -1 :       -56.5511285547
    1: 1, 2: 1   :       -56.5511329133
    1: -1, 2: -1 :       -56.5511336912
    0: 1, 3: 1   :       -56.5511327258
    0: -1, 3: -1 :       -56.5511335749
    1: 1, 3: 1   :       -56.5511282604
    1: -1, 3: -1 :       -56.5511290214
    2: 1, 3: 1   :       -56.5511238715
    2: -1, 3: -1 :       -56.5511274020
    4: -1        :       -56.5511319379
    5: -1        :       -56.5511335106
    4: 1, 5: 1   :       -56.5511342137
    4: -1, 5: -1 :       -56.5511342144

-------------------------------------------------------------


  ==> Harmonic Vibrational Analysis <==

  non-mass-weighted Hessian:       Symmetric? True   Hermitian? True   Lin Dep Dim?  6 (0)
  projection of translations (True) and rotations (True) removed 6 degrees of freedom (6)
  total projector:                 Symmetric? True   Hermitian? True   Lin Dep Dim?  6 (6)
  mass-weighted Hessian:           Symmetric? True   Hermitian? True   Lin Dep Dim?  6 (0)
  pre-proj  low-frequency mode:    0.0000i [cm^-1]
  pre-proj  low-frequency mode:    0.0000i [cm^-1]
  pre-proj  low-frequency mode:    0.0000i [cm^-1]
  pre-proj  low-frequency mode:    0.0000i [cm^-1]
  pre-proj  low-frequency mode:    0.0000  [cm^-1]
  pre-proj  low-frequency mode:    0.0000  [cm^-1]
  pre-proj  all modes:['0.0001i' '0.0000i' '0.0000i' '0.0000i' '0.0000' '0.0000' '1026.1770'
 '1297.8648' '1659.3266' '3496.5794' '3522.6138' '3616.2952']
  projected mass-weighted Hessian: Symmetric? True   Hermitian? True   Lin Dep Dim?  6 (6)
  post-proj low-frequency mode:    0.0000i [cm^-1] (TR)
  post-proj low-frequency mode:    0.0000i [cm^-1] (TR)
  post-proj low-frequency mode:    0.0000i [cm^-1] (TR)
  post-proj low-frequency mode:    0.0000  [cm^-1] (TR)
  post-proj low-frequency mode:    0.0000  [cm^-1] (TR)
  post-proj low-frequency mode:    0.0001  [cm^-1] (TR)
  post-proj  all modes:['0.0000i' '0.0000i' '0.0000i' '0.0000' '0.0000' '0.0001' '1026.1770'
 '1297.8648' '1659.3266' '3496.5794' '3522.6138' '3616.2952']

  Vibration                       7                   8                   9           
  Freq [cm^-1]                1026.1770           1297.8648           1659.3266       
  Irrep                           Ap                 App                  Ap          
  Reduced mass [u]              1.1814              1.0553              1.0667        
  Force const [mDyne/A]         0.7330              1.0474              1.7305        
  Turning point v=0 [a0]        0.3151              0.2965              0.2608        
  RMS dev v=0 [a0 u^1/2]        0.2422              0.2154              0.1905        
  Char temp [K]               1476.4403           1867.3384           2387.4015       
  ----------------------------------------------------------------------------------
      1   N               -0.07 -0.09  0.00   -0.00 -0.00 -0.06   -0.05  0.04 -0.00   
      2   H                0.26  0.48 -0.18   -0.19  0.41  0.04    0.49 -0.25 -0.39   
      3   H                0.26  0.48  0.18    0.19 -0.41  0.04    0.49 -0.25  0.39   
      4   H                0.50  0.28 -0.00    0.00  0.00  0.76   -0.27 -0.10  0.00   

  Vibration                       10                  11                  12          
  Freq [cm^-1]                3496.5794           3522.6138           3616.2952       
  Irrep                           Ap                 App                  Ap          
  Reduced mass [u]              1.0262              1.1020              1.0899        
  Force const [mDyne/A]         7.3918              8.0569              8.3976        
  Turning point v=0 [a0]        0.1832              0.1761              0.1748        
  RMS dev v=0 [a0 u^1/2]        0.1312              0.1307              0.1290        
  Char temp [K]               5030.7993           5068.2569           5203.0437       
  ----------------------------------------------------------------------------------
      1   N               -0.02 -0.03 -0.00    0.00  0.00 -0.09    0.06 -0.05 -0.00   
      2   H                0.32 -0.04  0.48    0.41  0.01  0.57   -0.23 -0.00 -0.34   
      3   H                0.32 -0.04 -0.48   -0.41 -0.01  0.57   -0.23 -0.00  0.34   
      4   H               -0.31  0.49  0.00    0.00 -0.00  0.04   -0.39  0.71  0.00   

  ==> Thermochemistry Components <==

  Entropy, S
    Electronic S            0.000 [cal/(mol K)]        0.000 [J/(mol K)]       0.00000000 [mEh/K] (multiplicity = 1)
    Translational S        34.441 [cal/(mol K)]      144.100 [J/(mol K)]       0.05488488 [mEh/K] (mol. weight = 17.0265 [u], P = 101325.00 [Pa])
    Rotational S           13.612 [cal/(mol K)]       56.951 [J/(mol K)]       0.02169162 [mEh/K] (symmetry no. = 1)
    Vibrational S           0.118 [cal/(mol K)]        0.492 [J/(mol K)]       0.00018753 [mEh/K]
  Total S                  48.170 [cal/(mol K)]      201.544 [J/(mol K)]       0.07676403 [mEh/K]
  Correction S              0.000 [cal/(mol K)]        0.000 [J/(mol K)]       0.00000000 [mEh/K]

  Constant volume heat capacity, Cv
    Electronic Cv           0.000 [cal/(mol K)]        0.000 [J/(mol K)]       0.00000000 [mEh/K]
    Translational Cv        2.981 [cal/(mol K)]       12.472 [J/(mol K)]       0.00475022 [mEh/K]
    Rotational Cv           2.981 [cal/(mol K)]       12.472 [J/(mol K)]       0.00475022 [mEh/K]
    Vibrational Cv          0.541 [cal/(mol K)]        2.264 [J/(mol K)]       0.00086218 [mEh/K]
  Total Cv                  6.503 [cal/(mol K)]       27.207 [J/(mol K)]       0.01036261 [mEh/K]
  Correction Cv             0.000 [cal/(mol K)]        0.000 [J/(mol K)]       0.00000000 [mEh/K]

  Constant pressure heat capacity, Cp
    Electronic Cp           0.000 [cal/(mol K)]        0.000 [J/(mol K)]       0.00000000 [mEh/K]
    Translational Cp        4.968 [cal/(mol K)]       20.786 [J/(mol K)]       0.00791703 [mEh/K]
    Rotational Cp           2.981 [cal/(mol K)]       12.472 [J/(mol K)]       0.00475022 [mEh/K]
    Vibrational Cp          0.541 [cal/(mol K)]        2.264 [J/(mol K)]       0.00086218 [mEh/K]
  Total Cp                  8.490 [cal/(mol K)]       35.521 [J/(mol K)]       0.01352942 [mEh/K]
  Correction Cp             0.000 [cal/(mol K)]        0.000 [J/(mol K)]       0.00000000 [mEh/K]

  ==> Thermochemistry Energy Analysis <==

  Raw electronic energy, E0
  Total E0, Electronic energy at well bottom at 0 [K]                  -56.55113606 [Eh]

  Zero-point energy, ZPE_vib = Sum_i nu_i / 2
    Electronic ZPE          0.000 [kcal/mol]        0.000 [kJ/mol]       0.00000000 [Eh]
    Translational ZPE       0.000 [kcal/mol]        0.000 [kJ/mol]       0.00000000 [Eh]
    Rotational ZPE          0.000 [kcal/mol]        0.000 [kJ/mol]       0.00000000 [Eh]
    Vibrational ZPE        20.899 [kcal/mol]       87.440 [kJ/mol]       0.03330421 [Eh]        7309.428 [cm^-1]
  Correction ZPE           20.899 [kcal/mol]       87.440 [kJ/mol]       0.03330421 [Eh]        7309.428 [cm^-1]
  Total ZPE, Electronic energy at 0 [K]                                -56.51783185 [Eh]

  Thermal Energy, E (includes ZPE)
    Electronic E            0.000 [kcal/mol]        0.000 [kJ/mol]       0.00000000 [Eh]
    Translational E         0.889 [kcal/mol]        3.718 [kJ/mol]       0.00141628 [Eh]
    Rotational E            0.889 [kcal/mol]        3.718 [kJ/mol]       0.00141628 [Eh]
    Vibrational E          20.928 [kcal/mol]       87.564 [kJ/mol]       0.03335130 [Eh]
  Correction E             22.706 [kcal/mol]       95.001 [kJ/mol]       0.03618386 [Eh]
  Total E, Electronic energy at  298.15 [K]                            -56.51495220 [Eh]

  Enthalpy, H_trans = E_trans + k_B * T
    Electronic H            0.000 [kcal/mol]        0.000 [kJ/mol]       0.00000000 [Eh]
    Translational H         1.481 [kcal/mol]        6.197 [kJ/mol]       0.00236046 [Eh]
    Rotational H            0.889 [kcal/mol]        3.718 [kJ/mol]       0.00141628 [Eh]
    Vibrational H          20.928 [kcal/mol]       87.564 [kJ/mol]       0.03335130 [Eh]
  Correction H             23.298 [kcal/mol]       97.480 [kJ/mol]       0.03712804 [Eh]
  Total H, Enthalpy at  298.15 [K]                                     -56.51400802 [Eh]

  Gibbs free energy, G = H - T * S
    Electronic G            0.000 [kcal/mol]        0.000 [kJ/mol]       0.00000000 [Eh]
    Translational G        -8.787 [kcal/mol]      -36.766 [kJ/mol]      -0.01400347 [Eh]
    Rotational G           -3.170 [kcal/mol]      -13.262 [kJ/mol]      -0.00505108 [Eh]
    Vibrational G          20.893 [kcal/mol]       87.417 [kJ/mol]       0.03329539 [Eh]
  Correction G              8.936 [kcal/mol]       37.389 [kJ/mol]       0.01424085 [Eh]
  Total G, Free enthalpy at  298.15 [K]                                -56.53689521 [Eh]

    Psi4 stopped on: Tuesday, 27 April 2021 05:36PM
    Psi4 wall time for execution: 0:03:53.96

*** Psi4 exiting successfully. Buy a developer a beer!
