
    -----------------------------------------------------------------------
          Psi4: An Open-Source Ab Initio Electronic Structure Package
                               Psi4 1.3.2 release

                         Git: Rev {HEAD} ecbda83 


    R. M. Parrish, L. A. Burns, D. G. A. Smith, A. C. Simmonett,
    A. E. DePrince III, E. G. Hohenstein, U. Bozkaya, A. Yu. Sokolov,
    R. Di Remigio, R. M. Richard, J. F. Gonthier, A. M. James,
    H. R. McAlexander, A. Kumar, M. Saitow, X. Wang, B. P. Pritchard,
    P. Verma, H. F. Schaefer III, K. Patkowski, R. A. King, E. F. Valeev,
    F. A. Evangelista, J. M. Turney, T. D. Crawford, and C. D. Sherrill,
    J. Chem. Theory Comput. 13(7) pp 3185--3197 (2017).
    (doi: 10.1021/acs.jctc.7b00174)


                         Additional Contributions by
    P. Kraus, H. Kruse, M. H. Lechner, M. C. Schieber, R. A. Shaw,
    A. Alenaizan, R. Galvelis, Z. L. Glick, S. Lehtola, and J. P. Misiewicz

    -----------------------------------------------------------------------


    Psi4 started on: Tuesday, 27 April 2021 05:34PM

    Process ID: 211559
    Host:       bp1-compute00099.data.bp.acrc.priv
    PSIDATADIR: /work/zw18965/.conda/envs/p4env/share/psi4
    Memory:     500.0 MiB
    Threads:    24
    
  ==> Input File <==

--------------------------------------------------------------------------
memory 144 GB

molecule {
0 3
S 0.0000000000 0.0000000000 0.0000000000
S 0.0000000000 0.0000000000 1.8968845900
}

set reference uks
set dynamic_level 1
set basis aug-cc-pV(T+d)Z
 
optimize("wB97M-V")
frequencies("wB97M-V")
--------------------------------------------------------------------------

  Memory set to 134.110 GiB by Python driver.
gradient() will perform gradient computation by finite difference of analytic energies.

         ----------------------------------------------------------
                                   FINDIF
                     R. A. King and Jonathon Misiewicz
         ---------------------------------------------------------

  Using finite-differences of energies to determine gradients.
    Generating geometries for use with 3-point formula.
    Displacement size will be 5.00e-03.
    Number of atoms is 2.
    Number of symmetric SALCs is 1.
    Translations projected? 1. Rotations projected? 1.
    Number of geometries (including reference) is 3.

  //>>>>>>>>>>>>>>>>>>>>>>>>>>>>>>>>>>>//
  //    Loading displacement 1 of 3    //
  //<<<<<<<<<<<<<<<<<<<<<<<<<<<<<<<<<<<//

*** tstart() called on bp1-compute00099.data.bp.acrc.priv
*** at Tue Apr 27 17:34:56 2021

   => Loading Basis Set <=

    Name: AUG-CC-PV(T+D)Z
    Role: ORBITAL
    Keyword: BASIS
    atoms 1-2 entry S          line   928 file /work/zw18965/.conda/envs/p4env/share/psi4/basis/aug-cc-pv_tpd_z.gbs 


         ---------------------------------------------------------
                                   SCF
               by Justin Turney, Rob Parrish, Andy Simmonett
                          and Daniel G. A. Smith
                              UKS Reference
                       24 Threads, 137329 MiB Core
         ---------------------------------------------------------

  ==> Geometry <==

    Molecular point group: d2h
    Full point group: D_inf_h

    Geometry (in Angstrom), charge = 0, multiplicity = 3:

       Center              X                  Y                   Z               Mass       
    ------------   -----------------  -----------------  -----------------  -----------------
         S            0.000000000000     0.000000000000    -0.948442295000    31.972071174400
         S            0.000000000000     0.000000000000     0.948442295000    31.972071174400

  Running in d2h symmetry.

  Rotational constants: A = ************  B =      0.29307  C =      0.29307 [cm^-1]
  Rotational constants: A = ************  B =   8786.06895  C =   8786.06895 [MHz]
  Nuclear repulsion =   71.416767601828639

  Charge       = 0
  Multiplicity = 3
  Electrons    = 32
  Nalpha       = 17
  Nbeta        = 15

  ==> Algorithm <==

  SCF Algorithm Type is DF.
  DIIS enabled.
  MOM disabled.
  Fractional occupation disabled.
  Guess Type is SAD.
  Energy threshold   = 1.00e-08
  Density threshold  = 1.00e-08
  Integral threshold = 0.00e+00

  ==> Primary Basis <==

  Basis Set: AUG-CC-PV(T+D)Z
    Blend: AUG-CC-PV(T+D)Z
    Number of shells: 34
    Number of basis function: 110
    Number of Cartesian functions: 130
    Spherical Harmonics?: true
    Max angular momentum: 3

  ==> DFT Potential <==

   => Composite Functional: WB97M-V <= 

    wB97M-V Hyb-GGA Exchange-Correlation Functional

    N. Mardirossian and M. Head-Gordon, J. Chem. Phys. 144, 214110 (2016)

    Deriv               =              1
    GGA                 =           TRUE
    Meta                =           TRUE

    Exchange Hybrid     =           TRUE
    MP2 Hybrid          =          FALSE

   => Exchange-Correlation Functionals <=

    1.0000   wB97M-V exchange-correlation functional

   => Exact (HF) Exchange <=

    0.8500            HF,LR [omega = 0.3000]
    0.1500               HF 

   => VV10 Non-Local Parameters <=

    VV10 B              =     6.0000E+00
    VV10 C              =     1.0000E-02

   => Molecular Quadrature <=

    Radial Scheme          =       TREUTLER
    Pruning Scheme         =           FLAT
    Nuclear Scheme         =       TREUTLER

    BS radius alpha        =              1
    Pruning alpha          =              1
    Radial Points          =             75
    Spherical Points       =            302
    Total Points           =          44898
    Total Blocks           =            424
    Max Points             =            255
    Max Functions          =            110

   => Loading Basis Set <=

    Name: (AUG-CC-PV(T+D)Z AUX)
    Role: JKFIT
    Keyword: DF_BASIS_SCF
    atoms 1-2 entry S          line   730 file /work/zw18965/.conda/envs/p4env/share/psi4/basis/aug-cc-pvtz-jkfit.gbs 

  ==> Pre-Iterations <==

   -------------------------------------------------------
    Irrep   Nso     Nmo     Nalpha   Nbeta   Ndocc  Nsocc
   -------------------------------------------------------
     Ag        23      23       0       0       0       0
     B1g        6       6       0       0       0       0
     B2g       13      13       0       0       0       0
     B3g       13      13       0       0       0       0
     Au         6       6       0       0       0       0
     B1u       23      23       0       0       0       0
     B2u       13      13       0       0       0       0
     B3u       13      13       0       0       0       0
   -------------------------------------------------------
    Total     110     110      17      15      15       2
   -------------------------------------------------------

  ==> Integral Setup <==

  ==> DiskDFJK: Density-Fitted J/K Matrices <==

    J tasked:                  Yes
    K tasked:                  Yes
    wK tasked:                 Yes
    Omega:               3.000E-01
    OpenMP threads:             24
    Integrals threads:          24
    Memory [MiB]:           102663
    Algorithm:                Core
    Integral Cache:           NONE
    Schwarz Cutoff:          1E-12
    Fitting Condition:       1E-10

   => Auxiliary Basis Set <=

  Basis Set: (AUG-CC-PV(T+D)Z AUX)
    Blend: AUG-CC-PVTZ-JKFIT
    Number of shells: 84
    Number of basis function: 292
    Number of Cartesian functions: 360
    Spherical Harmonics?: true
    Max angular momentum: 4

  Cached 100.0% of DFT collocation blocks in 0.326 [GiB].

  Minimum eigenvalue in the overlap matrix is 2.1617586799E-04.
  Using Symmetric Orthogonalization.

  SCF Guess: Superposition of Atomic Densities via on-the-fly atomic UHF.

  ==> Iterations <==

                           Total Energy        Delta E     RMS |[F,P]|

   @DF-UKS iter SAD:  -796.01279912397024   -7.96013e+02   0.00000e+00 
   @DF-UKS iter   1:  -796.34864567146099   -3.35847e-01   5.30393e-03 DIIS
   @DF-UKS iter   2:  -796.36293783944222   -1.42922e-02   1.85029e-03 DIIS
   @DF-UKS iter   3:  -796.36441084430430   -1.47300e-03   2.14825e-04 DIIS
   @DF-UKS iter   4:  -796.36454830031107   -1.37456e-04   4.21939e-05 DIIS
   @DF-UKS iter   5:  -796.36455339292706   -5.09262e-06   1.96964e-05 DIIS
   @DF-UKS iter   6:  -796.36455379649908   -4.03572e-07   4.33855e-06 DIIS
   @DF-UKS iter   7:  -796.36455384310011   -4.66010e-08   7.96535e-07 DIIS
   @DF-UKS iter   8:  -796.36455384518342   -2.08331e-09   1.35791e-07 DIIS
   @DF-UKS iter   9:  -796.36455384524470   -6.12772e-11   2.00727e-08 DIIS
   @DF-UKS iter  10:  -796.36455384524606   -1.36424e-12   3.48891e-09 DIIS
  Energy and wave function converged.


  ==> Post-Iterations <==

   @Spin Contamination Metric:   9.222391247E-03
   @S^2 Expected:                2.000000000E+00
   @S^2 Observed:                2.009222391E+00
   @S   Expected:                1.000000000E+00
   @S   Observed:                1.000000000E+00

    Orbital Energies [Eh]
    ---------------------

    Alpha Occupied:                                                       

       1B1u  -89.261171     1Ag   -89.261168     2Ag    -8.171953  
       2B1u   -8.171794     1B3u   -6.081169     1B2u   -6.081169  
       1B2g   -6.081129     1B3g   -6.081129     3Ag    -6.079487  
       3B1u   -6.078761     4Ag    -0.959459     4B1u   -0.746641  
       5Ag    -0.495619     2B2u   -0.478495     2B3u   -0.478495  
       2B2g   -0.333383     2B3g   -0.333383  

    Alpha Virtual:                                                        

       5B1u    0.028062     6Ag     0.065388     3B2u    0.066979  
       3B3u    0.066979     7Ag     0.082460     3B3g    0.095393  
       3B2g    0.095393     6B1u    0.096530     1B1g    0.180905  
       8Ag     0.180905     7B1u    0.195721     4B3u    0.227858  
       4B2u    0.227858     9Ag     0.265566     1Au     0.289948  
       8B1u    0.289950     4B2g    0.356821     4B3g    0.356821  
       9B1u    0.360108     5B2u    0.447881     5B3u    0.447881  
       6B2u    0.525349     6B3u    0.525349    10Ag     0.542098  
      11Ag     0.542457     2B1g    0.542460    12Ag     0.546079  
      10B1u    0.548321     5B3g    0.567127     5B2g    0.567127  
      11B1u    0.624759     2Au     0.624760    13Ag     0.655622  
       7B2u    0.700619     7B3u    0.700619     6B2g    0.716505  
       6B3g    0.716505     3B1g    0.776434    14Ag     0.776435  
       7B2g    0.851723     7B3g    0.851723    12B1u    0.853919  
       8B2u    1.018357     8B3u    1.018357    13B1u    1.045281  
       3Au     1.045287    14B1u    1.086497     8B3g    1.177624  
       8B2g    1.177624    15Ag     1.266039    15B1u    1.379066  
       4B1g    1.643658    16Ag     1.643692     9B2u    1.712914  
       9B3u    1.712914    16B1u    1.725607     4Au     1.725862  
      17B1u    1.725900     9B3g    1.860251     9B2g    1.860251  
      17Ag     1.902746    18Ag     1.994487    10B2u    1.998601  
      10B3u    1.998601    19Ag     2.001195     5B1g    2.001218  
      11B3u    2.064573    11B2u    2.064573    12B3u    2.066400  
      12B2u    2.066400    10B2g    2.139899    10B3g    2.139899  
      18B1u    2.305188     5Au     2.305215    11B3g    2.317797  
      11B2g    2.317797    19B1u    2.428425    20Ag     2.639757  
      12B3g    2.646168    12B2g    2.646168    20B1u    3.623467  
      21Ag     4.601271    21B1u    5.294180     6B1g    6.846629  
      22Ag     6.846681     6Au     6.881717    22B1u    6.881771  
      13B2u    6.882956    13B3u    6.882956    23Ag     6.994710  
      13B3g    7.018826    13B2g    7.018826    23B1u    7.282748  

    Beta Occupied:                                                        

       1B1u  -89.254948     1Ag   -89.254947     2Ag    -8.165760  
       2B1u   -8.165531     3Ag    -6.075617     3B1u   -6.074890  
       1B3u   -6.067779     1B2u   -6.067779     1B2g   -6.067723  
       1B3g   -6.067723     4Ag    -0.933966     4B1u   -0.690852  
       5Ag    -0.469823     2B2u   -0.422603     2B3u   -0.422603  

    Beta Virtual:                                                         

       2B3g   -0.062566     2B2g   -0.062566     5B1u    0.028881  
       6Ag     0.063996     3B2u    0.066175     3B3u    0.066175  
       7Ag     0.085145     3B3g    0.096329     3B2g    0.096329  
       6B1u    0.111747     8Ag     0.189161     1B1g    0.189162  
       7B1u    0.196767     4B2u    0.247578     4B3u    0.247578  
       9Ag     0.270064     1Au     0.298123     8B1u    0.298124  
       4B2g    0.358850     4B3g    0.358850     9B1u    0.362553  
       5B2u    0.457723     5B3u    0.457723    10Ag     0.540671  
       6B2u    0.544236     6B3u    0.544236    10B1u    0.556604  
      11Ag     0.558305    12Ag     0.561802     2B1g    0.561805  
       5B3g    0.572459     5B2g    0.572459     2Au     0.658744  
      11B1u    0.658747    13Ag     0.669548     7B2u    0.705735  
       7B3u    0.705735     6B2g    0.738550     6B3g    0.738550  
       3B1g    0.787682    14Ag     0.787689     7B2g    0.858227  
       7B3g    0.858227    12B1u    0.869073     8B2u    1.025019  
       8B3u    1.025019    13B1u    1.051326     3Au     1.051344  
      14B1u    1.091810     8B3g    1.189123     8B2g    1.189123  
      15Ag     1.295611    15B1u    1.410909     4B1g    1.691817  
      16Ag     1.691838     9B2u    1.730098     9B3u    1.730098  
      16B1u    1.738461     4Au     1.773614    17B1u    1.773634  
       9B3g    1.905162     9B2g    1.905162    17Ag     1.911853  
      18Ag     2.012106    10B3u    2.022836    10B2u    2.022836  
      19Ag     2.029921     5B1g    2.029924    11B3u    2.118000  
      11B2u    2.118000    12B3u    2.118815    12B2u    2.118815  
      10B2g    2.190113    10B3g    2.190113    18B1u    2.339040  
       5Au     2.339051    11B3g    2.350104    11B2g    2.350104  
      19B1u    2.450361    20Ag     2.655596    12B3g    2.677102  
      12B2g    2.677102    20B1u    3.634094    21Ag     4.627090  
      21B1u    5.315985     6B1g    6.860176    22Ag     6.860208  
      13B2u    6.889063    13B3u    6.889063     6Au     6.896036  
      22B1u    6.896069    23Ag     7.000085    13B3g    7.026118  
      13B2g    7.026118    23B1u    7.288166  

    Final Occupation by Irrep:
             Ag   B1g   B2g   B3g    Au   B1u   B2u   B3u 
    DOCC [     5,    0,    1,    1,    0,    4,    2,    2 ]
    SOCC [     0,    0,    1,    1,    0,    0,    0,    0 ]

  @DF-UKS Final Energy:  -796.36455384524606

   => Energetics <=

    Nuclear Repulsion Energy =             71.4167676018286386
    One-Electron Energy =               -1241.4188329528224131
    Two-Electron Energy =                 413.0737660498712671
    DFT Exchange-Correlation Energy =     -39.5698351802853452
    Empirical Dispersion Energy =           0.0000000000000000
    VV10 Nonlocal Energy =                  0.1335806361617721
    Total Energy =                       -796.3645538452460642

  UHF NO Occupations:
  HONO-2 :    2B2u 1.9979530
  HONO-1 :    2B2g 1.0000000
  HONO-0 :    2B3g 1.0000000
  LUNO+0 :    3B2u 0.0020470
  LUNO+1 :    3B3u 0.0020470
  LUNO+2 :    5B1u 0.0002617
  LUNO+3 :    6 Ag 0.0002061


Computation Completed


Properties will be evaluated at   0.000000,   0.000000,   0.000000 [a0]

Properties computed using the SCF density matrix

  Nuclear Dipole Moment: [e a0]
     X:     0.0000      Y:     0.0000      Z:     0.0000

  Electronic Dipole Moment: [e a0]
     X:     0.0000      Y:     0.0000      Z:     0.0000

  Dipole Moment: [e a0]
     X:     0.0000      Y:     0.0000      Z:     0.0000     Total:     0.0000

  Dipole Moment: [D]
     X:     0.0000      Y:     0.0000      Z:     0.0000     Total:     0.0000


*** tstop() called on bp1-compute00099.data.bp.acrc.priv at Tue Apr 27 17:35:04 2021
Module time:
	user time   =     171.45 seconds =       2.86 minutes
	system time =       8.44 seconds =       0.14 minutes
	total time  =          8 seconds =       0.13 minutes
Total time:
	user time   =     171.45 seconds =       2.86 minutes
	system time =       8.44 seconds =       0.14 minutes
	total time  =          8 seconds =       0.13 minutes

  //>>>>>>>>>>>>>>>>>>>>>>>>>>>>>>>>>>>//
  //    Loading displacement 2 of 3    //
  //<<<<<<<<<<<<<<<<<<<<<<<<<<<<<<<<<<<//

*** tstart() called on bp1-compute00099.data.bp.acrc.priv
*** at Tue Apr 27 17:35:04 2021

   => Loading Basis Set <=

    Name: AUG-CC-PV(T+D)Z
    Role: ORBITAL
    Keyword: BASIS
    atoms 1-2 entry S          line   928 file /work/zw18965/.conda/envs/p4env/share/psi4/basis/aug-cc-pv_tpd_z.gbs 


         ---------------------------------------------------------
                                   SCF
               by Justin Turney, Rob Parrish, Andy Simmonett
                          and Daniel G. A. Smith
                              UKS Reference
                       24 Threads, 137329 MiB Core
         ---------------------------------------------------------

  ==> Geometry <==

    Molecular point group: d2h
    Full point group: D_inf_h

    Geometry (in Angstrom), charge = 0, multiplicity = 3:

       Center              X                  Y                   Z               Mass       
    ------------   -----------------  -----------------  -----------------  -----------------
         S            0.000000000000     0.000000000000    -0.948773175180    31.972071174400
         S            0.000000000000     0.000000000000     0.948773175180    31.972071174400

  Running in d2h symmetry.

  Rotational constants: A = ************  B =      0.29287  C =      0.29287 [cm^-1]
  Rotational constants: A = ************  B =   8779.94182  C =   8779.94182 [MHz]
  Nuclear repulsion =   71.391861340186367

  Charge       = 0
  Multiplicity = 3
  Electrons    = 32
  Nalpha       = 17
  Nbeta        = 15

  ==> Algorithm <==

  SCF Algorithm Type is DF.
  DIIS enabled.
  MOM disabled.
  Fractional occupation disabled.
  Guess Type is SAD.
  Energy threshold   = 1.00e-08
  Density threshold  = 1.00e-08
  Integral threshold = 0.00e+00

  ==> Primary Basis <==

  Basis Set: AUG-CC-PV(T+D)Z
    Blend: AUG-CC-PV(T+D)Z
    Number of shells: 34
    Number of basis function: 110
    Number of Cartesian functions: 130
    Spherical Harmonics?: true
    Max angular momentum: 3

  ==> DFT Potential <==

   => Composite Functional: WB97M-V <= 

    wB97M-V Hyb-GGA Exchange-Correlation Functional

    N. Mardirossian and M. Head-Gordon, J. Chem. Phys. 144, 214110 (2016)

    Deriv               =              1
    GGA                 =           TRUE
    Meta                =           TRUE

    Exchange Hybrid     =           TRUE
    MP2 Hybrid          =          FALSE

   => Exchange-Correlation Functionals <=

    1.0000   wB97M-V exchange-correlation functional

   => Exact (HF) Exchange <=

    0.8500            HF,LR [omega = 0.3000]
    0.1500               HF 

   => VV10 Non-Local Parameters <=

    VV10 B              =     6.0000E+00
    VV10 C              =     1.0000E-02

   => Molecular Quadrature <=

    Radial Scheme          =       TREUTLER
    Pruning Scheme         =           FLAT
    Nuclear Scheme         =       TREUTLER

    BS radius alpha        =              1
    Pruning alpha          =              1
    Radial Points          =             75
    Spherical Points       =            302
    Total Points           =          44898
    Total Blocks           =            424
    Max Points             =            255
    Max Functions          =            110

   => Loading Basis Set <=

    Name: (AUG-CC-PV(T+D)Z AUX)
    Role: JKFIT
    Keyword: DF_BASIS_SCF
    atoms 1-2 entry S          line   730 file /work/zw18965/.conda/envs/p4env/share/psi4/basis/aug-cc-pvtz-jkfit.gbs 

  ==> Pre-Iterations <==

   -------------------------------------------------------
    Irrep   Nso     Nmo     Nalpha   Nbeta   Ndocc  Nsocc
   -------------------------------------------------------
     Ag        23      23       0       0       0       0
     B1g        6       6       0       0       0       0
     B2g       13      13       0       0       0       0
     B3g       13      13       0       0       0       0
     Au         6       6       0       0       0       0
     B1u       23      23       0       0       0       0
     B2u       13      13       0       0       0       0
     B3u       13      13       0       0       0       0
   -------------------------------------------------------
    Total     110     110      17      15      15       2
   -------------------------------------------------------

  ==> Integral Setup <==

  ==> DiskDFJK: Density-Fitted J/K Matrices <==

    J tasked:                  Yes
    K tasked:                  Yes
    wK tasked:                 Yes
    Omega:               3.000E-01
    OpenMP threads:             24
    Integrals threads:          24
    Memory [MiB]:           102663
    Algorithm:                Core
    Integral Cache:           NONE
    Schwarz Cutoff:          1E-12
    Fitting Condition:       1E-10

   => Auxiliary Basis Set <=

  Basis Set: (AUG-CC-PV(T+D)Z AUX)
    Blend: AUG-CC-PVTZ-JKFIT
    Number of shells: 84
    Number of basis function: 292
    Number of Cartesian functions: 360
    Spherical Harmonics?: true
    Max angular momentum: 4

  Cached 100.0% of DFT collocation blocks in 0.326 [GiB].

  Minimum eigenvalue in the overlap matrix is 2.1651183944E-04.
  Using Symmetric Orthogonalization.

  SCF Guess: Superposition of Atomic Densities via on-the-fly atomic UHF.

  ==> Iterations <==

                           Total Energy        Delta E     RMS |[F,P]|

   @DF-UKS iter SAD:  -796.01177024929302   -7.96012e+02   0.00000e+00 
   @DF-UKS iter   1:  -796.34864239008039   -3.36872e-01   5.30282e-03 DIIS
   @DF-UKS iter   2:  -796.36292711427859   -1.42847e-02   1.85008e-03 DIIS
   @DF-UKS iter   3:  -796.36439973535744   -1.47262e-03   2.14721e-04 DIIS
   @DF-UKS iter   4:  -796.36453717668405   -1.37441e-04   4.20233e-05 DIIS
   @DF-UKS iter   5:  -796.36454228851790   -5.11183e-06   1.92483e-05 DIIS
   @DF-UKS iter   6:  -796.36454267730710   -3.88789e-07   4.38226e-06 DIIS
   @DF-UKS iter   7:  -796.36454272376409   -4.64570e-08   7.97591e-07 DIIS
   @DF-UKS iter   8:  -796.36454272584774   -2.08365e-09   1.35801e-07 DIIS
   @DF-UKS iter   9:  -796.36454272590902   -6.12772e-11   2.00690e-08 DIIS
   @DF-UKS iter  10:  -796.36454272591027   -1.25056e-12   3.48812e-09 DIIS
  Energy and wave function converged.


  ==> Post-Iterations <==

   @Spin Contamination Metric:   9.227677570E-03
   @S^2 Expected:                2.000000000E+00
   @S^2 Observed:                2.009227678E+00
   @S   Expected:                1.000000000E+00
   @S   Observed:                1.000000000E+00

    Orbital Energies [Eh]
    ---------------------

    Alpha Occupied:                                                       

       1B1u  -89.261231     1Ag   -89.261228     2Ag    -8.171993  
       2B1u   -8.171835     1B2u   -6.081211     1B3u   -6.081211  
       1B3g   -6.081170     1B2g   -6.081170     3Ag    -6.079528  
       3B1u   -6.078805     4Ag    -0.959294     4B1u   -0.746717  
       5Ag    -0.495576     2B3u   -0.478413     2B2u   -0.478413  
       2B2g   -0.333458     2B3g   -0.333458  

    Alpha Virtual:                                                        

       5B1u    0.028016     6Ag     0.065385     3B3u    0.066985  
       3B2u    0.066985     7Ag     0.082470     3B2g    0.095389  
       3B3g    0.095389     6B1u    0.096385     1B1g    0.180918  
       8Ag     0.180919     7B1u    0.195701     4B3u    0.227832  
       4B2u    0.227832     9Ag     0.265610     1Au     0.289917  
       8B1u    0.289919     4B2g    0.356808     4B3g    0.356808  
       9B1u    0.360016     5B2u    0.447919     5B3u    0.447919  
       6B3u    0.525344     6B2u    0.525344    10Ag     0.542143  
      11Ag     0.542504     2B1g    0.542507    12Ag     0.546135  
      10B1u    0.548352     5B3g    0.567103     5B2g    0.567103  
      11B1u    0.624725     2Au     0.624725    13Ag     0.655469  
       7B2u    0.700642     7B3u    0.700642     6B2g    0.716366  
       6B3g    0.716366     3B1g    0.776340    14Ag     0.776341  
       7B3g    0.851668     7B2g    0.851668    12B1u    0.853637  
       8B3u    1.018232     8B2u    1.018232    13B1u    1.045184  
       3Au     1.045191    14B1u    1.086166     8B2g    1.177529  
       8B3g    1.177529    15Ag     1.265856    15B1u    1.379060  
       4B1g    1.643631    16Ag     1.643665     9B3u    1.712997  
       9B2u    1.712997    16B1u    1.725733     4Au     1.725794  
      17B1u    1.725832     9B3g    1.860360     9B2g    1.860360  
      17Ag     1.902846    18Ag     1.994652    10B2u    1.998470  
      10B3u    1.998470    19Ag     2.001396     5B1g    2.001419  
      11B2u    2.064405    11B3u    2.064405    12B3u    2.066444  
      12B2u    2.066444    10B2g    2.139839    10B3g    2.139839  
      18B1u    2.304919     5Au     2.304946    11B2g    2.317373  
      11B3g    2.317373    19B1u    2.428053    20Ag     2.638448  
      12B2g    2.645693    12B3g    2.645693    20B1u    3.623943  
      21Ag     4.600066    21B1u    5.293350     6B1g    6.846600  
      22Ag     6.846651     6Au     6.881658    22B1u    6.881711  
      13B3u    6.883026    13B2u    6.883026    23Ag     6.995049  
      13B2g    7.018572    13B3g    7.018572    23B1u    7.281125  

    Beta Occupied:                                                        

       1B1u  -89.255007     1Ag   -89.255006     2Ag    -8.165800  
       2B1u   -8.165572     3Ag    -6.075657     3B1u   -6.074934  
       1B2u   -6.067819     1B3u   -6.067819     1B3g   -6.067763  
       1B2g   -6.067763     4Ag    -0.933786     4B1u   -0.690931  
       5Ag    -0.469788     2B2u   -0.422499     2B3u   -0.422499  

    Beta Virtual:                                                         

       2B2g   -0.062644     2B3g   -0.062644     5B1u    0.028853  
       6Ag     0.063995     3B3u    0.066187     3B2u    0.066187  
       7Ag     0.085158     3B2g    0.096327     3B3g    0.096327  
       6B1u    0.111597     8Ag     0.189176     1B1g    0.189176  
       7B1u    0.196741     4B2u    0.247549     4B3u    0.247549  
       9Ag     0.270111     1Au     0.298100     8B1u    0.298101  
       4B2g    0.358843     4B3g    0.358843     9B1u    0.362462  
       5B3u    0.457767     5B2u    0.457767    10Ag     0.540708  
       6B2u    0.544226     6B3u    0.544226    10B1u    0.556633  
      11Ag     0.558374    12Ag     0.561857     2B1g    0.561860  
       5B2g    0.572440     5B3g    0.572440     2Au     0.658706  
      11B1u    0.658709    13Ag     0.669397     7B2u    0.705757  
       7B3u    0.705757     6B2g    0.738412     6B3g    0.738412  
       3B1g    0.787582    14Ag     0.787589     7B3g    0.858172  
       7B2g    0.858172    12B1u    0.868795     8B3u    1.024892  
       8B2u    1.024892    13B1u    1.051225     3Au     1.051242  
      14B1u    1.091467     8B2g    1.189020     8B3g    1.189020  
      15Ag     1.295406    15B1u    1.410935     4B1g    1.691795  
      16Ag     1.691815     9B2u    1.730199     9B3u    1.730199  
      16B1u    1.738561     4Au     1.773548    17B1u    1.773569  
       9B3g    1.905259     9B2g    1.905259    17Ag     1.911947  
      18Ag     2.012273    10B3u    2.022633    10B2u    2.022633  
      19Ag     2.030128     5B1g    2.030132    11B3u    2.118051  
      11B2u    2.118051    12B2u    2.118704    12B3u    2.118704  
      10B2g    2.190056    10B3g    2.190056    18B1u    2.338763  
       5Au     2.338774    11B2g    2.349688    11B3g    2.349688  
      19B1u    2.449985    20Ag     2.654283    12B2g    2.676615  
      12B3g    2.676615    20B1u    3.634559    21Ag     4.625889  
      21B1u    5.315163     6B1g    6.860148    22Ag     6.860180  
      13B2u    6.889134    13B3u    6.889134     6Au     6.895979  
      22B1u    6.896012    23Ag     7.000425    13B2g    7.025864  
      13B3g    7.025864    23B1u    7.286535  

    Final Occupation by Irrep:
             Ag   B1g   B2g   B3g    Au   B1u   B2u   B3u 
    DOCC [     5,    0,    1,    1,    0,    4,    2,    2 ]
    SOCC [     0,    0,    1,    1,    0,    0,    0,    0 ]

  @DF-UKS Final Energy:  -796.36454272591027

   => Energetics <=

    Nuclear Repulsion Energy =             71.3918613401863666
    One-Electron Energy =               -1241.3687451095088363
    Two-Electron Energy =                 413.0483323228237396
    DFT Exchange-Correlation Energy =     -39.5695728002687304
    Empirical Dispersion Energy =           0.0000000000000000
    VV10 Nonlocal Energy =                  0.1335815208572296
    Total Energy =                       -796.3645427259102689

  UHF NO Occupations:
  HONO-2 :    2B2u 1.9979517
  HONO-1 :    2B2g 1.0000000
  HONO-0 :    2B3g 1.0000000
  LUNO+0 :    3B2u 0.0020483
  LUNO+1 :    3B3u 0.0020483
  LUNO+2 :    5B1u 0.0002617
  LUNO+3 :    6 Ag 0.0002060


Computation Completed


Properties will be evaluated at   0.000000,   0.000000,   0.000000 [a0]

Properties computed using the SCF density matrix

  Nuclear Dipole Moment: [e a0]
     X:     0.0000      Y:     0.0000      Z:     0.0000

  Electronic Dipole Moment: [e a0]
     X:     0.0000      Y:     0.0000      Z:     0.0000

  Dipole Moment: [e a0]
     X:     0.0000      Y:     0.0000      Z:     0.0000     Total:     0.0000

  Dipole Moment: [D]
     X:     0.0000      Y:     0.0000      Z:     0.0000     Total:     0.0000


*** tstop() called on bp1-compute00099.data.bp.acrc.priv at Tue Apr 27 17:35:12 2021
Module time:
	user time   =     172.73 seconds =       2.88 minutes
	system time =       7.79 seconds =       0.13 minutes
	total time  =          8 seconds =       0.13 minutes
Total time:
	user time   =     344.32 seconds =       5.74 minutes
	system time =      16.24 seconds =       0.27 minutes
	total time  =         16 seconds =       0.27 minutes

  //>>>>>>>>>>>>>>>>>>>>>>>>>>>>>>>>>>>//
  //    Loading displacement 3 of 3    //
  //<<<<<<<<<<<<<<<<<<<<<<<<<<<<<<<<<<<//

*** tstart() called on bp1-compute00099.data.bp.acrc.priv
*** at Tue Apr 27 17:35:12 2021

   => Loading Basis Set <=

    Name: AUG-CC-PV(T+D)Z
    Role: ORBITAL
    Keyword: BASIS
    atoms 1-2 entry S          line   928 file /work/zw18965/.conda/envs/p4env/share/psi4/basis/aug-cc-pv_tpd_z.gbs 


         ---------------------------------------------------------
                                   SCF
               by Justin Turney, Rob Parrish, Andy Simmonett
                          and Daniel G. A. Smith
                              UKS Reference
                       24 Threads, 137329 MiB Core
         ---------------------------------------------------------

  ==> Geometry <==

    Molecular point group: d2h
    Full point group: D_inf_h

    Geometry (in Angstrom), charge = 0, multiplicity = 3:

       Center              X                  Y                   Z               Mass       
    ------------   -----------------  -----------------  -----------------  -----------------
         S            0.000000000000     0.000000000000    -0.948111414820    31.972071174400
         S            0.000000000000     0.000000000000     0.948111414820    31.972071174400

  Running in d2h symmetry.

  Rotational constants: A = ************  B =      0.29328  C =      0.29328 [cm^-1]
  Rotational constants: A = ************  B =   8792.20250  C =   8792.20250 [MHz]
  Nuclear repulsion =   71.441691247479170

  Charge       = 0
  Multiplicity = 3
  Electrons    = 32
  Nalpha       = 17
  Nbeta        = 15

  ==> Algorithm <==

  SCF Algorithm Type is DF.
  DIIS enabled.
  MOM disabled.
  Fractional occupation disabled.
  Guess Type is SAD.
  Energy threshold   = 1.00e-08
  Density threshold  = 1.00e-08
  Integral threshold = 0.00e+00

  ==> Primary Basis <==

  Basis Set: AUG-CC-PV(T+D)Z
    Blend: AUG-CC-PV(T+D)Z
    Number of shells: 34
    Number of basis function: 110
    Number of Cartesian functions: 130
    Spherical Harmonics?: true
    Max angular momentum: 3

  ==> DFT Potential <==

   => Composite Functional: WB97M-V <= 

    wB97M-V Hyb-GGA Exchange-Correlation Functional

    N. Mardirossian and M. Head-Gordon, J. Chem. Phys. 144, 214110 (2016)

    Deriv               =              1
    GGA                 =           TRUE
    Meta                =           TRUE

    Exchange Hybrid     =           TRUE
    MP2 Hybrid          =          FALSE

   => Exchange-Correlation Functionals <=

    1.0000   wB97M-V exchange-correlation functional

   => Exact (HF) Exchange <=

    0.8500            HF,LR [omega = 0.3000]
    0.1500               HF 

   => VV10 Non-Local Parameters <=

    VV10 B              =     6.0000E+00
    VV10 C              =     1.0000E-02

   => Molecular Quadrature <=

    Radial Scheme          =       TREUTLER
    Pruning Scheme         =           FLAT
    Nuclear Scheme         =       TREUTLER

    BS radius alpha        =              1
    Pruning alpha          =              1
    Radial Points          =             75
    Spherical Points       =            302
    Total Points           =          44898
    Total Blocks           =            424
    Max Points             =            255
    Max Functions          =            110

   => Loading Basis Set <=

    Name: (AUG-CC-PV(T+D)Z AUX)
    Role: JKFIT
    Keyword: DF_BASIS_SCF
    atoms 1-2 entry S          line   730 file /work/zw18965/.conda/envs/p4env/share/psi4/basis/aug-cc-pvtz-jkfit.gbs 

  ==> Pre-Iterations <==

   -------------------------------------------------------
    Irrep   Nso     Nmo     Nalpha   Nbeta   Ndocc  Nsocc
   -------------------------------------------------------
     Ag        23      23       0       0       0       0
     B1g        6       6       0       0       0       0
     B2g       13      13       0       0       0       0
     B3g       13      13       0       0       0       0
     Au         6       6       0       0       0       0
     B1u       23      23       0       0       0       0
     B2u       13      13       0       0       0       0
     B3u       13      13       0       0       0       0
   -------------------------------------------------------
    Total     110     110      17      15      15       2
   -------------------------------------------------------

  ==> Integral Setup <==

  ==> DiskDFJK: Density-Fitted J/K Matrices <==

    J tasked:                  Yes
    K tasked:                  Yes
    wK tasked:                 Yes
    Omega:               3.000E-01
    OpenMP threads:             24
    Integrals threads:          24
    Memory [MiB]:           102663
    Algorithm:                Core
    Integral Cache:           NONE
    Schwarz Cutoff:          1E-12
    Fitting Condition:       1E-10

   => Auxiliary Basis Set <=

  Basis Set: (AUG-CC-PV(T+D)Z AUX)
    Blend: AUG-CC-PVTZ-JKFIT
    Number of shells: 84
    Number of basis function: 292
    Number of Cartesian functions: 360
    Spherical Harmonics?: true
    Max angular momentum: 4

  Cached 100.0% of DFT collocation blocks in 0.326 [GiB].

  Minimum eigenvalue in the overlap matrix is 2.1584035617E-04.
  Using Symmetric Orthogonalization.

  SCF Guess: Superposition of Atomic Densities via on-the-fly atomic UHF.

  ==> Iterations <==

                           Total Energy        Delta E     RMS |[F,P]|

   @DF-UKS iter SAD:  -796.01379240898518   -7.96014e+02   0.00000e+00 
   @DF-UKS iter   1:  -796.34864882499664   -3.34856e-01   5.30508e-03 DIIS
   @DF-UKS iter   2:  -796.36294808477498   -1.42993e-02   1.85052e-03 DIIS
   @DF-UKS iter   3:  -796.36442144879607   -1.47336e-03   2.14920e-04 DIIS
   @DF-UKS iter   4:  -796.36455890825164   -1.37459e-04   4.23650e-05 DIIS
   @DF-UKS iter   5:  -796.36456398301448   -5.07476e-06   2.01197e-05 DIIS
   @DF-UKS iter   6:  -796.36456440102825   -4.18014e-07   4.29880e-06 DIIS
   @DF-UKS iter   7:  -796.36456444775172   -4.67235e-08   7.95567e-07 DIIS
   @DF-UKS iter   8:  -796.36456444983355   -2.08183e-09   1.35780e-07 DIIS
   @DF-UKS iter   9:  -796.36456444989517   -6.16183e-11   2.00759e-08 DIIS
   @DF-UKS iter  10:  -796.36456444989631   -1.13687e-12   3.48953e-09 DIIS
  Energy and wave function converged.


  ==> Post-Iterations <==

   @Spin Contamination Metric:   9.217105526E-03
   @S^2 Expected:                2.000000000E+00
   @S^2 Observed:                2.009217106E+00
   @S   Expected:                1.000000000E+00
   @S   Observed:                1.000000000E+00

    Orbital Energies [Eh]
    ---------------------

    Alpha Occupied:                                                       

       1B1u  -89.261111     1Ag   -89.261109     2Ag    -8.171913  
       2B1u   -8.171754     1B2u   -6.081128     1B3u   -6.081128  
       1B2g   -6.081087     1B3g   -6.081087     3Ag    -6.079446  
       3B1u   -6.078717     4Ag    -0.959623     4B1u   -0.746565  
       5Ag    -0.495661     2B3u   -0.478577     2B2u   -0.478577  
       2B2g   -0.333308     2B3g   -0.333308  

    Alpha Virtual:                                                        

       5B1u    0.028107     6Ag     0.065391     3B3u    0.066972  
       3B2u    0.066972     7Ag     0.082450     3B3g    0.095397  
       3B2g    0.095397     6B1u    0.096675     1B1g    0.180891  
       8Ag     0.180891     7B1u    0.195742     4B2u    0.227883  
       4B3u    0.227883     9Ag     0.265522     1Au     0.289979  
       8B1u    0.289981     4B2g    0.356834     4B3g    0.356834  
       9B1u    0.360200     5B2u    0.447842     5B3u    0.447842  
       6B2u    0.525353     6B3u    0.525353    10Ag     0.542052  
      11Ag     0.542410     2B1g    0.542413    12Ag     0.546024  
      10B1u    0.548291     5B2g    0.567152     5B3g    0.567152  
      11B1u    0.624794     2Au     0.624794    13Ag     0.655775  
       7B3u    0.700597     7B2u    0.700597     6B2g    0.716645  
       6B3g    0.716645     3B1g    0.776529    14Ag     0.776530  
       7B2g    0.851777     7B3g    0.851777    12B1u    0.854201  
       8B3u    1.018482     8B2u    1.018482    13B1u    1.045377  
       3Au     1.045384    14B1u    1.086829     8B2g    1.177720  
       8B3g    1.177720    15Ag     1.266223    15B1u    1.379071  
       4B1g    1.643685    16Ag     1.643719     9B3u    1.712831  
       9B2u    1.712831    16B1u    1.725483     4Au     1.725930  
      17B1u    1.725969     9B2g    1.860141     9B3g    1.860141  
      17Ag     1.902647    18Ag     1.994323    10B3u    1.998732  
      10B2u    1.998732    19Ag     2.000995     5B1g    2.001018  
      11B3u    2.064741    11B2u    2.064741    12B3u    2.066356  
      12B2u    2.066356    10B2g    2.139960    10B3g    2.139960  
      18B1u    2.305457     5Au     2.305484    11B2g    2.318221  
      11B3g    2.318221    19B1u    2.428798    20Ag     2.641066  
      12B2g    2.646644    12B3g    2.646644    20B1u    3.622986  
      21Ag     4.602477    21B1u    5.295014     6B1g    6.846659  
      22Ag     6.846710     6Au     6.881777    22B1u    6.881830  
      13B3u    6.882885    13B2u    6.882885    23Ag     6.994372  
      13B2g    7.019080    13B3g    7.019080    23B1u    7.284378  

    Beta Occupied:                                                        

       1B1u  -89.254889     1Ag   -89.254888     2Ag    -8.165721  
       2B1u   -8.165491     3Ag    -6.075576     3B1u   -6.074846  
       1B2u   -6.067739     1B3u   -6.067739     1B3g   -6.067682  
       1B2g   -6.067682     4Ag    -0.934146     4B1u   -0.690773  
       5Ag    -0.469858     2B3u   -0.422707     2B2u   -0.422707  

    Beta Virtual:                                                         

       2B3g   -0.062487     2B2g   -0.062487     5B1u    0.028909  
       6Ag     0.063996     3B3u    0.066162     3B2u    0.066162  
       7Ag     0.085131     3B3g    0.096332     3B2g    0.096332  
       6B1u    0.111896     8Ag     0.189147     1B1g    0.189147  
       7B1u    0.196793     4B3u    0.247607     4B2u    0.247607  
       9Ag     0.270017     1Au     0.298146     8B1u    0.298147  
       4B2g    0.358858     4B3g    0.358858     9B1u    0.362645  
       5B2u    0.457678     5B3u    0.457678    10Ag     0.540635  
       6B2u    0.544246     6B3u    0.544246    10B1u    0.556574  
      11Ag     0.558237    12Ag     0.561747     2B1g    0.561750  
       5B2g    0.572479     5B3g    0.572479     2Au     0.658782  
      11B1u    0.658785    13Ag     0.669699     7B3u    0.705714  
       7B2u    0.705714     6B2g    0.738689     6B3g    0.738689  
       3B1g    0.787782    14Ag     0.787789     7B2g    0.858281  
       7B3g    0.858281    12B1u    0.869352     8B3u    1.025146  
       8B2u    1.025146    13B1u    1.051428     3Au     1.051445  
      14B1u    1.092154     8B2g    1.189226     8B3g    1.189226  
      15Ag     1.295816    15B1u    1.410881     4B1g    1.691840  
      16Ag     1.691860     9B3u    1.729996     9B2u    1.729996  
      16B1u    1.738363     4Au     1.773679    17B1u    1.773700  
       9B2g    1.905065     9B3g    1.905065    17Ag     1.911758  
      18Ag     2.011939    10B2u    2.023039    10B3u    2.023039  
      19Ag     2.029713     5B1g    2.029716    11B3u    2.117949  
      11B2u    2.117949    12B2u    2.118926    12B3u    2.118926  
      10B2g    2.190170    10B3g    2.190170    18B1u    2.339317  
       5Au     2.339328    11B2g    2.350520    11B3g    2.350520  
      19B1u    2.450737    20Ag     2.656909    12B2g    2.677589  
      12B3g    2.677589    20B1u    3.633624    21Ag     4.628293  
      21B1u    5.316812     6B1g    6.860204    22Ag     6.860236  
      13B3u    6.888992    13B2u    6.888992     6Au     6.896094  
      22B1u    6.896127    23Ag     6.999744    13B2g    7.026373  
      13B3g    7.026373    23B1u    7.289802  

    Final Occupation by Irrep:
             Ag   B1g   B2g   B3g    Au   B1u   B2u   B3u 
    DOCC [     5,    0,    1,    1,    0,    4,    2,    2 ]
    SOCC [     0,    0,    1,    1,    0,    0,    0,    0 ]

  @DF-UKS Final Energy:  -796.36456444989631

   => Energetics <=

    Nuclear Repulsion Energy =             71.4416912474791701
    One-Electron Energy =               -1241.4689545773539976
    Two-Electron Energy =                 413.0992170235808771
    DFT Exchange-Correlation Energy =     -39.5700978951888587
    Empirical Dispersion Energy =           0.0000000000000000
    VV10 Nonlocal Energy =                  0.1335797515865115
    Total Energy =                       -796.3645644498963065

  UHF NO Occupations:
  HONO-2 :    2B3u 1.9979544
  HONO-1 :    2B2g 1.0000000
  HONO-0 :    2B3g 1.0000000
  LUNO+0 :    3B3u 0.0020456
  LUNO+1 :    3B2u 0.0020456
  LUNO+2 :    5B1u 0.0002617
  LUNO+3 :    6 Ag 0.0002061


Computation Completed


Properties will be evaluated at   0.000000,   0.000000,   0.000000 [a0]

Properties computed using the SCF density matrix

  Nuclear Dipole Moment: [e a0]
     X:     0.0000      Y:     0.0000      Z:     0.0000

  Electronic Dipole Moment: [e a0]
     X:     0.0000      Y:     0.0000      Z:     0.0000

  Dipole Moment: [e a0]
     X:     0.0000      Y:     0.0000      Z:     0.0000     Total:     0.0000

  Dipole Moment: [D]
     X:     0.0000      Y:     0.0000      Z:     0.0000     Total:     0.0000


*** tstop() called on bp1-compute00099.data.bp.acrc.priv at Tue Apr 27 17:35:19 2021
Module time:
	user time   =     167.82 seconds =       2.80 minutes
	system time =       6.99 seconds =       0.12 minutes
	total time  =          7 seconds =       0.12 minutes
Total time:
	user time   =     512.28 seconds =       8.54 minutes
	system time =      23.24 seconds =       0.39 minutes
	total time  =         23 seconds =       0.38 minutes

         ----------------------------------------------------------
                                   FINDIF
                     R. A. King and Jonathon Misiewicz
         ---------------------------------------------------------

  Computing gradient from energies.
    Using 3-point formula.
    Energy without displacement: -796.3645538452
    Check energies below for precision!
    Forces are for mass-weighted, symmetry-adapted cartesians (in au).

     Coord      Energy(-1)        Energy(+1)            Force
        0   -796.3645427259   -796.3645644499     -0.0021723986


-------------------------------------------------------------
  ## New Matrix (Symmetry 0) ##
  Irrep: 1 Size: 2 x 3

                 1                   2                   3

    1     0.00000000000000     0.00000000000000    -0.00868580155343
    2     0.00000000000000     0.00000000000000     0.00868580155343




			-----------------------------------------
			 OPTKING 2.0: for geometry optimizations 
			  - R.A. King,  Bethel University        
			-----------------------------------------
	At level 1: Red. Int., RFO, no backsteps, dynamic trust

	Internal coordinates to be generated automatically.
	Detected frag 1 with atoms:  1 2
	---Fragment 1 Bond Connectivity---
	 1 : 2
	 2 : 1

	---Fragment 1 Geometry and Gradient---
	 S           0.0000000000        0.0000000000       -1.7922961834
	 S           0.0000000000        0.0000000000        1.7922961834
	             0.0000000000        0.0000000000       -0.0086858016
	             0.0000000000        0.0000000000        0.0086858016

	Previous optimization step data not found.  Starting new optimization.

	---Fragment 1 Intrafragment Coordinates---
	 - Coordinate -           - BOHR/RAD -       - ANG/DEG -
	 R(1,2)           =         3.584592	       1.896885

	Current energy   :      -796.3645538452

	Generating empirical Hessian (Schlegel '84) for each fragment.
	Taking RFO optimization step.
	Going to follow RFO solution 1.
	Using RFO vector 1.
	Norm of target step-size    0.01747
	Projected energy change by RFO approximation:         0.0000008387

	Back-transformation to cartesian coordinates...
	Successfully converged to displaced geometry.

	--- Internal Coordinate Step in ANG or DEG, aJ/ANG or AJ/DEG ---
	 ---------------------------------------------------------------------------
	   Coordinate                Previous        Force       Change         New 
	   ----------                --------       ------       ------       ------
	    1 R(1,2)          =      1.896885    -0.071560    -0.009243     1.887641
	 ---------------------------------------------------------------------------
	Successfully symmetrized geometry.

  ==> Convergence Check <==

  Measures of convergence in internal coordinates in au.
  Criteria marked as inactive (o), active & met (*), and active & unmet ( ).
  --------------------------------------------------------------------------------------------- ~
   Step     Total Energy     Delta E     MAX Force     RMS Force      MAX Disp      RMS Disp    ~
  --------------------------------------------------------------------------------------------- ~
    Convergence Criteria    1.00e-06 *    3.00e-04 *             o    1.20e-03 *             o  ~
  --------------------------------------------------------------------------------------------- ~
      1    -796.36455385   -7.96e+02      8.69e-03      8.69e-03 o    1.75e-02      1.75e-02 o  ~
  ---------------------------------------------------------------------------------------------

	Writing optimization data to binary file.
	Structure for next step:
	Cartesian Geometry (in Angstrom)
	    S     0.0000000000   0.0000000000  -0.9438205459
	    S     0.0000000000   0.0000000000   0.9438205459
			--------------------------
			 OPTKING Finished Execution 
			--------------------------

    Structure for next step:
    Molecular point group: d2h
    Full point group: D_inf_h

    Geometry (in Angstrom), charge = 0, multiplicity = 3:

    S            0.000000000000     0.000000000000    -0.943820549659
    S            0.000000000000     0.000000000000     0.943820549659

gradient() will perform gradient computation by finite difference of analytic energies.

         ----------------------------------------------------------
                                   FINDIF
                     R. A. King and Jonathon Misiewicz
         ---------------------------------------------------------

  Using finite-differences of energies to determine gradients.
    Generating geometries for use with 3-point formula.
    Displacement size will be 5.00e-03.
    Number of atoms is 2.
    Number of symmetric SALCs is 1.
    Translations projected? 1. Rotations projected? 1.
    Number of geometries (including reference) is 3.

  //>>>>>>>>>>>>>>>>>>>>>>>>>>>>>>>>>>>//
  //    Loading displacement 1 of 3    //
  //<<<<<<<<<<<<<<<<<<<<<<<<<<<<<<<<<<<//

*** tstart() called on bp1-compute00099.data.bp.acrc.priv
*** at Tue Apr 27 17:35:19 2021

   => Loading Basis Set <=

    Name: AUG-CC-PV(T+D)Z
    Role: ORBITAL
    Keyword: BASIS
    atoms 1-2 entry S          line   928 file /work/zw18965/.conda/envs/p4env/share/psi4/basis/aug-cc-pv_tpd_z.gbs 


         ---------------------------------------------------------
                                   SCF
               by Justin Turney, Rob Parrish, Andy Simmonett
                          and Daniel G. A. Smith
                              UKS Reference
                       24 Threads, 137329 MiB Core
         ---------------------------------------------------------

  ==> Geometry <==

    Molecular point group: d2h
    Full point group: D_inf_h

    Geometry (in Angstrom), charge = 0, multiplicity = 3:

       Center              X                  Y                   Z               Mass       
    ------------   -----------------  -----------------  -----------------  -----------------
         S            0.000000000000     0.000000000000    -0.943820549659    31.972071174400
         S            0.000000000000     0.000000000000     0.943820549659    31.972071174400

  Running in d2h symmetry.

  Rotational constants: A = ************  B =      0.29595  C =      0.29595 [cm^-1]
  Rotational constants: A = ************  B =   8872.32771  C =   8872.32771 [MHz]
  Nuclear repulsion =   71.766484624903882

  Charge       = 0
  Multiplicity = 3
  Electrons    = 32
  Nalpha       = 17
  Nbeta        = 15

  ==> Algorithm <==

  SCF Algorithm Type is DF.
  DIIS enabled.
  MOM disabled.
  Fractional occupation disabled.
  Guess Type is READ.
  Energy threshold   = 1.00e-08
  Density threshold  = 1.00e-08
  Integral threshold = 0.00e+00

  ==> Primary Basis <==

  Basis Set: AUG-CC-PV(T+D)Z
    Blend: AUG-CC-PV(T+D)Z
    Number of shells: 34
    Number of basis function: 110
    Number of Cartesian functions: 130
    Spherical Harmonics?: true
    Max angular momentum: 3

  ==> DFT Potential <==

   => Composite Functional: WB97M-V <= 

    wB97M-V Hyb-GGA Exchange-Correlation Functional

    N. Mardirossian and M. Head-Gordon, J. Chem. Phys. 144, 214110 (2016)

    Deriv               =              1
    GGA                 =           TRUE
    Meta                =           TRUE

    Exchange Hybrid     =           TRUE
    MP2 Hybrid          =          FALSE

   => Exchange-Correlation Functionals <=

    1.0000   wB97M-V exchange-correlation functional

   => Exact (HF) Exchange <=

    0.8500            HF,LR [omega = 0.3000]
    0.1500               HF 

   => VV10 Non-Local Parameters <=

    VV10 B              =     6.0000E+00
    VV10 C              =     1.0000E-02

   => Molecular Quadrature <=

    Radial Scheme          =       TREUTLER
    Pruning Scheme         =           FLAT
    Nuclear Scheme         =       TREUTLER

    BS radius alpha        =              1
    Pruning alpha          =              1
    Radial Points          =             75
    Spherical Points       =            302
    Total Points           =          44898
    Total Blocks           =            424
    Max Points             =            255
    Max Functions          =            110

   => Loading Basis Set <=

    Name: (AUG-CC-PV(T+D)Z AUX)
    Role: JKFIT
    Keyword: DF_BASIS_SCF
    atoms 1-2 entry S          line   730 file /work/zw18965/.conda/envs/p4env/share/psi4/basis/aug-cc-pvtz-jkfit.gbs 

   => Loading Basis Set <=

    Name: AUG-CC-PV(T+D)Z
    Role: ORBITAL
    Keyword: BASIS
    atoms 1-2 entry S          line   928 file /work/zw18965/.conda/envs/p4env/share/psi4/basis/aug-cc-pv_tpd_z.gbs 

  Reading orbitals from file 180, no projection.

  ==> Pre-Iterations <==

   -------------------------------------------------------
    Irrep   Nso     Nmo     Nalpha   Nbeta   Ndocc  Nsocc
   -------------------------------------------------------
     Ag        23      23       0       0       0       0
     B1g        6       6       0       0       0       0
     B2g       13      13       0       0       0       0
     B3g       13      13       0       0       0       0
     Au         6       6       0       0       0       0
     B1u       23      23       0       0       0       0
     B2u       13      13       0       0       0       0
     B3u       13      13       0       0       0       0
   -------------------------------------------------------
    Total     110     110      17      15      15       2
   -------------------------------------------------------

  ==> Integral Setup <==

  ==> DiskDFJK: Density-Fitted J/K Matrices <==

    J tasked:                  Yes
    K tasked:                  Yes
    wK tasked:                 Yes
    Omega:               3.000E-01
    OpenMP threads:             24
    Integrals threads:          24
    Memory [MiB]:           102662
    Algorithm:                Core
    Integral Cache:           NONE
    Schwarz Cutoff:          1E-12
    Fitting Condition:       1E-10

   => Auxiliary Basis Set <=

  Basis Set: (AUG-CC-PV(T+D)Z AUX)
    Blend: AUG-CC-PVTZ-JKFIT
    Number of shells: 84
    Number of basis function: 292
    Number of Cartesian functions: 360
    Spherical Harmonics?: true
    Max angular momentum: 4

  Cached 100.0% of DFT collocation blocks in 0.326 [GiB].

  Minimum eigenvalue in the overlap matrix is 2.1153088698E-04.
  Using Symmetric Orthogonalization.

  SCF Guess: Orbitals guess was supplied from a previous computation.

  ==> Iterations <==

                           Total Energy        Delta E     RMS |[F,P]|

   @DF-UKS iter   0:  -796.37004255119223   -7.96370e+02   6.08665e-04 
   @DF-UKS iter   1:  -796.36464575549326    5.39680e-03   9.30280e-05 DIIS
   @DF-UKS iter   2:  -796.36465166499045   -5.90950e-06   6.68972e-05 DIIS
   @DF-UKS iter   3:  -796.36465446329044   -2.79830e-06   5.28992e-06 DIIS
   @DF-UKS iter   4:  -796.36465449758862   -3.42982e-08   9.11485e-07 DIIS
   @DF-UKS iter   5:  -796.36465449973264   -2.14402e-09   2.51743e-07 DIIS
   @DF-UKS iter   6:  -796.36465449982961   -9.69749e-11   4.61573e-08 DIIS
   @DF-UKS iter   7:  -796.36465449983712   -7.50333e-12   1.15935e-08 DIIS
   @DF-UKS iter   8:  -796.36465449983734   -2.27374e-13   1.46449e-09 DIIS
  Energy and wave function converged.


  ==> Post-Iterations <==

   @Spin Contamination Metric:   9.148617104E-03
   @S^2 Expected:                2.000000000E+00
   @S^2 Observed:                2.009148617E+00
   @S   Expected:                1.000000000E+00
   @S   Observed:                1.000000000E+00

    Orbital Energies [Eh]
    ---------------------

    Alpha Occupied:                                                       

       1B1u  -89.260331     1Ag   -89.260328     2Ag    -8.171390  
       2B1u   -8.171221     1B3u   -6.080589     1B2u   -6.080589  
       1B2g   -6.080544     1B3g   -6.080544     3Ag    -6.078915  
       3B1u   -6.078142     4Ag    -0.961777     4B1u   -0.745577  
       5Ag    -0.496204     2B2u   -0.479652     2B3u   -0.479652  
       2B3g   -0.332332     2B2g   -0.332332  

    Alpha Virtual:                                                        

       5B1u    0.028679     6Ag     0.065429     3B3u    0.066885  
       3B2u    0.066885     7Ag     0.082320     3B3g    0.095444  
       3B2g    0.095444     6B1u    0.098571     1B1g    0.180708  
       8Ag     0.180708     7B1u    0.196012     4B2u    0.228208  
       4B3u    0.228208     9Ag     0.264948     1Au     0.290380  
       8B1u    0.290382     4B3g    0.357002     4B2g    0.357002  
       9B1u    0.361401     5B3u    0.447339     5B2u    0.447339  
       6B3u    0.525413     6B2u    0.525413    10Ag     0.541415  
      11Ag     0.541794     2B1g    0.541796    12Ag     0.545347  
      10B1u    0.547891     5B3g    0.567472     5B2g    0.567472  
      11B1u    0.625245     2Au     0.625246    13Ag     0.657762  
       7B3u    0.700310     7B2u    0.700310     6B3g    0.718473  
       6B2g    0.718473     3B1g    0.777755    14Ag     0.777756  
       7B3g    0.852482     7B2g    0.852482    12B1u    0.857858  
       8B2u    1.020092     8B3u    1.020092    13B1u    1.046627  
       3Au     1.046633    14B1u    1.091178     8B3g    1.178981  
       8B2g    1.178981    15Ag     1.268594    15B1u    1.379091  
       4B1g    1.644034    16Ag     1.644070     9B2u    1.711704  
       9B3u    1.711704    16B1u    1.723950     4Au     1.726825  
      17B1u    1.726864     9B2g    1.858700     9B3g    1.858700  
      17Ag     1.901369    18Ag     1.992177    19Ag     1.998400  
       5B1g    1.998422    10B3u    2.000404    10B2u    2.000404  
      11B3u    2.065770    11B2u    2.065770    12B3u    2.067070  
      12B2u    2.067070    10B2g    2.140748    10B3g    2.140748  
      18B1u    2.308966     5Au     2.308992    11B3g    2.323753  
      11B2g    2.323753    19B1u    2.433679    12B2g    2.652808  
      12B3g    2.652808    20Ag     2.658115    20B1u    3.616334  
      21Ag     4.618227    21B1u    5.306218     6B1g    6.847042  
      22Ag     6.847091    13B2u    6.881925    13B3u    6.881925  
       6Au     6.882560    22B1u    6.882611    23Ag     6.989953  
      13B3g    7.022434    13B2g    7.022434    23B1u    7.306056  

    Beta Occupied:                                                        

       1B1u  -89.254116     1Ag   -89.254116     2Ag    -8.165205  
       2B1u   -8.164965     3Ag    -6.075049     3B1u   -6.074274  
       1B3u   -6.067215     1B2u   -6.067215     1B2g   -6.067155  
       1B3g   -6.067155     4Ag    -0.936498     4B1u   -0.689743  
       5Ag    -0.470309     2B2u   -0.424068     2B3u   -0.424068  

    Beta Virtual:                                                         

       2B2g   -0.061465     2B3g   -0.061465     5B1u    0.029266  
       6Ag     0.064001     3B2u    0.066002     3B3u    0.066002  
       7Ag     0.084956     3B3g    0.096367     3B2g    0.096367  
       6B1u    0.113833     8Ag     0.188957     1B1g    0.188958  
       7B1u    0.197133     4B2u    0.247981     4B3u    0.247981  
       9Ag     0.269404     1Au     0.298446     8B1u    0.298447  
       4B3g    0.358959     4B2g    0.358959     9B1u    0.363841  
       5B3u    0.457094     5B2u    0.457094    10Ag     0.540148  
       6B3u    0.544380     6B2u    0.544380    10B1u    0.556191  
      11Ag     0.557366    12Ag     0.561028     2B1g    0.561031  
       5B2g    0.572726     5B3g    0.572726     2Au     0.659277  
      11B1u    0.659280    13Ag     0.671666     7B3u    0.705438  
       7B2u    0.705438     6B3g    0.740503     6B2g    0.740503  
       3B1g    0.789080    14Ag     0.789088     7B3g    0.858987  
       7B2g    0.858987    12B1u    0.872963     8B2u    1.026789  
       8B3u    1.026789    13B1u    1.052744     3Au     1.052760  
      14B1u    1.096662     8B3g    1.190584     8B2g    1.190584  
      15Ag     1.298469    15B1u    1.410463     4B1g    1.692132  
      16Ag     1.692151     9B2u    1.728630     9B3u    1.728630  
      16B1u    1.737177     4Au     1.774535    17B1u    1.774554  
       9B2g    1.903780     9B3g    1.903780    17Ag     1.910552  
      18Ag     2.009762    10B3u    2.025702    10B2u    2.025702  
      19Ag     2.027023     5B1g    2.027026    11B3u    2.117271  
      11B2u    2.117271    12B3u    2.120455    12B2u    2.120455  
      10B2g    2.190920    10B3g    2.190920    18B1u    2.342933  
       5Au     2.342943    11B3g    2.355946    11B2g    2.355946  
      19B1u    2.455664    20Ag     2.674010    12B2g    2.683905  
      12B3g    2.683905    20B1u    3.627120    21Ag     4.643999  
      21B1u    5.327911     6B1g    6.860565    22Ag     6.860595  
      13B2u    6.888026    13B3u    6.888026     6Au     6.896853  
      22B1u    6.896884    23Ag     6.995296    13B3g    7.029737  
      13B2g    7.029737    23B1u    7.311571  

    Final Occupation by Irrep:
             Ag   B1g   B2g   B3g    Au   B1u   B2u   B3u 
    DOCC [     5,    0,    1,    1,    0,    4,    2,    2 ]
    SOCC [     0,    0,    1,    1,    0,    0,    0,    0 ]

  @DF-UKS Final Energy:  -796.36465449983734

   => Energetics <=

    Nuclear Repulsion Energy =             71.7664846249038817
    One-Electron Energy =               -1242.1220074221446339
    Two-Electron Energy =                 413.4308353167206178
    DFT Exchange-Correlation Energy =     -39.5735353109397892
    Empirical Dispersion Energy =           0.0000000000000000
    VV10 Nonlocal Energy =                  0.1335682916226220
    Total Energy =                       -796.3646544998373429

  UHF NO Occupations:
  HONO-2 :    2B3u 1.9979718
  HONO-1 :    2B2g 1.0000000
  HONO-0 :    2B3g 1.0000000
  LUNO+0 :    3B3u 0.0020282
  LUNO+1 :    3B2u 0.0020282
  LUNO+2 :    5B1u 0.0002622
  LUNO+3 :    6 Ag 0.0002062


Computation Completed


Properties will be evaluated at   0.000000,   0.000000,   0.000000 [a0]

Properties computed using the SCF density matrix

  Nuclear Dipole Moment: [e a0]
     X:     0.0000      Y:     0.0000      Z:     0.0000

  Electronic Dipole Moment: [e a0]
     X:     0.0000      Y:     0.0000      Z:     0.0000

  Dipole Moment: [e a0]
     X:     0.0000      Y:     0.0000      Z:     0.0000     Total:     0.0000

  Dipole Moment: [D]
     X:     0.0000      Y:     0.0000      Z:     0.0000     Total:     0.0000


*** tstop() called on bp1-compute00099.data.bp.acrc.priv at Tue Apr 27 17:35:25 2021
Module time:
	user time   =     137.39 seconds =       2.29 minutes
	system time =       5.54 seconds =       0.09 minutes
	total time  =          6 seconds =       0.10 minutes
Total time:
	user time   =     650.05 seconds =      10.83 minutes
	system time =      28.80 seconds =       0.48 minutes
	total time  =         29 seconds =       0.48 minutes

  //>>>>>>>>>>>>>>>>>>>>>>>>>>>>>>>>>>>//
  //    Loading displacement 2 of 3    //
  //<<<<<<<<<<<<<<<<<<<<<<<<<<<<<<<<<<<//

*** tstart() called on bp1-compute00099.data.bp.acrc.priv
*** at Tue Apr 27 17:35:25 2021

   => Loading Basis Set <=

    Name: AUG-CC-PV(T+D)Z
    Role: ORBITAL
    Keyword: BASIS
    atoms 1-2 entry S          line   928 file /work/zw18965/.conda/envs/p4env/share/psi4/basis/aug-cc-pv_tpd_z.gbs 


         ---------------------------------------------------------
                                   SCF
               by Justin Turney, Rob Parrish, Andy Simmonett
                          and Daniel G. A. Smith
                              UKS Reference
                       24 Threads, 137329 MiB Core
         ---------------------------------------------------------

  ==> Geometry <==

    Molecular point group: d2h
    Full point group: D_inf_h

    Geometry (in Angstrom), charge = 0, multiplicity = 3:

       Center              X                  Y                   Z               Mass       
    ------------   -----------------  -----------------  -----------------  -----------------
         S            0.000000000000     0.000000000000    -0.944151429839    31.972071174400
         S            0.000000000000     0.000000000000     0.944151429839    31.972071174400

  Running in d2h symmetry.

  Rotational constants: A = ************  B =      0.29574  C =      0.29574 [cm^-1]
  Rotational constants: A = ************  B =   8866.11014  C =   8866.11014 [MHz]
  Nuclear repulsion =   71.741333884650402

  Charge       = 0
  Multiplicity = 3
  Electrons    = 32
  Nalpha       = 17
  Nbeta        = 15

  ==> Algorithm <==

  SCF Algorithm Type is DF.
  DIIS enabled.
  MOM disabled.
  Fractional occupation disabled.
  Guess Type is READ.
  Energy threshold   = 1.00e-08
  Density threshold  = 1.00e-08
  Integral threshold = 0.00e+00

  ==> Primary Basis <==

  Basis Set: AUG-CC-PV(T+D)Z
    Blend: AUG-CC-PV(T+D)Z
    Number of shells: 34
    Number of basis function: 110
    Number of Cartesian functions: 130
    Spherical Harmonics?: true
    Max angular momentum: 3

  ==> DFT Potential <==

   => Composite Functional: WB97M-V <= 

    wB97M-V Hyb-GGA Exchange-Correlation Functional

    N. Mardirossian and M. Head-Gordon, J. Chem. Phys. 144, 214110 (2016)

    Deriv               =              1
    GGA                 =           TRUE
    Meta                =           TRUE

    Exchange Hybrid     =           TRUE
    MP2 Hybrid          =          FALSE

   => Exchange-Correlation Functionals <=

    1.0000   wB97M-V exchange-correlation functional

   => Exact (HF) Exchange <=

    0.8500            HF,LR [omega = 0.3000]
    0.1500               HF 

   => VV10 Non-Local Parameters <=

    VV10 B              =     6.0000E+00
    VV10 C              =     1.0000E-02

   => Molecular Quadrature <=

    Radial Scheme          =       TREUTLER
    Pruning Scheme         =           FLAT
    Nuclear Scheme         =       TREUTLER

    BS radius alpha        =              1
    Pruning alpha          =              1
    Radial Points          =             75
    Spherical Points       =            302
    Total Points           =          44898
    Total Blocks           =            424
    Max Points             =            255
    Max Functions          =            110

   => Loading Basis Set <=

    Name: (AUG-CC-PV(T+D)Z AUX)
    Role: JKFIT
    Keyword: DF_BASIS_SCF
    atoms 1-2 entry S          line   730 file /work/zw18965/.conda/envs/p4env/share/psi4/basis/aug-cc-pvtz-jkfit.gbs 

   => Loading Basis Set <=

    Name: AUG-CC-PV(T+D)Z
    Role: ORBITAL
    Keyword: BASIS
    atoms 1-2 entry S          line   928 file /work/zw18965/.conda/envs/p4env/share/psi4/basis/aug-cc-pv_tpd_z.gbs 

  Reading orbitals from file 180, no projection.

  ==> Pre-Iterations <==

   -------------------------------------------------------
    Irrep   Nso     Nmo     Nalpha   Nbeta   Ndocc  Nsocc
   -------------------------------------------------------
     Ag        23      23       0       0       0       0
     B1g        6       6       0       0       0       0
     B2g       13      13       0       0       0       0
     B3g       13      13       0       0       0       0
     Au         6       6       0       0       0       0
     B1u       23      23       0       0       0       0
     B2u       13      13       0       0       0       0
     B3u       13      13       0       0       0       0
   -------------------------------------------------------
    Total     110     110      17      15      15       2
   -------------------------------------------------------

  ==> Integral Setup <==

  ==> DiskDFJK: Density-Fitted J/K Matrices <==

    J tasked:                  Yes
    K tasked:                  Yes
    wK tasked:                 Yes
    Omega:               3.000E-01
    OpenMP threads:             24
    Integrals threads:          24
    Memory [MiB]:           102662
    Algorithm:                Core
    Integral Cache:           NONE
    Schwarz Cutoff:          1E-12
    Fitting Condition:       1E-10

   => Auxiliary Basis Set <=

  Basis Set: (AUG-CC-PV(T+D)Z AUX)
    Blend: AUG-CC-PVTZ-JKFIT
    Number of shells: 84
    Number of basis function: 292
    Number of Cartesian functions: 360
    Spherical Harmonics?: true
    Max angular momentum: 4

  Cached 100.0% of DFT collocation blocks in 0.326 [GiB].

  Minimum eigenvalue in the overlap matrix is 2.1186047209E-04.
  Using Symmetric Orthogonalization.

  SCF Guess: Orbitals guess was supplied from a previous computation.

  ==> Iterations <==

                           Total Energy        Delta E     RMS |[F,P]|

   @DF-UKS iter   0:  -796.36427025819319   -7.96364e+02   4.38961e-05 
   @DF-UKS iter   1:  -796.36465069179496   -3.80434e-04   6.67868e-06 DIIS
   @DF-UKS iter   2:  -796.36465072226736   -3.04724e-08   4.79922e-06 DIIS
   @DF-UKS iter   3:  -796.36465073666466   -1.43973e-08   3.79816e-07 DIIS
   @DF-UKS iter   4:  -796.36465073684110   -1.76442e-10   6.58704e-08 DIIS
   @DF-UKS iter   5:  -796.36465073685258   -1.14824e-11   1.82574e-08 DIIS
   @DF-UKS iter   6:  -796.36465073685315   -5.68434e-13   3.33161e-09 DIIS
  Energy and wave function converged.


  ==> Post-Iterations <==

   @Spin Contamination Metric:   9.153900557E-03
   @S^2 Expected:                2.000000000E+00
   @S^2 Observed:                2.009153901E+00
   @S   Expected:                1.000000000E+00
   @S   Observed:                1.000000000E+00

    Orbital Energies [Eh]
    ---------------------

    Alpha Occupied:                                                       

       1B1u  -89.260392     1Ag   -89.260389     2Ag    -8.171430  
       2B1u   -8.171262     1B3u   -6.080630     1B2u   -6.080630  
       1B2g   -6.080586     1B3g   -6.080586     3Ag    -6.078956  
       3B1u   -6.078186     4Ag    -0.961610     4B1u   -0.745653  
       5Ag    -0.496163     2B3u   -0.479569     2B2u   -0.479569  
       2B3g   -0.332407     2B2g   -0.332407  

    Alpha Virtual:                                                        

       5B1u    0.028636     6Ag     0.065426     3B3u    0.066891  
       3B2u    0.066891     7Ag     0.082330     3B3g    0.095440  
       3B2g    0.095440     6B1u    0.098424     1B1g    0.180722  
       8Ag     0.180723     7B1u    0.195991     4B2u    0.228183  
       4B3u    0.228183     9Ag     0.264992     1Au     0.290349  
       8B1u    0.290351     4B3g    0.356989     4B2g    0.356989  
       9B1u    0.361308     5B2u    0.447378     5B3u    0.447378  
       6B2u    0.525408     6B3u    0.525408    10Ag     0.541467  
      11Ag     0.541842     2B1g    0.541844    12Ag     0.545396  
      10B1u    0.547922     5B3g    0.567447     5B2g    0.567447  
      11B1u    0.625210     2Au     0.625211    13Ag     0.657608  
       7B3u    0.700332     7B2u    0.700332     6B3g    0.718331  
       6B2g    0.718331     3B1g    0.777660    14Ag     0.777661  
       7B2g    0.852427     7B3g    0.852427    12B1u    0.857576  
       8B3u    1.019968     8B2u    1.019968    13B1u    1.046530  
       3Au     1.046537    14B1u    1.090839     8B3g    1.178883  
       8B2g    1.178883    15Ag     1.268411    15B1u    1.379093  
       4B1g    1.644007    16Ag     1.644043     9B2u    1.711794  
       9B3u    1.711794    16B1u    1.724062     4Au     1.726755  
      17B1u    1.726795     9B3g    1.858812     9B2g    1.858812  
      17Ag     1.901467    18Ag     1.992343    19Ag     1.998600  
       5B1g    1.998622    10B2u    2.000277    10B3u    2.000277  
      11B3u    2.065816    11B2u    2.065816    12B3u    2.066881  
      12B2u    2.066881    10B2g    2.140686    10B3g    2.140686  
      18B1u    2.308694     5Au     2.308720    11B2g    2.323324  
      11B3g    2.323324    19B1u    2.433299    12B3g    2.652333  
      12B2g    2.652333    20Ag     2.656796    20B1u    3.616874  
      21Ag     4.617005    21B1u    5.305328     6B1g    6.847012  
      22Ag     6.847062    13B3u    6.882002    13B2u    6.882002  
       6Au     6.882499    22B1u    6.882550    23Ag     6.990295  
      13B2g    7.022171    13B3g    7.022171    23B1u    7.304348  

    Beta Occupied:                                                        

       1B1u  -89.254176     1Ag   -89.254176     2Ag    -8.165245  
       2B1u   -8.165006     3Ag    -6.075090     3B1u   -6.074319  
       1B3u   -6.067255     1B2u   -6.067255     1B2g   -6.067196  
       1B3g   -6.067196     4Ag    -0.936316     4B1u   -0.689823  
       5Ag    -0.470274     2B3u   -0.423963     2B2u   -0.423963  

    Beta Virtual:                                                         

       2B3g   -0.061544     2B2g   -0.061544     5B1u    0.029239  
       6Ag     0.064001     3B2u    0.066015     3B3u    0.066015  
       7Ag     0.084970     3B3g    0.096364     3B2g    0.096364  
       6B1u    0.113683     8Ag     0.188972     1B1g    0.188972  
       7B1u    0.197106     4B2u    0.247953     4B3u    0.247953  
       9Ag     0.269452     1Au     0.298422     8B1u    0.298424  
       4B3g    0.358951     4B2g    0.358951     9B1u    0.363749  
       5B2u    0.457139     5B3u    0.457139    10Ag     0.540186  
       6B2u    0.544369     6B3u    0.544369    10B1u    0.556220  
      11Ag     0.557433    12Ag     0.561084     2B1g    0.561087  
       5B3g    0.572707     5B2g    0.572707     2Au     0.659239  
      11B1u    0.659242    13Ag     0.671514     7B3u    0.705459  
       7B2u    0.705459     6B3g    0.740362     6B2g    0.740362  
       3B1g    0.788980    14Ag     0.788988     7B2g    0.858932  
       7B3g    0.858932    12B1u    0.872685     8B3u    1.026662  
       8B2u    1.026662    13B1u    1.052642     3Au     1.052659  
      14B1u    1.096311     8B3g    1.190478     8B2g    1.190478  
      15Ag     1.298266    15B1u    1.410499     4B1g    1.692109  
      16Ag     1.692129     9B2u    1.728739     9B3u    1.728739  
      16B1u    1.737262     4Au     1.774468    17B1u    1.774487  
       9B3g    1.903881     9B2g    1.903881    17Ag     1.910644  
      18Ag     2.009931    10B2u    2.025495    10B3u    2.025495  
      19Ag     2.027230     5B1g    2.027233    11B3u    2.117324  
      11B2u    2.117324    12B3u    2.120331    12B2u    2.120331  
      10B2g    2.190861    10B3g    2.190861    18B1u    2.342653  
       5Au     2.342663    11B2g    2.355525    11B3g    2.355525  
      19B1u    2.455281    20Ag     2.672687    12B3g    2.683417  
      12B2g    2.683417    20B1u    3.627649    21Ag     4.642781  
      21B1u    5.327030     6B1g    6.860537    22Ag     6.860567  
      13B3u    6.888103    13B2u    6.888103     6Au     6.896794  
      22B1u    6.896825    23Ag     6.995641    13B2g    7.029473  
      13B3g    7.029473    23B1u    7.309856  

    Final Occupation by Irrep:
             Ag   B1g   B2g   B3g    Au   B1u   B2u   B3u 
    DOCC [     5,    0,    1,    1,    0,    4,    2,    2 ]
    SOCC [     0,    0,    1,    1,    0,    0,    0,    0 ]

  @DF-UKS Final Energy:  -796.36465073685315

   => Energetics <=

    Nuclear Repulsion Energy =             71.7413338846504018
    One-Electron Energy =               -1242.0714437204512706
    Two-Electron Energy =                 413.4051580779568553
    DFT Exchange-Correlation Energy =     -39.5732681534697264
    Empirical Dispersion Energy =           0.0000000000000000
    VV10 Nonlocal Energy =                  0.1335691744607770
    Total Energy =                       -796.3646507368528091

  UHF NO Occupations:
  HONO-2 :    2B3u 1.9979704
  HONO-1 :    2B2g 1.0000000
  HONO-0 :    2B3g 1.0000000
  LUNO+0 :    3B3u 0.0020296
  LUNO+1 :    3B2u 0.0020296
  LUNO+2 :    5B1u 0.0002621
  LUNO+3 :    6 Ag 0.0002062


Computation Completed


Properties will be evaluated at   0.000000,   0.000000,   0.000000 [a0]

Properties computed using the SCF density matrix

  Nuclear Dipole Moment: [e a0]
     X:     0.0000      Y:     0.0000      Z:     0.0000

  Electronic Dipole Moment: [e a0]
     X:     0.0000      Y:     0.0000      Z:     0.0000

  Dipole Moment: [e a0]
     X:     0.0000      Y:     0.0000      Z:     0.0000     Total:     0.0000

  Dipole Moment: [D]
     X:     0.0000      Y:     0.0000      Z:     0.0000     Total:     0.0000


*** tstop() called on bp1-compute00099.data.bp.acrc.priv at Tue Apr 27 17:35:30 2021
Module time:
	user time   =     115.90 seconds =       1.93 minutes
	system time =       4.84 seconds =       0.08 minutes
	total time  =          5 seconds =       0.08 minutes
Total time:
	user time   =     766.09 seconds =      12.77 minutes
	system time =      33.65 seconds =       0.56 minutes
	total time  =         34 seconds =       0.57 minutes

  //>>>>>>>>>>>>>>>>>>>>>>>>>>>>>>>>>>>//
  //    Loading displacement 3 of 3    //
  //<<<<<<<<<<<<<<<<<<<<<<<<<<<<<<<<<<<//

*** tstart() called on bp1-compute00099.data.bp.acrc.priv
*** at Tue Apr 27 17:35:30 2021

   => Loading Basis Set <=

    Name: AUG-CC-PV(T+D)Z
    Role: ORBITAL
    Keyword: BASIS
    atoms 1-2 entry S          line   928 file /work/zw18965/.conda/envs/p4env/share/psi4/basis/aug-cc-pv_tpd_z.gbs 


         ---------------------------------------------------------
                                   SCF
               by Justin Turney, Rob Parrish, Andy Simmonett
                          and Daniel G. A. Smith
                              UKS Reference
                       24 Threads, 137329 MiB Core
         ---------------------------------------------------------

  ==> Geometry <==

    Molecular point group: d2h
    Full point group: D_inf_h

    Geometry (in Angstrom), charge = 0, multiplicity = 3:

       Center              X                  Y                   Z               Mass       
    ------------   -----------------  -----------------  -----------------  -----------------
         S            0.000000000000     0.000000000000    -0.943489669479    31.972071174400
         S            0.000000000000     0.000000000000     0.943489669479    31.972071174400

  Running in d2h symmetry.

  Rotational constants: A = ************  B =      0.29616  C =      0.29616 [cm^-1]
  Rotational constants: A = ************  B =   8878.55182  C =   8878.55182 [MHz]
  Nuclear repulsion =   71.791653005798736

  Charge       = 0
  Multiplicity = 3
  Electrons    = 32
  Nalpha       = 17
  Nbeta        = 15

  ==> Algorithm <==

  SCF Algorithm Type is DF.
  DIIS enabled.
  MOM disabled.
  Fractional occupation disabled.
  Guess Type is READ.
  Energy threshold   = 1.00e-08
  Density threshold  = 1.00e-08
  Integral threshold = 0.00e+00

  ==> Primary Basis <==

  Basis Set: AUG-CC-PV(T+D)Z
    Blend: AUG-CC-PV(T+D)Z
    Number of shells: 34
    Number of basis function: 110
    Number of Cartesian functions: 130
    Spherical Harmonics?: true
    Max angular momentum: 3

  ==> DFT Potential <==

   => Composite Functional: WB97M-V <= 

    wB97M-V Hyb-GGA Exchange-Correlation Functional

    N. Mardirossian and M. Head-Gordon, J. Chem. Phys. 144, 214110 (2016)

    Deriv               =              1
    GGA                 =           TRUE
    Meta                =           TRUE

    Exchange Hybrid     =           TRUE
    MP2 Hybrid          =          FALSE

   => Exchange-Correlation Functionals <=

    1.0000   wB97M-V exchange-correlation functional

   => Exact (HF) Exchange <=

    0.8500            HF,LR [omega = 0.3000]
    0.1500               HF 

   => VV10 Non-Local Parameters <=

    VV10 B              =     6.0000E+00
    VV10 C              =     1.0000E-02

   => Molecular Quadrature <=

    Radial Scheme          =       TREUTLER
    Pruning Scheme         =           FLAT
    Nuclear Scheme         =       TREUTLER

    BS radius alpha        =              1
    Pruning alpha          =              1
    Radial Points          =             75
    Spherical Points       =            302
    Total Points           =          44898
[...]
         S            0.000000000000     0.000000000000    -0.941296683202    31.972071174400
         S            0.000000000000     0.000000000000     0.941296683202    31.972071174400

  Running in d2h symmetry.

  Rotational constants: A = ************  B =      0.29754  C =      0.29754 [cm^-1]
  Rotational constants: A = ************  B =   8919.96963  C =   8919.96963 [MHz]
  Nuclear repulsion =   71.958909634477948

  Charge       = 0
  Multiplicity = 3
  Electrons    = 32
  Nalpha       = 17
  Nbeta        = 15

  ==> Algorithm <==

  SCF Algorithm Type is DF.
  DIIS enabled.
  MOM disabled.
  Fractional occupation disabled.
  Guess Type is SAD.
  Energy threshold   = 1.00e-10
  Density threshold  = 1.00e-10
  Integral threshold = 0.00e+00

  ==> Primary Basis <==

  Basis Set: AUG-CC-PV(T+D)Z
    Blend: AUG-CC-PV(T+D)Z
    Number of shells: 34
    Number of basis function: 110
    Number of Cartesian functions: 130
    Spherical Harmonics?: true
    Max angular momentum: 3

  ==> DFT Potential <==

   => Composite Functional: WB97M-V <= 

    wB97M-V Hyb-GGA Exchange-Correlation Functional

    N. Mardirossian and M. Head-Gordon, J. Chem. Phys. 144, 214110 (2016)

    Deriv               =              1
    GGA                 =           TRUE
    Meta                =           TRUE

    Exchange Hybrid     =           TRUE
    MP2 Hybrid          =          FALSE

   => Exchange-Correlation Functionals <=

    1.0000   wB97M-V exchange-correlation functional

   => Exact (HF) Exchange <=

    0.8500            HF,LR [omega = 0.3000]
    0.1500               HF 

   => VV10 Non-Local Parameters <=

    VV10 B              =     6.0000E+00
    VV10 C              =     1.0000E-02

   => Molecular Quadrature <=

    Radial Scheme          =       TREUTLER
    Pruning Scheme         =           FLAT
    Nuclear Scheme         =       TREUTLER

    BS radius alpha        =              1
    Pruning alpha          =              1
    Radial Points          =             75
    Spherical Points       =            302
    Total Points           =          44898
    Total Blocks           =            424
    Max Points             =            255
    Max Functions          =            110

   => Loading Basis Set <=

    Name: (AUG-CC-PV(T+D)Z AUX)
    Role: JKFIT
    Keyword: DF_BASIS_SCF
    atoms 1-2 entry S          line   730 file /work/zw18965/.conda/envs/p4env/share/psi4/basis/aug-cc-pvtz-jkfit.gbs 

  ==> Pre-Iterations <==

   -------------------------------------------------------
    Irrep   Nso     Nmo     Nalpha   Nbeta   Ndocc  Nsocc
   -------------------------------------------------------
     Ag        23      23       0       0       0       0
     B1g        6       6       0       0       0       0
     B2g       13      13       0       0       0       0
     B3g       13      13       0       0       0       0
     Au         6       6       0       0       0       0
     B1u       23      23       0       0       0       0
     B2u       13      13       0       0       0       0
     B3u       13      13       0       0       0       0
   -------------------------------------------------------
    Total     110     110      17      15      15       2
   -------------------------------------------------------

  ==> Integral Setup <==

  ==> DiskDFJK: Density-Fitted J/K Matrices <==

    J tasked:                  Yes
    K tasked:                  Yes
    wK tasked:                 Yes
    Omega:               3.000E-01
    OpenMP threads:             24
    Integrals threads:          24
    Memory [MiB]:           102662
    Algorithm:                Core
    Integral Cache:           NONE
    Schwarz Cutoff:          1E-12
    Fitting Condition:       1E-10

   => Auxiliary Basis Set <=

  Basis Set: (AUG-CC-PV(T+D)Z AUX)
    Blend: AUG-CC-PVTZ-JKFIT
    Number of shells: 84
    Number of basis function: 292
    Number of Cartesian functions: 360
    Spherical Harmonics?: true
    Max angular momentum: 4

  Cached 100.0% of DFT collocation blocks in 0.326 [GiB].

  Minimum eigenvalue in the overlap matrix is 2.0903182653E-04.
  Using Symmetric Orthogonalization.

  SCF Guess: Superposition of Atomic Densities via on-the-fly atomic UHF.

  ==> Iterations <==

                           Total Energy        Delta E     RMS |[F,P]|

   @DF-UKS iter SAD:  -796.03494469317593   -7.96035e+02   0.00000e+00 
   @DF-UKS iter   1:  -796.34858669877372   -3.13642e-01   5.32915e-03 DIIS
   @DF-UKS iter   2:  -796.36303972516032   -1.44530e-02   1.85545e-03 DIIS
   @DF-UKS iter   3:  -796.36452214945393   -1.48242e-03   2.17336e-04 DIIS
   @DF-UKS iter   4:  -796.36465975890587   -1.37609e-04   4.76249e-05 DIIS
   @DF-UKS iter   5:  -796.36466454212552   -4.78322e-06   2.72218e-05 DIIS
   @DF-UKS iter   6:  -796.36466530490679   -7.62781e-07   3.82217e-06 DIIS
   @DF-UKS iter   7:  -796.36466535269778   -4.77910e-08   7.82685e-07 DIIS
   @DF-UKS iter   8:  -796.36466535475392   -2.05614e-09   1.35535e-07 DIIS
   @DF-UKS iter   9:  -796.36466535481441   -6.04814e-11   2.01405e-08 DIIS
   @DF-UKS iter  10:  -796.36466535481600   -1.59162e-12   3.50424e-09 DIIS
   @DF-UKS iter  11:  -796.36466535481600    0.00000e+00   5.15081e-10 DIIS
   @DF-UKS iter  12:  -796.36466535481554    4.54747e-13   8.11888e-11 DIIS
  Energy and wave function converged.


  ==> Post-Iterations <==

   @Spin Contamination Metric:   9.108385655E-03
   @S^2 Expected:                2.000000000E+00
   @S^2 Observed:                2.009108386E+00
   @S   Expected:                1.000000000E+00
   @S   Observed:                1.000000000E+00

    Orbital Energies [Eh]
    ---------------------

    Alpha Occupied:                                                       

       1B1u  -89.259866     1Ag   -89.259864     2Ag    -8.171081  
       2B1u   -8.170906     1B3u   -6.080269     1B2u   -6.080269  
       1B2g   -6.080222     1B3g   -6.080222     3Ag    -6.078601  
       3B1u   -6.077800     4Ag    -0.963058     4B1u   -0.744993  
       5Ag    -0.496520     2B3u   -0.480292     2B2u   -0.480292  
       2B3g   -0.331753     2B2g   -0.331753  

    Alpha Virtual:                                                        

       5B1u    0.029002     6Ag     0.065451     3B3u    0.066832  
       3B2u    0.066832     7Ag     0.082244     3B3g    0.095472  
       3B2g    0.095472     6B1u    0.099697     1B1g    0.180600  
       8Ag     0.180600     7B1u    0.196176     4B2u    0.228399  
       4B3u    0.228399     9Ag     0.264608     1Au     0.290616  
       8B1u    0.290617     4B3g    0.357099     4B2g    0.357099  
       9B1u    0.362111     5B3u    0.447037     5B2u    0.447037  
       6B2u    0.525454     6B3u    0.525454    10Ag     0.541007  
      11Ag     0.541428     2B1g    0.541430    12Ag     0.544984  
      10B1u    0.547656     5B3g    0.567660     5B2g    0.567660  
      11B1u    0.625513     2Au     0.625513    13Ag     0.658936  
       7B2u    0.700142     7B3u    0.700142     6B3g    0.719559  
       6B2g    0.719559     3B1g    0.778479    14Ag     0.778480  
       7B2g    0.852897     7B3g    0.852897    12B1u    0.860009  
       8B2u    1.021034     8B3u    1.021034    13B1u    1.047361  
       3Au     1.047367    14B1u    1.093775     8B3g    1.179740  
       8B2g    1.179740    15Ag     1.269982    15B1u    1.379056  
       4B1g    1.644238    16Ag     1.644275     9B2u    1.710999  
       9B3u    1.710999    16B1u    1.723124     4Au     1.727357  
      17B1u    1.727397     9B2g    1.857834     9B3g    1.857834  
      17Ag     1.900632    18Ag     1.990906    19Ag     1.996876  
       5B1g    1.996897    10B3u    2.001364    10B2u    2.001364  
      11B3u    2.065416    11B2u    2.065416    12B3u    2.068563  
      12B2u    2.068563    10B2g    2.141219    10B3g    2.141219  
      18B1u    2.311046     5Au     2.311071    11B2g    2.327033  
      11B3g    2.327033    19B1u    2.436591    12B3g    2.656435  
      12B2g    2.656435    20Ag     2.668202    20B1u    3.612069  
      21Ag     4.627587    21B1u    5.313143     6B1g    6.847263  
      22Ag     6.847311    13B3u    6.881323    13B2u    6.881323  
       6Au     6.883031    22B1u    6.883081    23Ag     6.987330  
      13B2g    7.024458    13B3g    7.024458    23B1u    7.319282  

    Beta Occupied:                                                        

       1B1u  -89.253656     1Ag   -89.253656     2Ag    -8.164900  
       2B1u   -8.164653     3Ag    -6.074738     3B1u   -6.073936  
       1B3u   -6.066904     1B2u   -6.066904     1B2g   -6.066842  
       1B3g   -6.066842     4Ag    -0.937896     4B1u   -0.689135  
       5Ag    -0.470569     2B2u   -0.424877     2B3u   -0.424877  

    Beta Virtual:                                                         

       2B2g   -0.060861     2B3g   -0.060861     5B1u    0.029467  
       6Ag     0.064004     3B3u    0.065907     3B2u    0.065907  
       7Ag     0.084853     3B3g    0.096388     3B2g    0.096388  
       6B1u    0.114972     8Ag     0.188844     1B1g    0.188845  
       7B1u    0.197341     4B2u    0.248201     4B3u    0.248201  
       9Ag     0.269042     1Au     0.298621     8B1u    0.298622  
       4B3g    0.359017     4B2g    0.359017     9B1u    0.364550  
       5B3u    0.456743     5B2u    0.456743    10Ag     0.539853  
       6B2u    0.544464     6B3u    0.544464    10B1u    0.555965  
      11Ag     0.556865    12Ag     0.560601     2B1g    0.560604  
       5B3g    0.572871     5B2g    0.572871     2Au     0.659571  
      11B1u    0.659574    13Ag     0.672829     7B2u    0.705277  
       7B3u    0.705277     6B3g    0.741581     6B2g    0.741581  
       3B1g    0.789846    14Ag     0.789854     7B2g    0.859403  
       7B3g    0.859403    12B1u    0.875088     8B2u    1.027751  
       8B3u    1.027751    13B1u    1.053518     3Au     1.053534  
      14B1u    1.099357     8B3g    1.191400     8B2g    1.191400  
      15Ag     1.300021    15B1u    1.410160     4B1g    1.692301  
      16Ag     1.692321     9B2u    1.727785     9B3u    1.727785  
      16B1u    1.736562     4Au     1.775043    17B1u    1.775062  
       9B2g    1.903005     9B3g    1.903005    17Ag     1.909857  
      18Ag     2.008473    19Ag     2.025444     5B1g    2.025446  
      10B3u    2.027287    10B2u    2.027287    11B3u    2.116861  
      11B2u    2.116861    12B3u    2.121437    12B2u    2.121437  
      10B2g    2.191368    10B3g    2.191368    18B1u    2.345078  
       5Au     2.345086    11B2g    2.359166    11B3g    2.359166  
      19B1u    2.458602    20Ag     2.684129    12B3g    2.687621  
      12B2g    2.687621    20B1u    3.622943    21Ag     4.653333  
      21B1u    5.334773     6B1g    6.860773    22Ag     6.860802  
      13B3u    6.887420    13B2u    6.887420     6Au     6.897309  
      22B1u    6.897339    23Ag     6.992655    13B2g    7.031768  
      13B3g    7.031768    23B1u    7.324854  

    Final Occupation by Irrep:
             Ag   B1g   B2g   B3g    Au   B1u   B2u   B3u 
    DOCC [     5,    0,    1,    1,    0,    4,    2,    2 ]
    SOCC [     0,    0,    1,    1,    0,    0,    0,    0 ]

  @DF-UKS Final Energy:  -796.36466535481554

   => Energetics <=

    Nuclear Repulsion Energy =             71.9589096344779477
    One-Electron Energy =               -1242.5088160068203251
    Two-Electron Energy =                 413.6272634148276666
    DFT Exchange-Correlation Energy =     -39.5755839585761180
    Empirical Dispersion Energy =           0.0000000000000000
    VV10 Nonlocal Energy =                  0.1335615612753142
    Total Energy =                       -796.3646653548154291

  UHF NO Occupations:
  HONO-2 :    2B3u 1.9979820
  HONO-1 :    2B2g 1.0000000
  HONO-0 :    2B3g 1.0000000
  LUNO+0 :    3B3u 0.0020180
  LUNO+1 :    3B2u 0.0020180
  LUNO+2 :    5B1u 0.0002624
  LUNO+3 :    6 Ag 0.0002062


Computation Completed


Properties will be evaluated at   0.000000,   0.000000,   0.000000 [a0]

Properties computed using the SCF density matrix

  Nuclear Dipole Moment: [e a0]
     X:     0.0000      Y:     0.0000      Z:     0.0000

  Electronic Dipole Moment: [e a0]
     X:     0.0000      Y:     0.0000      Z:     0.0000

  Dipole Moment: [e a0]
     X:     0.0000      Y:     0.0000      Z:     0.0000     Total:     0.0000

  Dipole Moment: [D]
     X:     0.0000      Y:     0.0000      Z:     0.0000     Total:     0.0000


*** tstop() called on bp1-compute00099.data.bp.acrc.priv at Tue Apr 27 17:36:37 2021
Module time:
	user time   =     189.84 seconds =       3.16 minutes
	system time =       6.89 seconds =       0.11 minutes
	total time  =          8 seconds =       0.13 minutes
Total time:
	user time   =    2302.46 seconds =      38.37 minutes
	system time =      92.32 seconds =       1.54 minutes
	total time  =        101 seconds =       1.68 minutes

         ----------------------------------------------------------
                                   FINDIF
                     R. A. King and Jonathon Misiewicz
         ---------------------------------------------------------

  Computing second-derivative from energies using projected, 
  symmetry-adapted, cartesian coordinates.

  3 energies passed in, including the reference geometry.
    Using 3-point formula.
    Energy without displacement: -796.3646657453
    Check energies below for precision!
    0: -1 :      -796.3646655867
    0: 1  :      -796.3646653548

-------------------------------------------------------------


  ==> Harmonic Vibrational Analysis <==

  non-mass-weighted Hessian:       Symmetric? True   Hermitian? True   Lin Dep Dim?  5 (0)
  projection of translations (True) and rotations (True) removed 5 degrees of freedom (5)
  total projector:                 Symmetric? True   Hermitian? True   Lin Dep Dim?  5 (5)
  mass-weighted Hessian:           Symmetric? True   Hermitian? True   Lin Dep Dim?  5 (0)
  pre-proj  low-frequency mode:    0.0000  [cm^-1]
  pre-proj  low-frequency mode:    0.0000  [cm^-1]
  pre-proj  low-frequency mode:    0.0000  [cm^-1]
  pre-proj  low-frequency mode:    0.0000  [cm^-1]
  pre-proj  low-frequency mode:    0.0000  [cm^-1]
  pre-proj  all modes:['0.0000' '0.0000' '0.0000' '0.0000' '0.0000' '761.8674']
  projected mass-weighted Hessian: Symmetric? True   Hermitian? True   Lin Dep Dim?  5 (5)
  post-proj low-frequency mode:    0.0000i [cm^-1] (TR)
  post-proj low-frequency mode:    0.0000  [cm^-1] (TR)
  post-proj low-frequency mode:    0.0000  [cm^-1] (TR)
  post-proj low-frequency mode:    0.0000  [cm^-1] (TR)
  post-proj low-frequency mode:    0.0000  [cm^-1] (TR)
  post-proj  all modes:['0.0000i' '0.0000' '0.0000' '0.0000' '0.0000' '761.8674']

  Vibration                       6           
  Freq [cm^-1]                 761.8674       
  Irrep                           Ag          
  Reduced mass [u]             31.9721        
  Force const [mDyne/A]        10.9340        
  Turning point v=0 [a0]        0.0703        
  RMS dev v=0 [a0 u^1/2]        0.2811        
  Char temp [K]               1096.1575       
  ----------------------------------------------------------------------------------
      1   S                0.00  0.00  0.71   
      2   S                0.00  0.00 -0.71   

  ==> Thermochemistry Components <==

  Entropy, S
    Electronic S            2.183 [cal/(mol K)]        9.134 [J/(mol K)]       0.00347910 [mEh/K] (multiplicity = 3)
    Translational S        38.385 [cal/(mol K)]      160.603 [J/(mol K)]       0.06117054 [mEh/K] (mol. weight = 63.9441 [u], P = 101325.00 [Pa])
    Rotational S           13.619 [cal/(mol K)]       56.984 [J/(mol K)]       0.02170396 [mEh/K] (symmetry no. = 2)
    Vibrational S           0.241 [cal/(mol K)]        1.007 [J/(mol K)]       0.00038353 [mEh/K]
  Total S                  54.428 [cal/(mol K)]      227.728 [J/(mol K)]       0.08673713 [mEh/K]
  Correction S              0.000 [cal/(mol K)]        0.000 [J/(mol K)]       0.00000000 [mEh/K]

  Constant volume heat capacity, Cv
    Electronic Cv           0.000 [cal/(mol K)]        0.000 [J/(mol K)]       0.00000000 [mEh/K]
    Translational Cv        2.981 [cal/(mol K)]       12.472 [J/(mol K)]       0.00475022 [mEh/K]
    Rotational Cv           1.987 [cal/(mol K)]        8.314 [J/(mol K)]       0.00316681 [mEh/K]
    Vibrational Cv          0.716 [cal/(mol K)]        2.994 [J/(mol K)]       0.00114043 [mEh/K]
  Total Cv                  5.684 [cal/(mol K)]       23.780 [J/(mol K)]       0.00905746 [mEh/K]
  Correction Cv             0.000 [cal/(mol K)]        0.000 [J/(mol K)]       0.00000000 [mEh/K]

  Constant pressure heat capacity, Cp
    Electronic Cp           0.000 [cal/(mol K)]        0.000 [J/(mol K)]       0.00000000 [mEh/K]
    Translational Cp        4.968 [cal/(mol K)]       20.786 [J/(mol K)]       0.00791703 [mEh/K]
    Rotational Cp           1.987 [cal/(mol K)]        8.314 [J/(mol K)]       0.00316681 [mEh/K]
    Vibrational Cp          0.716 [cal/(mol K)]        2.994 [J/(mol K)]       0.00114043 [mEh/K]
  Total Cp                  7.671 [cal/(mol K)]       32.095 [J/(mol K)]       0.01222427 [mEh/K]
  Correction Cp             0.000 [cal/(mol K)]        0.000 [J/(mol K)]       0.00000000 [mEh/K]

  ==> Thermochemistry Energy Analysis <==

  Raw electronic energy, E0
  Total E0, Electronic energy at well bottom at 0 [K]                 -796.36466575 [Eh]

  Zero-point energy, ZPE_vib = Sum_i nu_i / 2
    Electronic ZPE          0.000 [kcal/mol]        0.000 [kJ/mol]       0.00000000 [Eh]
    Translational ZPE       0.000 [kcal/mol]        0.000 [kJ/mol]       0.00000000 [Eh]
    Rotational ZPE          0.000 [kcal/mol]        0.000 [kJ/mol]       0.00000000 [Eh]
    Vibrational ZPE         1.089 [kcal/mol]        4.557 [kJ/mol]       0.00173566 [Eh]         380.934 [cm^-1]
  Correction ZPE            1.089 [kcal/mol]        4.557 [kJ/mol]       0.00173566 [Eh]         380.934 [cm^-1]
  Total ZPE, Electronic energy at 0 [K]                               -796.36293008 [Eh]

  Thermal Energy, E (includes ZPE)
    Electronic E            0.000 [kcal/mol]        0.000 [kJ/mol]       0.00000000 [Eh]
    Translational E         0.889 [kcal/mol]        3.718 [kJ/mol]       0.00141628 [Eh]
    Rotational E            0.592 [kcal/mol]        2.479 [kJ/mol]       0.00094418 [Eh]
    Vibrational E           1.146 [kcal/mol]        4.794 [kJ/mol]       0.00182580 [Eh]
  Correction E              2.627 [kcal/mol]       10.991 [kJ/mol]       0.00418627 [Eh]
  Total E, Electronic energy at  298.15 [K]                           -796.36047948 [Eh]

  Enthalpy, H_trans = E_trans + k_B * T
    Electronic H            0.000 [kcal/mol]        0.000 [kJ/mol]       0.00000000 [Eh]
    Translational H         1.481 [kcal/mol]        6.197 [kJ/mol]       0.00236046 [Eh]
    Rotational H            0.592 [kcal/mol]        2.479 [kJ/mol]       0.00094418 [Eh]
    Vibrational H           1.146 [kcal/mol]        4.794 [kJ/mol]       0.00182580 [Eh]
  Correction H              3.219 [kcal/mol]       13.470 [kJ/mol]       0.00513045 [Eh]
  Total H, Enthalpy at  298.15 [K]                                    -796.35953529 [Eh]

  Gibbs free energy, G = H - T * S
    Electronic G           -0.651 [kcal/mol]       -2.723 [kJ/mol]      -0.00103729 [Eh]
    Translational G        -9.963 [kcal/mol]      -41.686 [kJ/mol]      -0.01587754 [Eh]
    Rotational G           -3.468 [kcal/mol]      -14.511 [kJ/mol]      -0.00552685 [Eh]
    Vibrational G           1.074 [kcal/mol]        4.493 [kJ/mol]       0.00171146 [Eh]
  Correction G            -13.008 [kcal/mol]      -54.427 [kJ/mol]      -0.02073022 [Eh]
  Total G, Free enthalpy at  298.15 [K]                               -796.38539597 [Eh]

    Psi4 stopped on: Tuesday, 27 April 2021 05:36PM
    Psi4 wall time for execution: 0:01:41.84

*** Psi4 exiting successfully. Buy a developer a beer!
