
    -----------------------------------------------------------------------
          Psi4: An Open-Source Ab Initio Electronic Structure Package
                               Psi4 1.3.2 release

                         Git: Rev {HEAD} ecbda83 


    R. M. Parrish, L. A. Burns, D. G. A. Smith, A. C. Simmonett,
    A. E. DePrince III, E. G. Hohenstein, U. Bozkaya, A. Yu. Sokolov,
    R. Di Remigio, R. M. Richard, J. F. Gonthier, A. M. James,
    H. R. McAlexander, A. Kumar, M. Saitow, X. Wang, B. P. Pritchard,
    P. Verma, H. F. Schaefer III, K. Patkowski, R. A. King, E. F. Valeev,
    F. A. Evangelista, J. M. Turney, T. D. Crawford, and C. D. Sherrill,
    J. Chem. Theory Comput. 13(7) pp 3185--3197 (2017).
    (doi: 10.1021/acs.jctc.7b00174)


                         Additional Contributions by
    P. Kraus, H. Kruse, M. H. Lechner, M. C. Schieber, R. A. Shaw,
    A. Alenaizan, R. Galvelis, Z. L. Glick, S. Lehtola, and J. P. Misiewicz

    -----------------------------------------------------------------------


    Psi4 started on: Tuesday, 27 April 2021 05:35PM

    Process ID: 122375
    Host:       bp1-compute00092.data.bp.acrc.priv
    PSIDATADIR: /work/zw18965/.conda/envs/p4env/share/psi4
    Memory:     500.0 MiB
    Threads:    24
    
  ==> Input File <==

--------------------------------------------------------------------------
memory 144 GB

molecule {
0 3
S 0.0000000000 0.0000000000 0.0000000000
O 0.0000000000 0.0000000000 1.4862145500
}

set reference uks
set dynamic_level 1
set basis aug-cc-pV(T+d)Z
 
optimize("wB97M-V")
frequencies("wB97M-V")
--------------------------------------------------------------------------

  Memory set to 134.110 GiB by Python driver.
gradient() will perform gradient computation by finite difference of analytic energies.

         ----------------------------------------------------------
                                   FINDIF
                     R. A. King and Jonathon Misiewicz
         ---------------------------------------------------------

  Using finite-differences of energies to determine gradients.
    Generating geometries for use with 3-point formula.
    Displacement size will be 5.00e-03.
    Number of atoms is 2.
    Number of symmetric SALCs is 1.
    Translations projected? 1. Rotations projected? 1.
    Number of geometries (including reference) is 3.

  //>>>>>>>>>>>>>>>>>>>>>>>>>>>>>>>>>>>//
  //    Loading displacement 1 of 3    //
  //<<<<<<<<<<<<<<<<<<<<<<<<<<<<<<<<<<<//

*** tstart() called on bp1-compute00092.data.bp.acrc.priv
*** at Tue Apr 27 17:35:02 2021

   => Loading Basis Set <=

    Name: AUG-CC-PV(T+D)Z
    Role: ORBITAL
    Keyword: BASIS
    atoms 1 entry S          line   928 file /work/zw18965/.conda/envs/p4env/share/psi4/basis/aug-cc-pv_tpd_z.gbs 
    atoms 2 entry O          line   347 file /work/zw18965/.conda/envs/p4env/share/psi4/basis/aug-cc-pv_tpd_z.gbs 


         ---------------------------------------------------------
                                   SCF
               by Justin Turney, Rob Parrish, Andy Simmonett
                          and Daniel G. A. Smith
                              UKS Reference
                       24 Threads, 137329 MiB Core
         ---------------------------------------------------------

  ==> Geometry <==

    Molecular point group: c2v
    Full point group: C_inf_v

    Geometry (in Angstrom), charge = 0, multiplicity = 3:

       Center              X                  Y                   Z               Mass       
    ------------   -----------------  -----------------  -----------------  -----------------
         S            0.000000000000     0.000000000000    -0.495588255967    31.972071174400
         O            0.000000000000     0.000000000000     0.990626294033    15.994914619570

  Running in c2v symmetry.

  Rotational constants: A = ************  B =      0.71585  C =      0.71585 [cm^-1]
  Rotational constants: A = ************  B =  21460.70147  C =  21460.70147 [MHz]
  Nuclear repulsion =   45.575306045658088

  Charge       = 0
  Multiplicity = 3
  Electrons    = 24
  Nalpha       = 13
  Nbeta        = 11

  ==> Algorithm <==

  SCF Algorithm Type is DF.
  DIIS enabled.
  MOM disabled.
  Fractional occupation disabled.
  Guess Type is SAD.
  Energy threshold   = 1.00e-08
  Density threshold  = 1.00e-08
  Integral threshold = 0.00e+00

  ==> Primary Basis <==

  Basis Set: AUG-CC-PV(T+D)Z
    Blend: AUG-CC-PV(T+D)Z
    Number of shells: 31
    Number of basis function: 101
    Number of Cartesian functions: 120
    Spherical Harmonics?: true
    Max angular momentum: 3

  ==> DFT Potential <==

   => Composite Functional: WB97M-V <= 

    wB97M-V Hyb-GGA Exchange-Correlation Functional

    N. Mardirossian and M. Head-Gordon, J. Chem. Phys. 144, 214110 (2016)

    Deriv               =              1
    GGA                 =           TRUE
    Meta                =           TRUE

    Exchange Hybrid     =           TRUE
    MP2 Hybrid          =          FALSE

   => Exchange-Correlation Functionals <=

    1.0000   wB97M-V exchange-correlation functional

   => Exact (HF) Exchange <=

    0.8500            HF,LR [omega = 0.3000]
    0.1500               HF 

   => VV10 Non-Local Parameters <=

    VV10 B              =     6.0000E+00
    VV10 C              =     1.0000E-02

   => Molecular Quadrature <=

    Radial Scheme          =       TREUTLER
    Pruning Scheme         =           FLAT
    Nuclear Scheme         =       TREUTLER

    BS radius alpha        =              1
    Pruning alpha          =              1
    Radial Points          =             75
    Spherical Points       =            302
    Total Points           =          45099
    Total Blocks           =            422
    Max Points             =            255
    Max Functions          =            101

   => Loading Basis Set <=

    Name: (AUG-CC-PV(T+D)Z AUX)
    Role: JKFIT
    Keyword: DF_BASIS_SCF
    atoms 1 entry S          line   730 file /work/zw18965/.conda/envs/p4env/share/psi4/basis/aug-cc-pvtz-jkfit.gbs 
    atoms 2 entry O          line   286 file /work/zw18965/.conda/envs/p4env/share/psi4/basis/aug-cc-pvtz-jkfit.gbs 

  ==> Pre-Iterations <==

   -------------------------------------------------------
    Irrep   Nso     Nmo     Nalpha   Nbeta   Ndocc  Nsocc
   -------------------------------------------------------
     A1        42      42       0       0       0       0
     A2        11      11       0       0       0       0
     B1        24      24       0       0       0       0
     B2        24      24       0       0       0       0
   -------------------------------------------------------
    Total     101     101      13      11      11       2
   -------------------------------------------------------

  ==> Integral Setup <==

  ==> DiskDFJK: Density-Fitted J/K Matrices <==

    J tasked:                  Yes
    K tasked:                  Yes
    wK tasked:                 Yes
    Omega:               3.000E-01
    OpenMP threads:             24
    Integrals threads:          24
    Memory [MiB]:           102684
    Algorithm:                Core
    Integral Cache:           NONE
    Schwarz Cutoff:          1E-12
    Fitting Condition:       1E-10

   => Auxiliary Basis Set <=

  Basis Set: (AUG-CC-PV(T+D)Z AUX)
    Blend: AUG-CC-PVTZ-JKFIT
    Number of shells: 72
    Number of basis function: 250
    Number of Cartesian functions: 311
    Spherical Harmonics?: true
    Max angular momentum: 4

  Cached 100.0% of DFT collocation blocks in 0.305 [GiB].

  Minimum eigenvalue in the overlap matrix is 4.9147177960E-04.
  Using Symmetric Orthogonalization.

  SCF Guess: Superposition of Atomic Densities via on-the-fly atomic UHF.

  ==> Iterations <==

                           Total Energy        Delta E     RMS |[F,P]|

   @DF-UKS iter SAD:  -472.92876301284593   -4.72929e+02   0.00000e+00 
   @DF-UKS iter   1:  -473.28808254988627   -3.59320e-01   8.69044e-03 DIIS
   @DF-UKS iter   2:  -473.17543780502928    1.12645e-01   1.33790e-02 DIIS
   @DF-UKS iter   3:  -473.37435741461405   -1.98920e-01   9.51100e-04 DIIS
   @DF-UKS iter   4:  -473.37548794066964   -1.13053e-03   2.65654e-04 DIIS
   @DF-UKS iter   5:  -473.37568001083179   -1.92070e-04   8.22833e-05 DIIS
   @DF-UKS iter   6:  -473.37570886329439   -2.88525e-05   2.96538e-05 DIIS
   @DF-UKS iter   7:  -473.37571450335020   -5.64006e-06   1.09471e-05 DIIS
   @DF-UKS iter   8:  -473.37571501047250   -5.07122e-07   3.72562e-06 DIIS
   @DF-UKS iter   9:  -473.37571505655615   -4.60836e-08   6.80380e-07 DIIS
   @DF-UKS iter  10:  -473.37571505819392   -1.63777e-09   1.31216e-07 DIIS
   @DF-UKS iter  11:  -473.37571505825855   -6.46310e-11   3.73008e-08 DIIS
   @DF-UKS iter  12:  -473.37571505826276   -4.20641e-12   6.64529e-09 DIIS
  Energy and wave function converged.


  ==> Post-Iterations <==

   @Spin Contamination Metric:   8.461145492E-03
   @S^2 Expected:                2.000000000E+00
   @S^2 Observed:                2.008461145E+00
   @S   Expected:                1.000000000E+00
   @S   Observed:                1.000000000E+00

    Orbital Energies [Eh]
    ---------------------

    Alpha Occupied:                                                       

       1A1   -89.302861     2A1   -19.413811     3A1    -8.210348  
       1B1    -6.120470     1B2    -6.120470     4A1    -6.117607  
       5A1    -1.220685     6A1    -0.804917     2B2    -0.568591  
       2B1    -0.568591     7A1    -0.564505     3B1    -0.358030  
       3B2    -0.358030  

    Alpha Virtual:                                                        

       8A1     0.034590     9A1     0.055279     4B1     0.065232  
       4B2     0.065232    10A1     0.116494    11A1     0.159558  
       5B2     0.164182     5B1     0.164182    12A1     0.205380  
       1A2     0.205380    13A1     0.290472     6B1     0.298298  
       6B2     0.298298    14A1     0.373592     7B1     0.442826  
       7B2     0.442826    15A1     0.481179    16A1     0.552368  
       2A2     0.552369     8B1     0.584736     8B2     0.584736  
      17A1     0.592543    18A1     0.630142     3A2     0.630142  
       9B1     0.746890     9B2     0.746890    10B2     0.785584  
      10B1     0.785584    19A1     0.788621    20A1     0.908725  
       4A2     0.908726    11B1     0.911432    11B2     0.911432  
      21A1     0.914744    22A1     0.991310    12B2     1.134801  
      12B1     1.134801    23A1     1.298314    24A1     1.632062  
       5A2     1.632078    25A1     1.690986    26A1     1.731964  
      13B1     1.732253    13B2     1.732253    27A1     1.841724  
       6A2     1.841725    14B2     1.909922    14B1     1.909922  
      15B1     1.933401    15B2     1.933401    16B2     2.067088  
      16B1     2.067088    28A1     2.152440     7A2     2.152445  
      17B1     2.197704    17B2     2.197704    29A1     2.216830  
      30A1     2.363060     8A2     2.363067    18B2     2.374285  
      18B1     2.374285    31A1     2.395826    32A1     2.681530  
      19B2     2.933304    19B1     2.933304    33A1     3.358189  
      20B2     4.002612    20B1     4.002612    34A1     4.435585  
      35A1     5.579278    21B1     6.101870    21B2     6.101870  
       9A2     6.221818    36A1     6.221853    22B2     6.318873  
      22B1     6.318873    37A1     6.323424    10A2     6.589292  
      38A1     6.589308    23B2     6.775397    23B1     6.775397  
      39A1     6.821245    11A2     6.821274    40A1     6.935506  
      24B2     7.145533    24B1     7.145533    41A1     8.255124  
      42A1    10.882823  

    Beta Occupied:                                                        

       1A1   -89.295538     2A1   -19.392397     3A1    -8.203039  
       4A1    -6.113187     1B2    -6.104634     1B1    -6.104634  
       5A1    -1.181357     6A1    -0.741301     7A1    -0.529575  
       2B1    -0.496452     2B2    -0.496452  

    Beta Virtual:                                                         

       3B1    -0.046768     3B2    -0.046768     8A1     0.038555  
       9A1     0.052395     4B1     0.066252     4B2     0.066252  
      10A1     0.130346    11A1     0.163401     5B1     0.168878  
       5B2     0.168878    12A1     0.214039     1A2     0.214039  
      13A1     0.296968     6B1     0.310757     6B2     0.310757  
      14A1     0.376827     7B1     0.450959     7B2     0.450959  
      15A1     0.494868    16A1     0.577921     2A2     0.577922  
      17A1     0.596811     8B1     0.610788     8B2     0.610788  
      18A1     0.649984     3A2     0.649985     9B2     0.754540  
       9B1     0.754540    10B1     0.804176    10B2     0.804176  
      19A1     0.804781    20A1     0.913690     4A2     0.913692  
      11B1     0.923215    11B2     0.923215    21A1     0.928044  
      22A1     1.002250    12B2     1.145284    12B1     1.145284  
      23A1     1.334381    24A1     1.691439     5A2     1.691445  
      25A1     1.704332    26A1     1.745642    13B2     1.782091  
      13B1     1.782091     6A2     1.867013    27A1     1.867017  
      14B2     1.935776    14B1     1.935776    15B1     1.937646  
      15B2     1.937646    16B2     2.133254    16B1     2.133254  
      28A1     2.179245     7A2     2.179260    29A1     2.235318  
      17B2     2.238315    17B1     2.238315     8A2     2.397156  
      30A1     2.397161    18B2     2.398934    18B1     2.398934  
      31A1     2.429523    32A1     2.704573    19B2     2.960163  
      19B1     2.960163    33A1     3.372076    20B1     4.068226  
      20B2     4.068226    34A1     4.460771    35A1     5.600935  
      21B1     6.161466    21B2     6.161466     9A2     6.259487  
      36A1     6.259499    22B1     6.346593    22B2     6.346593  
      37A1     6.349639    10A2     6.678501    38A1     6.678514  
      23B1     6.818818    23B2     6.818818    39A1     6.839180  
      11A2     6.839196    40A1     6.966592    24B1     7.167642  
      24B2     7.167642    41A1     8.270460    42A1    10.929274  

    Final Occupation by Irrep:
             A1    A2    B1    B2 
    DOCC [     7,    0,    2,    2 ]
    SOCC [     0,    0,    1,    1 ]

  @DF-UKS Final Energy:  -473.37571505826276

   => Energetics <=

    Nuclear Repulsion Energy =             45.5753060456580883
    One-Electron Energy =                -743.2134163852249458
    Two-Electron Energy =                 250.1905568703768381
    DFT Exchange-Correlation Energy =     -26.0289567276141085
    Empirical Dispersion Energy =           0.0000000000000000
    VV10 Nonlocal Energy =                  0.1007951385413978
    Total Energy =                       -473.3757150582627560

  UHF NO Occupations:
  HONO-2 :    2 B2 1.9982064
  HONO-1 :    3 B1 1.0000000
  HONO-0 :    3 B2 1.0000000
  LUNO+0 :    4 B2 0.0017936
  LUNO+1 :    4 B1 0.0017936
  LUNO+2 :    8 A1 0.0003458
  LUNO+3 :    9 A1 0.0002315


Computation Completed


Properties will be evaluated at   0.000000,   0.000000,   0.000000 [a0]

Properties computed using the SCF density matrix

  Nuclear Dipole Moment: [e a0]
     X:     0.0000      Y:     0.0000      Z:    -0.0083

  Electronic Dipole Moment: [e a0]
     X:     0.0000      Y:     0.0000      Z:    -0.6109

  Dipole Moment: [e a0]
     X:     0.0000      Y:     0.0000      Z:    -0.6192     Total:     0.6192

  Dipole Moment: [D]
     X:     0.0000      Y:     0.0000      Z:    -1.5740     Total:     1.5740


*** tstop() called on bp1-compute00092.data.bp.acrc.priv at Tue Apr 27 17:35:11 2021
Module time:
	user time   =     192.30 seconds =       3.20 minutes
	system time =       9.85 seconds =       0.16 minutes
	total time  =          9 seconds =       0.15 minutes
Total time:
	user time   =     192.30 seconds =       3.20 minutes
	system time =       9.85 seconds =       0.16 minutes
	total time  =          9 seconds =       0.15 minutes

  //>>>>>>>>>>>>>>>>>>>>>>>>>>>>>>>>>>>//
  //    Loading displacement 2 of 3    //
  //<<<<<<<<<<<<<<<<<<<<<<<<<<<<<<<<<<<//

*** tstart() called on bp1-compute00092.data.bp.acrc.priv
*** at Tue Apr 27 17:35:11 2021

   => Loading Basis Set <=

    Name: AUG-CC-PV(T+D)Z
    Role: ORBITAL
    Keyword: BASIS
    atoms 1 entry S          line   928 file /work/zw18965/.conda/envs/p4env/share/psi4/basis/aug-cc-pv_tpd_z.gbs 
    atoms 2 entry O          line   347 file /work/zw18965/.conda/envs/p4env/share/psi4/basis/aug-cc-pv_tpd_z.gbs 


         ---------------------------------------------------------
                                   SCF
               by Justin Turney, Rob Parrish, Andy Simmonett
                          and Daniel G. A. Smith
                              UKS Reference
                       24 Threads, 137329 MiB Core
         ---------------------------------------------------------

  ==> Geometry <==

    Molecular point group: c2v
    Full point group: C_inf_v

    Geometry (in Angstrom), charge = 0, multiplicity = 3:

       Center              X                  Y                   Z               Mass       
    ------------   -----------------  -----------------  -----------------  -----------------
         S            0.000000000000     0.000000000000    -0.495858468507    31.972071174400
         O            0.000000000000     0.000000000000     0.991166419115    15.994914619570

  Running in c2v symmetry.

  Rotational constants: A = ************  B =      0.71507  C =      0.71507 [cm^-1]
  Rotational constants: A = ************  B =  21437.31830  C =  21437.31830 [MHz]
  Nuclear repulsion =   45.550470291095749

  Charge       = 0
  Multiplicity = 3
  Electrons    = 24
  Nalpha       = 13
  Nbeta        = 11

  ==> Algorithm <==

  SCF Algorithm Type is DF.
  DIIS enabled.
  MOM disabled.
  Fractional occupation disabled.
  Guess Type is SAD.
  Energy threshold   = 1.00e-08
  Density threshold  = 1.00e-08
  Integral threshold = 0.00e+00

  ==> Primary Basis <==

  Basis Set: AUG-CC-PV(T+D)Z
    Blend: AUG-CC-PV(T+D)Z
    Number of shells: 31
    Number of basis function: 101
    Number of Cartesian functions: 120
    Spherical Harmonics?: true
    Max angular momentum: 3

  ==> DFT Potential <==

   => Composite Functional: WB97M-V <= 

    wB97M-V Hyb-GGA Exchange-Correlation Functional

    N. Mardirossian and M. Head-Gordon, J. Chem. Phys. 144, 214110 (2016)

    Deriv               =              1
    GGA                 =           TRUE
    Meta                =           TRUE

    Exchange Hybrid     =           TRUE
    MP2 Hybrid          =          FALSE

   => Exchange-Correlation Functionals <=

    1.0000   wB97M-V exchange-correlation functional

   => Exact (HF) Exchange <=

    0.8500            HF,LR [omega = 0.3000]
    0.1500               HF 

   => VV10 Non-Local Parameters <=

    VV10 B              =     6.0000E+00
    VV10 C              =     1.0000E-02

   => Molecular Quadrature <=

    Radial Scheme          =       TREUTLER
    Pruning Scheme         =           FLAT
    Nuclear Scheme         =       TREUTLER

    BS radius alpha        =              1
    Pruning alpha          =              1
    Radial Points          =             75
    Spherical Points       =            302
    Total Points           =          45099
    Total Blocks           =            423
    Max Points             =            254
    Max Functions          =            101

   => Loading Basis Set <=

    Name: (AUG-CC-PV(T+D)Z AUX)
    Role: JKFIT
    Keyword: DF_BASIS_SCF
    atoms 1 entry S          line   730 file /work/zw18965/.conda/envs/p4env/share/psi4/basis/aug-cc-pvtz-jkfit.gbs 
    atoms 2 entry O          line   286 file /work/zw18965/.conda/envs/p4env/share/psi4/basis/aug-cc-pvtz-jkfit.gbs 

  ==> Pre-Iterations <==

   -------------------------------------------------------
    Irrep   Nso     Nmo     Nalpha   Nbeta   Ndocc  Nsocc
   -------------------------------------------------------
     A1        42      42       0       0       0       0
     A2        11      11       0       0       0       0
     B1        24      24       0       0       0       0
     B2        24      24       0       0       0       0
   -------------------------------------------------------
    Total     101     101      13      11      11       2
   -------------------------------------------------------

  ==> Integral Setup <==

  ==> DiskDFJK: Density-Fitted J/K Matrices <==

    J tasked:                  Yes
    K tasked:                  Yes
    wK tasked:                 Yes
    Omega:               3.000E-01
    OpenMP threads:             24
    Integrals threads:          24
    Memory [MiB]:           102684
    Algorithm:                Core
    Integral Cache:           NONE
    Schwarz Cutoff:          1E-12
    Fitting Condition:       1E-10

   => Auxiliary Basis Set <=

  Basis Set: (AUG-CC-PV(T+D)Z AUX)
    Blend: AUG-CC-PVTZ-JKFIT
    Number of shells: 72
    Number of basis function: 250
    Number of Cartesian functions: 311
    Spherical Harmonics?: true
    Max angular momentum: 4

  Cached 100.0% of DFT collocation blocks in 0.305 [GiB].

  Minimum eigenvalue in the overlap matrix is 4.9214356876E-04.
  Using Symmetric Orthogonalization.

  SCF Guess: Superposition of Atomic Densities via on-the-fly atomic UHF.

  ==> Iterations <==

                           Total Energy        Delta E     RMS |[F,P]|

   @DF-UKS iter SAD:  -472.92722802519819   -4.72927e+02   0.00000e+00 
   @DF-UKS iter   1:  -473.28802639929069   -3.60798e-01   8.69062e-03 DIIS
   @DF-UKS iter   2:  -473.17490076243132    1.13126e-01   1.33937e-02 DIIS
   @DF-UKS iter   3:  -473.37434312097093   -1.99442e-01   9.51227e-04 DIIS
   @DF-UKS iter   4:  -473.37547464913700   -1.13153e-03   2.66308e-04 DIIS
   @DF-UKS iter   5:  -473.37566756442760   -1.92915e-04   8.26283e-05 DIIS
   @DF-UKS iter   6:  -473.37569666669333   -2.91023e-05   2.98148e-05 DIIS
   @DF-UKS iter   7:  -473.37570237008896   -5.70340e-06   1.10173e-05 DIIS
   @DF-UKS iter   8:  -473.37570288340436   -5.13315e-07   3.75422e-06 DIIS
   @DF-UKS iter   9:  -473.37570293025033   -4.68460e-08   6.83225e-07 DIIS
   @DF-UKS iter  10:  -473.37570293190305   -1.65272e-09   1.31703e-07 DIIS
   @DF-UKS iter  11:  -473.37570293196779   -6.47447e-11   3.74551e-08 DIIS
   @DF-UKS iter  12:  -473.37570293197246   -4.66116e-12   6.68856e-09 DIIS
  Energy and wave function converged.


  ==> Post-Iterations <==

   @Spin Contamination Metric:   8.475873237E-03
   @S^2 Expected:                2.000000000E+00
   @S^2 Observed:                2.008475873E+00
   @S   Expected:                1.000000000E+00
   @S   Observed:                1.000000000E+00

    Orbital Energies [Eh]
    ---------------------

    Alpha Occupied:                                                       

       1A1   -89.302938     2A1   -19.413904     3A1    -8.210402  
       1B1    -6.120524     1B2    -6.120524     4A1    -6.117663  
       5A1    -1.220343     6A1    -0.805038     2B2    -0.568416  
       2B1    -0.568416     7A1    -0.564428     3B1    -0.358162  
       3B2    -0.358162  

    Alpha Virtual:                                                        

       8A1     0.034540     9A1     0.055280     4B1     0.065234  
       4B2     0.065234    10A1     0.116405    11A1     0.159500  
       5B2     0.164194     5B1     0.164194    12A1     0.205383  
       1A2     0.205383    13A1     0.290447     6B1     0.298205  
       6B2     0.298205    14A1     0.373457     7B1     0.442885  
       7B2     0.442885    15A1     0.481170    16A1     0.552392  
       2A2     0.552392     8B1     0.584668     8B2     0.584668  
      17A1     0.592541    18A1     0.630076     3A2     0.630077  
       9B1     0.746893     9B2     0.746893    10B2     0.785518  
      10B1     0.785518    19A1     0.788277    20A1     0.908635  
       4A2     0.908636    11B1     0.911254    11B2     0.911254  
      21A1     0.914857    22A1     0.990737    12B2     1.134938  
      12B1     1.134938    23A1     1.298009    24A1     1.632026  
       5A2     1.632043    25A1     1.691130    26A1     1.731942  
      13B1     1.732348    13B2     1.732348    27A1     1.841857  
       6A2     1.841858    14B2     1.909700    14B1     1.909700  
      15B1     1.933400    15B2     1.933400    16B1     2.067068  
      16B2     2.067068    28A1     2.152230     7A2     2.152234  
      17B1     2.197114    17B2     2.197114    29A1     2.216368  
      30A1     2.362579     8A2     2.362586    18B2     2.373981  
      18B1     2.373981    31A1     2.395156    32A1     2.682532  
      19B2     2.932985    19B1     2.932985    33A1     3.356194  
      20B2     4.002212    20B1     4.002212    34A1     4.434830  
      35A1     5.577198    21B1     6.101871    21B2     6.101871  
       9A2     6.221750    36A1     6.221785    22B2     6.319251  
      22B1     6.319251    37A1     6.322848    10A2     6.589222  
      38A1     6.589237    23B2     6.774796    23B1     6.774796  
      39A1     6.821175    11A2     6.821204    40A1     6.934270  
      24B1     7.144528    24B2     7.144528    41A1     8.252724  
      42A1    10.882243  

    Beta Occupied:                                                        

       1A1   -89.295614     2A1   -19.392477     3A1    -8.203093  
       4A1    -6.113244     1B2    -6.104688     1B1    -6.104688  
       5A1    -1.180974     6A1    -0.741427     7A1    -0.529505  
       2B1    -0.496223     2B2    -0.496223  

    Beta Virtual:                                                         

       3B1    -0.046888     3B2    -0.046888     8A1     0.038522  
       9A1     0.052407     4B1     0.066252     4B2     0.066252  
      10A1     0.130286    11A1     0.163321     5B1     0.168901  
       5B2     0.168901    12A1     0.214044     1A2     0.214044  
      13A1     0.296945     6B1     0.310669     6B2     0.310669  
      14A1     0.376704     7B1     0.451033     7B2     0.451033  
      15A1     0.494832    16A1     0.577951     2A2     0.577952  
      17A1     0.596813     8B1     0.610705     8B2     0.610705  
      18A1     0.649900     3A2     0.649901     9B1     0.754538  
       9B2     0.754538    10B1     0.804105    10B2     0.804105  
      19A1     0.804468    20A1     0.913596     4A2     0.913598  
      11B1     0.923035    11B2     0.923035    21A1     0.928155  
      22A1     1.001632    12B2     1.145428    12B1     1.145428  
      23A1     1.334068    24A1     1.691388     5A2     1.691395  
      25A1     1.704425    26A1     1.745656    13B2     1.782150  
      13B1     1.782150     6A2     1.867143    27A1     1.867147  
      14B2     1.935550    14B1     1.935550    15B1     1.937655  
      15B2     1.937655    16B1     2.133219    16B2     2.133219  
      28A1     2.179054     7A2     2.179069    29A1     2.234869  
      17B2     2.237728    17B1     2.237728     8A2     2.396653  
      30A1     2.396658    18B2     2.398623    18B1     2.398623  
      31A1     2.428832    32A1     2.705593    19B2     2.959833  
      19B1     2.959833    33A1     3.370045    20B1     4.067872  
      20B2     4.067872    34A1     4.460031    35A1     5.598877  
      21B1     6.161513    21B2     6.161513     9A2     6.259450  
      36A1     6.259462    22B1     6.346991    22B2     6.346991  
      37A1     6.349074    10A2     6.678491    38A1     6.678504  
      23B1     6.818229    23B2     6.818229    39A1     6.839103  
      11A2     6.839120    40A1     6.965368    24B1     7.166637  
      24B2     7.166637    41A1     8.268051    42A1    10.928715  

    Final Occupation by Irrep:
             A1    A2    B1    B2 
    DOCC [     7,    0,    2,    2 ]
    SOCC [     0,    0,    1,    1 ]

  @DF-UKS Final Energy:  -473.37570293197246

   => Energetics <=

    Nuclear Repulsion Energy =             45.5504702910957491
    One-Electron Energy =                -743.1643964576353483
    Two-Electron Energy =                 250.1659145831008573
    DFT Exchange-Correlation Energy =     -26.0284872804754350
    Empirical Dispersion Energy =           0.0000000000000000
    VV10 Nonlocal Energy =                  0.1007959319418028
    Total Energy =                       -473.3757029319723983

  UHF NO Occupations:
  HONO-2 :    2 B2 1.9982029
  HONO-1 :    3 B2 1.0000000
  HONO-0 :    3 B1 1.0000000
  LUNO+0 :    4 B2 0.0017971
  LUNO+1 :    4 B1 0.0017971
  LUNO+2 :    8 A1 0.0003459
  LUNO+3 :    9 A1 0.0002315


Computation Completed


Properties will be evaluated at   0.000000,   0.000000,   0.000000 [a0]

Properties computed using the SCF density matrix

  Nuclear Dipole Moment: [e a0]
     X:     0.0000      Y:     0.0000      Z:    -0.0083

  Electronic Dipole Moment: [e a0]
     X:     0.0000      Y:     0.0000      Z:    -0.6117

  Dipole Moment: [e a0]
     X:     0.0000      Y:     0.0000      Z:    -0.6200     Total:     0.6200

  Dipole Moment: [D]
     X:     0.0000      Y:     0.0000      Z:    -1.5760     Total:     1.5760


*** tstop() called on bp1-compute00092.data.bp.acrc.priv at Tue Apr 27 17:35:19 2021
Module time:
	user time   =     193.36 seconds =       3.22 minutes
	system time =       8.97 seconds =       0.15 minutes
	total time  =          8 seconds =       0.13 minutes
Total time:
	user time   =     385.80 seconds =       6.43 minutes
	system time =      18.83 seconds =       0.31 minutes
	total time  =         17 seconds =       0.28 minutes

  //>>>>>>>>>>>>>>>>>>>>>>>>>>>>>>>>>>>//
  //    Loading displacement 3 of 3    //
  //<<<<<<<<<<<<<<<<<<<<<<<<<<<<<<<<<<<//

*** tstart() called on bp1-compute00092.data.bp.acrc.priv
*** at Tue Apr 27 17:35:19 2021

   => Loading Basis Set <=

    Name: AUG-CC-PV(T+D)Z
    Role: ORBITAL
    Keyword: BASIS
    atoms 1 entry S          line   928 file /work/zw18965/.conda/envs/p4env/share/psi4/basis/aug-cc-pv_tpd_z.gbs 
    atoms 2 entry O          line   347 file /work/zw18965/.conda/envs/p4env/share/psi4/basis/aug-cc-pv_tpd_z.gbs 


         ---------------------------------------------------------
                                   SCF
               by Justin Turney, Rob Parrish, Andy Simmonett
                          and Daniel G. A. Smith
                              UKS Reference
                       24 Threads, 137329 MiB Core
         ---------------------------------------------------------

  ==> Geometry <==

    Molecular point group: c2v
    Full point group: C_inf_v

    Geometry (in Angstrom), charge = 0, multiplicity = 3:

       Center              X                  Y                   Z               Mass       
    ------------   -----------------  -----------------  -----------------  -----------------
         S            0.000000000000     0.000000000000    -0.495318043426    31.972071174400
         O            0.000000000000     0.000000000000     0.990086168951    15.994914619570

  Running in c2v symmetry.

  Rotational constants: A = ************  B =      0.71663  C =      0.71663 [cm^-1]
  Rotational constants: A = ************  B =  21484.12291  C =  21484.12291 [MHz]
  Nuclear repulsion =   45.600168897688086

  Charge       = 0
  Multiplicity = 3
  Electrons    = 24
  Nalpha       = 13
  Nbeta        = 11

  ==> Algorithm <==

  SCF Algorithm Type is DF.
  DIIS enabled.
  MOM disabled.
  Fractional occupation disabled.
  Guess Type is SAD.
  Energy threshold   = 1.00e-08
  Density threshold  = 1.00e-08
  Integral threshold = 0.00e+00

  ==> Primary Basis <==

  Basis Set: AUG-CC-PV(T+D)Z
    Blend: AUG-CC-PV(T+D)Z
    Number of shells: 31
    Number of basis function: 101
    Number of Cartesian functions: 120
    Spherical Harmonics?: true
    Max angular momentum: 3

  ==> DFT Potential <==

   => Composite Functional: WB97M-V <= 

    wB97M-V Hyb-GGA Exchange-Correlation Functional

    N. Mardirossian and M. Head-Gordon, J. Chem. Phys. 144, 214110 (2016)

    Deriv               =              1
    GGA                 =           TRUE
    Meta                =           TRUE

    Exchange Hybrid     =           TRUE
    MP2 Hybrid          =          FALSE

   => Exchange-Correlation Functionals <=

    1.0000   wB97M-V exchange-correlation functional

   => Exact (HF) Exchange <=

    0.8500            HF,LR [omega = 0.3000]
    0.1500               HF 

   => VV10 Non-Local Parameters <=

    VV10 B              =     6.0000E+00
    VV10 C              =     1.0000E-02

   => Molecular Quadrature <=

    Radial Scheme          =       TREUTLER
    Pruning Scheme         =           FLAT
    Nuclear Scheme         =       TREUTLER

    BS radius alpha        =              1
    Pruning alpha          =              1
    Radial Points          =             75
    Spherical Points       =            302
    Total Points           =          45099
    Total Blocks           =            422
    Max Points             =            255
    Max Functions          =            101

   => Loading Basis Set <=

    Name: (AUG-CC-PV(T+D)Z AUX)
    Role: JKFIT
    Keyword: DF_BASIS_SCF
    atoms 1 entry S          line   730 file /work/zw18965/.conda/envs/p4env/share/psi4/basis/aug-cc-pvtz-jkfit.gbs 
    atoms 2 entry O          line   286 file /work/zw18965/.conda/envs/p4env/share/psi4/basis/aug-cc-pvtz-jkfit.gbs 

  ==> Pre-Iterations <==

   -------------------------------------------------------
    Irrep   Nso     Nmo     Nalpha   Nbeta   Ndocc  Nsocc
   -------------------------------------------------------
     A1        42      42       0       0       0       0
     A2        11      11       0       0       0       0
     B1        24      24       0       0       0       0
     B2        24      24       0       0       0       0
   -------------------------------------------------------
    Total     101     101      13      11      11       2
   -------------------------------------------------------

  ==> Integral Setup <==

  ==> DiskDFJK: Density-Fitted J/K Matrices <==

    J tasked:                  Yes
    K tasked:                  Yes
    wK tasked:                 Yes
    Omega:               3.000E-01
    OpenMP threads:             24
    Integrals threads:          24
    Memory [MiB]:           102684
    Algorithm:                Core
    Integral Cache:           NONE
    Schwarz Cutoff:          1E-12
    Fitting Condition:       1E-10

   => Auxiliary Basis Set <=

  Basis Set: (AUG-CC-PV(T+D)Z AUX)
    Blend: AUG-CC-PVTZ-JKFIT
    Number of shells: 72
    Number of basis function: 250
    Number of Cartesian functions: 311
    Spherical Harmonics?: true
    Max angular momentum: 4

  Cached 100.0% of DFT collocation blocks in 0.305 [GiB].

  Minimum eigenvalue in the overlap matrix is 4.9080124577E-04.
  Using Symmetric Orthogonalization.

  SCF Guess: Superposition of Atomic Densities via on-the-fly atomic UHF.

  ==> Iterations <==

                           Total Energy        Delta E     RMS |[F,P]|

   @DF-UKS iter SAD:  -472.93030417060390   -4.72930e+02   0.00000e+00 
   @DF-UKS iter   1:  -473.28813769865104   -3.57834e-01   8.69024e-03 DIIS
   @DF-UKS iter   2:  -473.17597298310750    1.12165e-01   1.33644e-02 DIIS
   @DF-UKS iter   3:  -473.37437038854927   -1.98397e-01   9.50970e-04 DIIS
   @DF-UKS iter   4:  -473.37549990211437   -1.12951e-03   2.64997e-04 DIIS
   @DF-UKS iter   5:  -473.37569112375411   -1.91222e-04   8.19364e-05 DIIS
   @DF-UKS iter   6:  -473.37571972651415   -2.86028e-05   2.94925e-05 DIIS
   @DF-UKS iter   7:  -473.37572530351622   -5.57700e-06   1.08765e-05 DIIS
   @DF-UKS iter   8:  -473.37572580448034   -5.00964e-07   3.69642e-06 DIIS
   @DF-UKS iter   9:  -473.37572584979063   -4.53103e-08   6.77481e-07 DIIS
   @DF-UKS iter  10:  -473.37572585141402   -1.62339e-09   1.30727e-07 DIIS
   @DF-UKS iter  11:  -473.37572585147723   -6.32099e-11   3.71465e-08 DIIS
   @DF-UKS iter  12:  -473.37572585148155   -4.32010e-12   6.60232e-09 DIIS
  Energy and wave function converged.


  ==> Post-Iterations <==

   @Spin Contamination Metric:   8.446419566E-03
   @S^2 Expected:                2.000000000E+00
   @S^2 Observed:                2.008446420E+00
   @S   Expected:                1.000000000E+00
   @S   Observed:                1.000000000E+00

    Orbital Energies [Eh]
    ---------------------

    Alpha Occupied:                                                       

       1A1   -89.302784     2A1   -19.413719     3A1    -8.210294  
       1B2    -6.120415     1B1    -6.120415     4A1    -6.117551  
       5A1    -1.221028     6A1    -0.804796     2B1    -0.568766  
       2B2    -0.568766     7A1    -0.564581     3B2    -0.357898  
       3B1    -0.357898  

    Alpha Virtual:                                                        

       8A1     0.034640     9A1     0.055278     4B2     0.065229  
       4B1     0.065229    10A1     0.116583    11A1     0.159617  
       5B1     0.164170     5B2     0.164170    12A1     0.205377  
       1A2     0.205378    13A1     0.290496     6B2     0.298391  
       6B1     0.298391    14A1     0.373726     7B2     0.442767  
       7B1     0.442767    15A1     0.481188    16A1     0.552345  
       2A2     0.552346     8B2     0.584805     8B1     0.584805  
      17A1     0.592545    18A1     0.630207     3A2     0.630208  
       9B1     0.746887     9B2     0.746887    10B1     0.785650  
      10B2     0.785650    19A1     0.788965    20A1     0.908814  
       4A2     0.908816    11B2     0.911609    11B1     0.911609  
      21A1     0.914632    22A1     0.991885    12B1     1.134662  
      12B2     1.134662    23A1     1.298619    24A1     1.632097  
       5A2     1.632113    25A1     1.690841    26A1     1.731988  
      13B2     1.732158    13B1     1.732158    27A1     1.841592  
       6A2     1.841593    14B1     1.910144    14B2     1.910144  
      15B2     1.933402    15B1     1.933402    16B1     2.067107  
      16B2     2.067107    28A1     2.152650     7A2     2.152655  
      17B2     2.198296    17B1     2.198296    29A1     2.217292  
      30A1     2.363541     8A2     2.363548    18B1     2.374588  
      18B2     2.374588    31A1     2.396498    32A1     2.680528  
      19B1     2.933620    19B2     2.933620    33A1     3.360183  
      20B1     4.003014    20B2     4.003014    34A1     4.436342  
      35A1     5.581358    21B2     6.101869    21B1     6.101869  
       9A2     6.221886    36A1     6.221921    22B1     6.318496  
      22B2     6.318496    37A1     6.324005    10A2     6.589363  
      38A1     6.589378    23B1     6.775998    23B2     6.775998  
      39A1     6.821316    11A2     6.821345    40A1     6.936743  
      24B2     7.146538    24B1     7.146538    41A1     8.257520  
      42A1    10.883416  

    Beta Occupied:                                                        

       1A1   -89.295461     2A1   -19.392318     3A1    -8.202986  
       4A1    -6.113130     1B1    -6.104580     1B2    -6.104580  
       5A1    -1.181741     6A1    -0.741174     7A1    -0.529645  
       2B2    -0.496680     2B1    -0.496680  

    Beta Virtual:                                                         

       3B2    -0.046649     3B1    -0.046649     8A1     0.038588  
       9A1     0.052382     4B1     0.066253     4B2     0.066253  
      10A1     0.130407    11A1     0.163482     5B2     0.168855  
       5B1     0.168855    12A1     0.214033     1A2     0.214034  
      13A1     0.296991     6B2     0.310844     6B1     0.310844  
      14A1     0.376951     7B2     0.450885     7B1     0.450885  
      15A1     0.494904    16A1     0.577891     2A2     0.577892  
      17A1     0.596809     8B2     0.610871     8B1     0.610871  
      18A1     0.650067     3A2     0.650068     9B1     0.754542  
       9B2     0.754542    10B2     0.804247    10B1     0.804247  
      19A1     0.805095    20A1     0.913785     4A2     0.913787  
      11B2     0.923394    11B1     0.923394    21A1     0.927934  
      22A1     1.002870    12B2     1.145139    12B1     1.145139  
      23A1     1.334693    24A1     1.691489     5A2     1.691496  
      25A1     1.704237    26A1     1.745629    13B1     1.782032  
      13B2     1.782032     6A2     1.866883    27A1     1.866887  
      14B1     1.936003    14B2     1.936003    15B2     1.937638  
      15B1     1.937638    16B1     2.133290    16B2     2.133290  
      28A1     2.179436     7A2     2.179451    29A1     2.235766  
      17B1     2.238903    17B2     2.238903     8A2     2.397659  
      30A1     2.397664    18B1     2.399245    18B2     2.399245  
      31A1     2.430216    32A1     2.703553    19B1     2.960491  
      19B2     2.960491    33A1     3.374106    20B2     4.068580  
      20B1     4.068580    34A1     4.461514    35A1     5.602995  
      21B2     6.161419    21B1     6.161419     9A2     6.259522  
      36A1     6.259534    22B2     6.346196    22B1     6.346196  
      37A1     6.350209    10A2     6.678511    38A1     6.678523  
      23B2     6.819409    23B1     6.819409    39A1     6.839257  
      11A2     6.839274    40A1     6.967818    24B2     7.168648  
      24B1     7.168648    41A1     8.272864    42A1    10.929847  

    Final Occupation by Irrep:
             A1    A2    B1    B2 
    DOCC [     7,    0,    2,    2 ]
    SOCC [     0,    0,    1,    1 ]

  @DF-UKS Final Energy:  -473.37572585148155

   => Energetics <=

    Nuclear Repulsion Energy =             45.6001688976880857
    One-Electron Energy =                -743.2624860536950564
    Two-Electron Energy =                 250.2152239562116733
    DFT Exchange-Correlation Energy =     -26.0294269974720009
    Empirical Dispersion Energy =           0.0000000000000000
    VV10 Nonlocal Energy =                  0.1007943457857642
    Total Energy =                       -473.3757258514816044

  UHF NO Occupations:
  HONO-2 :    2 B1 1.9982099
  HONO-1 :    3 B2 1.0000000
  HONO-0 :    3 B1 1.0000000
  LUNO+0 :    4 B1 0.0017901
  LUNO+1 :    4 B2 0.0017901
  LUNO+2 :    8 A1 0.0003457
  LUNO+3 :    9 A1 0.0002315


Computation Completed


Properties will be evaluated at   0.000000,   0.000000,   0.000000 [a0]

Properties computed using the SCF density matrix

  Nuclear Dipole Moment: [e a0]
     X:     0.0000      Y:     0.0000      Z:    -0.0083

  Electronic Dipole Moment: [e a0]
     X:     0.0000      Y:     0.0000      Z:    -0.6102

  Dipole Moment: [e a0]
     X:     0.0000      Y:     0.0000      Z:    -0.6185     Total:     0.6185

  Dipole Moment: [D]
     X:     0.0000      Y:     0.0000      Z:    -1.5720     Total:     1.5720


*** tstop() called on bp1-compute00092.data.bp.acrc.priv at Tue Apr 27 17:35:27 2021
Module time:
	user time   =     187.32 seconds =       3.12 minutes
	system time =       7.31 seconds =       0.12 minutes
	total time  =          8 seconds =       0.13 minutes
Total time:
	user time   =     573.26 seconds =       9.55 minutes
	system time =      26.15 seconds =       0.44 minutes
	total time  =         25 seconds =       0.42 minutes

         ----------------------------------------------------------
                                   FINDIF
                     R. A. King and Jonathon Misiewicz
         ---------------------------------------------------------

  Computing gradient from energies.
    Using 3-point formula.
    Energy without displacement: -473.3757150583
    Check energies below for precision!
    Forces are for mass-weighted, symmetry-adapted cartesians (in au).

     Coord      Energy(-1)        Energy(+1)            Force
        0   -473.3757029320   -473.3757258515     -0.0022919509


-------------------------------------------------------------
  ## New Matrix (Symmetry 0) ##
  Irrep: 1 Size: 2 x 3

                 1                   2                   3

    1     0.00000000000000     0.00000000000000    -0.00748359792111
    2     0.00000000000000     0.00000000000000     0.00748359792111




			-----------------------------------------
			 OPTKING 2.0: for geometry optimizations 
			  - R.A. King,  Bethel University        
			-----------------------------------------
	At level 1: Red. Int., RFO, no backsteps, dynamic trust

	Internal coordinates to be generated automatically.
	Detected frag 1 with atoms:  1 2
	---Fragment 1 Bond Connectivity---
	 1 : 2
	 2 : 1

	---Fragment 1 Geometry and Gradient---
	 S           0.0000000000        0.0000000000       -0.9365260748
	 O           0.0000000000        0.0000000000        1.8720123884
	             0.0000000000        0.0000000000       -0.0074835979
	             0.0000000000        0.0000000000        0.0074835979

	Previous optimization step data not found.  Starting new optimization.

	---Fragment 1 Intrafragment Coordinates---
	 - Coordinate -           - BOHR/RAD -       - ANG/DEG -
	 R(1,2)           =         2.808538	       1.486215

	Current energy   :      -473.3757150583

	Generating empirical Hessian (Schlegel '84) for each fragment.
	Taking RFO optimization step.
	Going to follow RFO solution 1.
	Using RFO vector 1.
	Norm of target step-size    0.00919
	Projected energy change by RFO approximation:        -0.0000265448

	Back-transformation to cartesian coordinates...
	Successfully converged to displaced geometry.

	--- Internal Coordinate Step in ANG or DEG, aJ/ANG or AJ/DEG ---
	 ---------------------------------------------------------------------------
	   Coordinate                Previous        Force       Change         New 
	   ----------                --------       ------       ------       ------
	    1 R(1,2)          =      1.486215    -0.061655    -0.004863     1.481352
	 ---------------------------------------------------------------------------
	Successfully symmetrized geometry.

  ==> Convergence Check <==

  Measures of convergence in internal coordinates in au.
  Criteria marked as inactive (o), active & met (*), and active & unmet ( ).
  --------------------------------------------------------------------------------------------- ~
   Step     Total Energy     Delta E     MAX Force     RMS Force      MAX Disp      RMS Disp    ~
  --------------------------------------------------------------------------------------------- ~
    Convergence Criteria    1.00e-06 *    3.00e-04 *             o    1.20e-03 *             o  ~
  --------------------------------------------------------------------------------------------- ~
      1    -473.37571506   -4.73e+02      7.48e-03      7.48e-03 o    9.19e-03      9.19e-03 o  ~
  ---------------------------------------------------------------------------------------------

	Writing optimization data to binary file.
	Structure for next step:
	Cartesian Geometry (in Angstrom)
	    S     0.0000000000   0.0000000000  -0.4931568108
	    O     0.0000000000   0.0000000000   0.9881948469
			--------------------------
			 OPTKING Finished Execution 
			--------------------------

    Structure for next step:
    Molecular point group: c2v
    Full point group: C_inf_v

    Geometry (in Angstrom), charge = 0, multiplicity = 3:

    S            0.000000000000     0.000000000000    -0.493966693698
    O            0.000000000000     0.000000000000     0.987384969807

gradient() will perform gradient computation by finite difference of analytic energies.

         ----------------------------------------------------------
                                   FINDIF
                     R. A. King and Jonathon Misiewicz
         ---------------------------------------------------------

  Using finite-differences of energies to determine gradients.
    Generating geometries for use with 3-point formula.
    Displacement size will be 5.00e-03.
    Number of atoms is 2.
    Number of symmetric SALCs is 1.
    Translations projected? 1. Rotations projected? 1.
    Number of geometries (including reference) is 3.

  //>>>>>>>>>>>>>>>>>>>>>>>>>>>>>>>>>>>//
  //    Loading displacement 1 of 3    //
  //<<<<<<<<<<<<<<<<<<<<<<<<<<<<<<<<<<<//

*** tstart() called on bp1-compute00092.data.bp.acrc.priv
*** at Tue Apr 27 17:35:27 2021

   => Loading Basis Set <=

    Name: AUG-CC-PV(T+D)Z
    Role: ORBITAL
    Keyword: BASIS
    atoms 1 entry S          line   928 file /work/zw18965/.conda/envs/p4env/share/psi4/basis/aug-cc-pv_tpd_z.gbs 
    atoms 2 entry O          line   347 file /work/zw18965/.conda/envs/p4env/share/psi4/basis/aug-cc-pv_tpd_z.gbs 


         ---------------------------------------------------------
                                   SCF
               by Justin Turney, Rob Parrish, Andy Simmonett
                          and Daniel G. A. Smith
                              UKS Reference
                       24 Threads, 137329 MiB Core
         ---------------------------------------------------------

  ==> Geometry <==

    Molecular point group: c2v
    Full point group: C_inf_v

    Geometry (in Angstrom), charge = 0, multiplicity = 3:

       Center              X                  Y                   Z               Mass       
    ------------   -----------------  -----------------  -----------------  -----------------
         S            0.000000000000     0.000000000000    -0.493966693698    31.972071174400
         O            0.000000000000     0.000000000000     0.987384969807    15.994914619570

  Running in c2v symmetry.

  Rotational constants: A = ************  B =      0.72056  C =      0.72056 [cm^-1]
  Rotational constants: A = ************  B =  21601.83237  C =  21601.83237 [MHz]
  Nuclear repulsion =   45.724917745389128

  Charge       = 0
  Multiplicity = 3
  Electrons    = 24
  Nalpha       = 13
  Nbeta        = 11

  ==> Algorithm <==

  SCF Algorithm Type is DF.
  DIIS enabled.
  MOM disabled.
  Fractional occupation disabled.
  Guess Type is READ.
  Energy threshold   = 1.00e-08
  Density threshold  = 1.00e-08
  Integral threshold = 0.00e+00

  ==> Primary Basis <==

  Basis Set: AUG-CC-PV(T+D)Z
    Blend: AUG-CC-PV(T+D)Z
    Number of shells: 31
    Number of basis function: 101
    Number of Cartesian functions: 120
    Spherical Harmonics?: true
    Max angular momentum: 3

  ==> DFT Potential <==

   => Composite Functional: WB97M-V <= 

    wB97M-V Hyb-GGA Exchange-Correlation Functional

    N. Mardirossian and M. Head-Gordon, J. Chem. Phys. 144, 214110 (2016)

    Deriv               =              1
    GGA                 =           TRUE
    Meta                =           TRUE

    Exchange Hybrid     =           TRUE
    MP2 Hybrid          =          FALSE

   => Exchange-Correlation Functionals <=

    1.0000   wB97M-V exchange-correlation functional

   => Exact (HF) Exchange <=

    0.8500            HF,LR [omega = 0.3000]
    0.1500               HF 

   => VV10 Non-Local Parameters <=

    VV10 B              =     6.0000E+00
    VV10 C              =     1.0000E-02

   => Molecular Quadrature <=

    Radial Scheme          =       TREUTLER
    Pruning Scheme         =           FLAT
    Nuclear Scheme         =       TREUTLER

    BS radius alpha        =              1
    Pruning alpha          =              1
    Radial Points          =             75
    Spherical Points       =            302
    Total Points           =          45099
    Total Blocks           =            422
    Max Points             =            255
    Max Functions          =            101

   => Loading Basis Set <=

    Name: (AUG-CC-PV(T+D)Z AUX)
    Role: JKFIT
    Keyword: DF_BASIS_SCF
    atoms 1 entry S          line   730 file /work/zw18965/.conda/envs/p4env/share/psi4/basis/aug-cc-pvtz-jkfit.gbs 
    atoms 2 entry O          line   286 file /work/zw18965/.conda/envs/p4env/share/psi4/basis/aug-cc-pvtz-jkfit.gbs 

   => Loading Basis Set <=

    Name: AUG-CC-PV(T+D)Z
    Role: ORBITAL
    Keyword: BASIS
    atoms 1 entry S          line   928 file /work/zw18965/.conda/envs/p4env/share/psi4/basis/aug-cc-pv_tpd_z.gbs 
    atoms 2 entry O          line   347 file /work/zw18965/.conda/envs/p4env/share/psi4/basis/aug-cc-pv_tpd_z.gbs 

  Reading orbitals from file 180, no projection.

  ==> Pre-Iterations <==

   -------------------------------------------------------
    Irrep   Nso     Nmo     Nalpha   Nbeta   Ndocc  Nsocc
   -------------------------------------------------------
     A1        42      42       0       0       0       0
     A2        11      11       0       0       0       0
     B1        24      24       0       0       0       0
     B2        24      24       0       0       0       0
   -------------------------------------------------------
    Total     101     101      13      11      11       2
   -------------------------------------------------------

  ==> Integral Setup <==

  ==> DiskDFJK: Density-Fitted J/K Matrices <==

    J tasked:                  Yes
    K tasked:                  Yes
    wK tasked:                 Yes
    Omega:               3.000E-01
    OpenMP threads:             24
    Integrals threads:          24
    Memory [MiB]:           102684
    Algorithm:                Core
    Integral Cache:           NONE
    Schwarz Cutoff:          1E-12
    Fitting Condition:       1E-10

   => Auxiliary Basis Set <=

  Basis Set: (AUG-CC-PV(T+D)Z AUX)
    Blend: AUG-CC-PVTZ-JKFIT
    Number of shells: 72
    Number of basis function: 250
    Number of Cartesian functions: 311
    Spherical Harmonics?: true
    Max angular momentum: 4

  Cached 100.0% of DFT collocation blocks in 0.305 [GiB].

  Minimum eigenvalue in the overlap matrix is 4.8746655931E-04.
  Using Symmetric Orthogonalization.

  SCF Guess: Orbitals guess was supplied from a previous computation.

  ==> Iterations <==

                           Total Energy        Delta E     RMS |[F,P]|

   @DF-UKS iter   0:  -473.37943854177269   -4.73379e+02   3.39374e-04 
   @DF-UKS iter   1:  -473.37575679948361    3.68174e-03   4.40637e-05 DIIS
   @DF-UKS iter   2:  -473.37575912456714   -2.32508e-06   2.17574e-05 DIIS
   @DF-UKS iter   3:  -473.37575956211151   -4.37544e-07   3.77308e-06 DIIS
   @DF-UKS iter   4:  -473.37575959048820   -2.83767e-08   4.32846e-06 DIIS
   @DF-UKS iter   5:  -473.37575961583480   -2.53466e-08   8.09837e-07 DIIS
   @DF-UKS iter   6:  -473.37575962012573   -4.29094e-09   4.17476e-07 DIIS
   @DF-UKS iter   7:  -473.37575962104802   -9.22284e-10   1.30414e-07 DIIS
   @DF-UKS iter   8:  -473.37575962113834   -9.03242e-11   2.51877e-08 DIIS
   @DF-UKS iter   9:  -473.37575962114192   -3.58114e-12   4.41859e-09 DIIS
  Energy and wave function converged.


  ==> Post-Iterations <==

   @Spin Contamination Metric:   8.372805821E-03
   @S^2 Expected:                2.000000000E+00
   @S^2 Observed:                2.008372806E+00
   @S   Expected:                1.000000000E+00
   @S   Observed:                1.000000000E+00

    Orbital Energies [Eh]
    ---------------------

    Alpha Occupied:                                                       

       1A1   -89.302397     2A1   -19.413255     3A1    -8.210024  
       1B2    -6.120139     1B1    -6.120139     4A1    -6.117270  
       5A1    -1.222749     6A1    -0.804189     2B1    -0.569649  
       2B2    -0.569649     7A1    -0.564965     3B1    -0.357238  
       3B2    -0.357238  

    Alpha Virtual:                                                        

       8A1     0.034886     9A1     0.055273     4B1     0.065217  
       4B2     0.065217    10A1     0.117020    11A1     0.159911  
       5B2     0.164110     5B1     0.164110    12A1     0.205364  
       1A2     0.205364    13A1     0.290617     6B1     0.298858  
       6B2     0.298858    14A1     0.374395     7B1     0.442469  
       7B2     0.442469    15A1     0.481237    16A1     0.552229  
       2A2     0.552229     8B1     0.585150     8B2     0.585150  
      17A1     0.592563    18A1     0.630535     3A2     0.630536  
       9B1     0.746874     9B2     0.746874    10B2     0.785984  
      10B1     0.785984    19A1     0.790681    20A1     0.909263  
       4A2     0.909264    11B1     0.912494    11B2     0.912494  
      21A1     0.914066    22A1     0.994792    12B1     1.133960  
      12B2     1.133960    23A1     1.300141    24A1     1.632273  
       5A2     1.632289    25A1     1.690101    13B1     1.731684  
      13B2     1.731684    26A1     1.732129    27A1     1.840932  
       6A2     1.840933    14B2     1.911261    14B1     1.911261  
      15B2     1.933402    15B1     1.933402    16B1     2.067208  
      16B2     2.067208    28A1     2.153705     7A2     2.153710  
      17B2     2.201267    17B1     2.201267    29A1     2.219598  
      30A1     2.365950     8A2     2.365957    18B1     2.376107  
      18B2     2.376107    31A1     2.399890    32A1     2.675520  
      19B1     2.935179    19B2     2.935179    33A1     3.370150  
      20B2     4.005051    20B1     4.005051    34A1     4.440173  
      35A1     5.591778    21B2     6.101861    21B1     6.101861  
       9A2     6.222217    36A1     6.222252    22B2     6.316626  
      22B1     6.316626    37A1     6.326977    10A2     6.589713  
      38A1     6.589728    23B2     6.779017    23B1     6.779017  
      39A1     6.821677    11A2     6.821705    40A1     6.942956  
      24B2     7.151579    24B1     7.151579    41A1     8.269449  
      42A1    10.886588  

    Beta Occupied:                                                        

       1A1   -89.295076     2A1   -19.391919     3A1    -8.202715  
       4A1    -6.112846     1B2    -6.104307     1B1    -6.104307  
       5A1    -1.183671     6A1    -0.740542     7A1    -0.529994  
       2B1    -0.497830     2B2    -0.497830  

    Beta Virtual:                                                         

       3B1    -0.046052     3B2    -0.046052     8A1     0.038751  
       9A1     0.052322     4B2     0.066256     4B1     0.066256  
      10A1     0.130701    11A1     0.163889     5B2     0.168739  
       5B1     0.168739    12A1     0.214006     1A2     0.214007  
      13A1     0.297106     6B2     0.311284     6B1     0.311284  
      14A1     0.377565     7B1     0.450512     7B2     0.450512  
      15A1     0.495086    16A1     0.577741     2A2     0.577741  
      17A1     0.596806     8B2     0.611289     8B1     0.611289  
      18A1     0.650485     3A2     0.650486     9B1     0.754552  
       9B2     0.754552    10B2     0.804605    10B1     0.804605  
      19A1     0.806658    20A1     0.914257     4A2     0.914259  
      11B1     0.924292    11B2     0.924292    21A1     0.927380  
      22A1     1.006006    12B1     1.144408    12B2     1.144408  
      23A1     1.336250    24A1     1.691742     5A2     1.691748  
      25A1     1.703748    26A1     1.745589    13B2     1.781733  
      13B1     1.781733     6A2     1.866236    27A1     1.866240  
      14B2     1.937140    14B1     1.937140    15B2     1.937593  
      15B1     1.937593    16B1     2.133470    16B2     2.133470  
      28A1     2.180392     7A2     2.180408    29A1     2.238004  
      17B2     2.241858    17B1     2.241858     8A2     2.400179  
      30A1     2.400184    18B1     2.400802    18B2     2.400802  
      31A1     2.433711    32A1     2.698460    19B1     2.962108  
      19B2     2.962108    33A1     3.384248    20B1     4.070381  
      20B2     4.070381    34A1     4.465269    35A1     5.613311  
      21B2     6.161180    21B1     6.161180     9A2     6.259694  
      36A1     6.259705    22B1     6.344226    22B2     6.344226  
      37A1     6.353127    10A2     6.678556    38A1     6.678569  
      23B2     6.822371    23B1     6.822371    39A1     6.839651  
      11A2     6.839666    40A1     6.973973    24B2     7.173693  
      24B1     7.173693    41A1     8.284835    42A1    10.932913  

    Final Occupation by Irrep:
             A1    A2    B1    B2 
    DOCC [     7,    0,    2,    2 ]
    SOCC [     0,    0,    1,    1 ]

  @DF-UKS Final Energy:  -473.37575962114192

   => Energetics <=

    Nuclear Repulsion Energy =             45.7249177453891278
    One-Electron Energy =                -743.5086353664540866
    Two-Electron Energy =                 250.3389588117410938
    DFT Exchange-Correlation Energy =     -26.0317912025571943
    Empirical Dispersion Energy =           0.0000000000000000
    VV10 Nonlocal Energy =                  0.1007903907391156
    Total Energy =                       -473.3757596211419241

  UHF NO Occupations:
  HONO-2 :    2 B2 1.9982276
  HONO-1 :    3 B2 1.0000000
  HONO-0 :    3 B1 1.0000000
  LUNO+0 :    4 B2 0.0017724
  LUNO+1 :    4 B1 0.0017724
  LUNO+2 :    8 A1 0.0003452
  LUNO+3 :    9 A1 0.0002314


Computation Completed


Properties will be evaluated at   0.000000,   0.000000,   0.000000 [a0]

Properties computed using the SCF density matrix

  Nuclear Dipole Moment: [e a0]
     X:     0.0000      Y:     0.0000      Z:    -0.0083

  Electronic Dipole Moment: [e a0]
     X:     0.0000      Y:     0.0000      Z:    -0.6062

  Dipole Moment: [e a0]
     X:     0.0000      Y:     0.0000      Z:    -0.6145     Total:     0.6145

  Dipole Moment: [D]
     X:     0.0000      Y:     0.0000      Z:    -1.5619     Total:     1.5619


*** tstop() called on bp1-compute00092.data.bp.acrc.priv at Tue Apr 27 17:35:34 2021
Module time:
	user time   =     142.30 seconds =       2.37 minutes
	system time =       5.86 seconds =       0.10 minutes
	total time  =          7 seconds =       0.12 minutes
Total time:
	user time   =     715.92 seconds =      11.93 minutes
	system time =      32.03 seconds =       0.53 minutes
	total time  =         32 seconds =       0.53 minutes

  //>>>>>>>>>>>>>>>>>>>>>>>>>>>>>>>>>>>//
  //    Loading displacement 2 of 3    //
  //<<<<<<<<<<<<<<<<<<<<<<<<<<<<<<<<<<<//

*** tstart() called on bp1-compute00092.data.bp.acrc.priv
*** at Tue Apr 27 17:35:34 2021

   => Loading Basis Set <=

    Name: AUG-CC-PV(T+D)Z
    Role: ORBITAL
    Keyword: BASIS
    atoms 1 entry S          line   928 file /work/zw18965/.conda/envs/p4env/share/psi4/basis/aug-cc-pv_tpd_z.gbs 
    atoms 2 entry O          line   347 file /work/zw18965/.conda/envs/p4env/share/psi4/basis/aug-cc-pv_tpd_z.gbs 


         ---------------------------------------------------------
                                   SCF
               by Justin Turney, Rob Parrish, Andy Simmonett
                          and Daniel G. A. Smith
                              UKS Reference
                       24 Threads, 137329 MiB Core
         ---------------------------------------------------------

  ==> Geometry <==

    Molecular point group: c2v
    Full point group: C_inf_v

    Geometry (in Angstrom), charge = 0, multiplicity = 3:

       Center              X                  Y                   Z               Mass       
    ------------   -----------------  -----------------  -----------------  -----------------
         S            0.000000000000     0.000000000000    -0.494236906239    31.972071174400
         O            0.000000000000     0.000000000000     0.987925094889    15.994914619570

  Running in c2v symmetry.

  Rotational constants: A = ************  B =      0.71977  C =      0.71977 [cm^-1]
  Rotational constants: A = ************  B =  21578.21823  C =  21578.21823 [MHz]
  Nuclear repulsion =   45.699918709455183

  Charge       = 0
  Multiplicity = 3
  Electrons    = 24
  Nalpha       = 13
  Nbeta        = 11

  ==> Algorithm <==

  SCF Algorithm Type is DF.
  DIIS enabled.
  MOM disabled.
  Fractional occupation disabled.
  Guess Type is READ.
  Energy threshold   = 1.00e-08
  Density threshold  = 1.00e-08
  Integral threshold = 0.00e+00

  ==> Primary Basis <==

  Basis Set: AUG-CC-PV(T+D)Z
    Blend: AUG-CC-PV(T+D)Z
    Number of shells: 31
    Number of basis function: 101
    Number of Cartesian functions: 120
    Spherical Harmonics?: true
    Max angular momentum: 3

  ==> DFT Potential <==

   => Composite Functional: WB97M-V <= 

    wB97M-V Hyb-GGA Exchange-Correlation Functional

    N. Mardirossian and M. Head-Gordon, J. Chem. Phys. 144, 214110 (2016)

    Deriv               =              1
    GGA                 =           TRUE
    Meta                =           TRUE

    Exchange Hybrid     =           TRUE
    MP2 Hybrid          =          FALSE

   => Exchange-Correlation Functionals <=

    1.0000   wB97M-V exchange-correlation functional

   => Exact (HF) Exchange <=

    0.8500            HF,LR [omega = 0.3000]
    0.1500               HF 

   => VV10 Non-Local Parameters <=

    VV10 B              =     6.0000E+00
    VV10 C              =     1.0000E-02

   => Molecular Quadrature <=

    Radial Scheme          =       TREUTLER
    Pruning Scheme         =           FLAT
    Nuclear Scheme         =       TREUTLER

    BS radius alpha        =              1
    Pruning alpha          =              1
    Radial Points          =             75
    Spherical Points       =            302
    Total Points           =          45099
    Total Blocks           =            422
    Max Points             =            255
    Max Functions          =            101

   => Loading Basis Set <=

    Name: (AUG-CC-PV(T+D)Z AUX)
    Role: JKFIT
    Keyword: DF_BASIS_SCF
    atoms 1 entry S          line   730 file /work/zw18965/.conda/envs/p4env/share/psi4/basis/aug-cc-pvtz-jkfit.gbs 
    atoms 2 entry O          line   286 file /work/zw18965/.conda/envs/p4env/share/psi4/basis/aug-cc-pvtz-jkfit.gbs 

   => Loading Basis Set <=

    Name: AUG-CC-PV(T+D)Z
    Role: ORBITAL
    Keyword: BASIS
    atoms 1 entry S          line   928 file /work/zw18965/.conda/envs/p4env/share/psi4/basis/aug-cc-pv_tpd_z.gbs 
    atoms 2 entry O          line   347 file /work/zw18965/.conda/envs/p4env/share/psi4/basis/aug-cc-pv_tpd_z.gbs 

  Reading orbitals from file 180, no projection.

  ==> Pre-Iterations <==

   -------------------------------------------------------
    Irrep   Nso     Nmo     Nalpha   Nbeta   Ndocc  Nsocc
   -------------------------------------------------------
     A1        42      42       0       0       0       0
     A2        11      11       0       0       0       0
     B1        24      24       0       0       0       0
     B2        24      24       0       0       0       0
   -------------------------------------------------------
    Total     101     101      13      11      11       2
   -------------------------------------------------------

  ==> Integral Setup <==

  ==> DiskDFJK: Density-Fitted J/K Matrices <==

    J tasked:                  Yes
    K tasked:                  Yes
    wK tasked:                 Yes
    Omega:               3.000E-01
    OpenMP threads:             24
    Integrals threads:          24
    Memory [MiB]:           102684
    Algorithm:                Core
    Integral Cache:           NONE
    Schwarz Cutoff:          1E-12
    Fitting Condition:       1E-10

   => Auxiliary Basis Set <=

  Basis Set: (AUG-CC-PV(T+D)Z AUX)
    Blend: AUG-CC-PVTZ-JKFIT
    Number of shells: 72
    Number of basis function: 250
    Number of Cartesian functions: 311
    Spherical Harmonics?: true
    Max angular momentum: 4

  Cached 100.0% of DFT collocation blocks in 0.305 [GiB].

  Minimum eigenvalue in the overlap matrix is 4.8813087608E-04.
  Using Symmetric Orthogonalization.

  SCF Guess: Orbitals guess was supplied from a previous computation.

  ==> Iterations <==

                           Total Energy        Delta E     RMS |[F,P]|

   @DF-UKS iter   0:  -473.37514424079529   -4.73375e+02   5.67997e-05 
   @DF-UKS iter   1:  -473.37575550567431   -6.11265e-04   7.36275e-06 DIIS
   @DF-UKS iter   2:  -473.37575557061240   -6.49381e-08   3.64827e-06 DIIS
   @DF-UKS iter   3:  -473.37575558287034   -1.22579e-08   6.60248e-07 DIIS
   @DF-UKS iter   4:  -473.37575558366012   -7.89782e-10   7.49548e-07 DIIS
   @DF-UKS iter   5:  -473.37575558441893   -7.58803e-10   1.33480e-07 DIIS
   @DF-UKS iter   6:  -473.37575558453972   -1.20792e-10   6.95448e-08 DIIS
   @DF-UKS iter   7:  -473.37575558456535   -2.56364e-11   2.19016e-08 DIIS
   @DF-UKS iter   8:  -473.37575558456774   -2.38742e-12   4.23099e-09 DIIS
  Energy and wave function converged.


  ==> Post-Iterations <==

   @Spin Contamination Metric:   8.387521969E-03
   @S^2 Expected:                2.000000000E+00
   @S^2 Observed:                2.008387522E+00
   @S   Expected:                1.000000000E+00
   @S   Observed:                1.000000000E+00

    Orbital Energies [Eh]
    ---------------------

    Alpha Occupied:                                                       

       1A1   -89.302475     2A1   -19.413348     3A1    -8.210078  
       1B1    -6.120195     1B2    -6.120195     4A1    -6.117327  
       5A1    -1.222404     6A1    -0.804311     2B2    -0.569472  
       2B1    -0.569472     7A1    -0.564888     3B2    -0.357371  
       3B1    -0.357371  

    Alpha Virtual:                                                        

       8A1     0.034838     9A1     0.055274     4B1     0.065220  
       4B2     0.065220    10A1     0.116933    11A1     0.159852  
       5B1     0.164123     5B2     0.164123    12A1     0.205367  
       1A2     0.205367    13A1     0.290593     6B1     0.298764  
       6B2     0.298764    14A1     0.374262     7B2     0.442529  
       7B1     0.442529    15A1     0.481227    16A1     0.552252  
       2A2     0.552252     8B1     0.585081     8B2     0.585081  
      17A1     0.592559    18A1     0.630470     3A2     0.630470  
       9B2     0.746876     9B1     0.746876    10B1     0.785917  
      10B2     0.785917    19A1     0.790338    20A1     0.909173  
       4A2     0.909175    11B1     0.912317    11B2     0.912317  
      21A1     0.914179    22A1     0.994207    12B1     1.134101  
      12B2     1.134101    23A1     1.299837    24A1     1.632238  
       5A2     1.632254    25A1     1.690251    13B1     1.731779  
      13B2     1.731779    26A1     1.732098    27A1     1.841063  
       6A2     1.841065    14B1     1.911037    14B2     1.911037  
      15B2     1.933402    15B1     1.933402    16B1     2.067188  
      16B2     2.067188    28A1     2.153493     7A2     2.153498  
      17B1     2.200671    17B2     2.200671    29A1     2.219137  
      30A1     2.365468     8A2     2.365475    18B1     2.375804  
      18B2     2.375804    31A1     2.399207    32A1     2.676521  
      19B1     2.934871    19B2     2.934871    33A1     3.368159  
      20B1     4.004640    20B2     4.004640    34A1     4.439401  
      35A1     5.589692    21B1     6.101863    21B2     6.101863  
       9A2     6.222152    36A1     6.222187    22B1     6.316998  
      22B2     6.316998    37A1     6.326374    10A2     6.589644  
      38A1     6.589658    23B1     6.778412    23B2     6.778412  
      39A1     6.821604    11A2     6.821632    40A1     6.941710  
      24B1     7.150569    24B2     7.150569    41A1     8.267071  
      42A1    10.885926  

    Beta Occupied:                                                        

       1A1   -89.295153     2A1   -19.391999     3A1    -8.202770  
       4A1    -6.112903     1B1    -6.104362     1B2    -6.104362  
       5A1    -1.183284     6A1    -0.740668     7A1    -0.529924  
       2B2    -0.497599     2B1    -0.497599  

    Beta Virtual:                                                         

       3B1    -0.046171     3B2    -0.046171     8A1     0.038718  
       9A1     0.052334     4B1     0.066255     4B2     0.066255  
      10A1     0.130643    11A1     0.163807     5B1     0.168763  
       5B2     0.168763    12A1     0.214012     1A2     0.214012  
      13A1     0.297083     6B1     0.311196     6B2     0.311196  
      14A1     0.377443     7B2     0.450587     7B1     0.450587  
      15A1     0.495049    16A1     0.577771     2A2     0.577771  
      17A1     0.596806     8B1     0.611205     8B2     0.611205  
      18A1     0.650401     3A2     0.650402     9B2     0.754550  
       9B1     0.754550    10B1     0.804533    10B2     0.804533  
      19A1     0.806346    20A1     0.914163     4A2     0.914165  
      11B1     0.924112    11B2     0.924112    21A1     0.927491  
      22A1     1.005375    12B1     1.144555    12B2     1.144555  
      23A1     1.335939    24A1     1.691691     5A2     1.691698  
      25A1     1.703848    26A1     1.745593    13B1     1.781793  
      13B2     1.781793     6A2     1.866365    27A1     1.866369  
      14B1     1.936912    14B2     1.936912    15B2     1.937602  
      15B1     1.937602    16B1     2.133434    16B2     2.133434  
      28A1     2.180201     7A2     2.180216    29A1     2.237557  
      17B1     2.241265    17B2     2.241265     8A2     2.399674  
      30A1     2.399679    18B1     2.400491    18B2     2.400491  
      31A1     2.433008    32A1     2.699478    19B1     2.961788  
      19B2     2.961788    33A1     3.382221    20B1     4.070018  
      20B2     4.070018    34A1     4.464512    35A1     5.611246  
      21B1     6.161229    21B2     6.161229     9A2     6.259661  
      36A1     6.259672    22B1     6.344617    22B2     6.344617  
      37A1     6.352535    10A2     6.678547    38A1     6.678560  
      23B1     6.821778    23B2     6.821778    39A1     6.839571  
      11A2     6.839587    40A1     6.972739    24B1     7.172683  
      24B2     7.172683    41A1     8.282449    42A1    10.932272  

    Final Occupation by Irrep:
             A1    A2    B1    B2 
    DOCC [     7,    0,    2,    2 ]
    SOCC [     0,    0,    1,    1 ]

  @DF-UKS Final Energy:  -473.37575558456774

   => Energetics <=

    Nuclear Repulsion Energy =             45.6999187094551829
    One-Electron Energy =                -743.4593167897235162
    Two-Electron Energy =                 250.3141681518311827
    DFT Exchange-Correlation Energy =     -26.0313168364884397
    Empirical Dispersion Energy =           0.0000000000000000
    VV10 Nonlocal Energy =                  0.1007911803578671
    Total Energy =                       -473.3757555845676848

  UHF NO Occupations:
  HONO-2 :    2 B1 1.9982241
  HONO-1 :    3 B1 1.0000000
  HONO-0 :    3 B2 1.0000000
  LUNO+0 :    4 B1 0.0017759
  LUNO+1 :    4 B2 0.0017759
  LUNO+2 :    8 A1 0.0003453
  LUNO+3 :    9 A1 0.0002314


Computation Completed


Properties will be evaluated at   0.000000,   0.000000,   0.000000 [a0]

Properties computed using the SCF density matrix

  Nuclear Dipole Moment: [e a0]
     X:     0.0000      Y:     0.0000      Z:    -0.0083

  Electronic Dipole Moment: [e a0]
     X:     0.0000      Y:     0.0000      Z:    -0.6070

  Dipole Moment: [e a0]
     X:     0.0000      Y:     0.0000      Z:    -0.6153     Total:     0.6153

  Dipole Moment: [D]
     X:     0.0000      Y:     0.0000      Z:    -1.5640     Total:     1.5640


*** tstop() called on bp1-compute00092.data.bp.acrc.priv at Tue Apr 27 17:35:39 2021
Module time:
	user time   =     135.18 seconds =       2.25 minutes
	system time =       5.56 seconds =       0.09 minutes
	total time  =          5 seconds =       0.08 minutes
Total time:
	user time   =     851.25 seconds =      14.19 minutes
	system time =      37.59 seconds =       0.63 minutes
	total time  =         37 seconds =       0.62 minutes

  //>>>>>>>>>>>>>>>>>>>>>>>>>>>>>>>>>>>//
  //    Loading displacement 3 of 3    //
  //<<<<<<<<<<<<<<<<<<<<<<<<<<<<<<<<<<<//

*** tstart() called on bp1-compute00092.data.bp.acrc.priv
*** at Tue Apr 27 17:35:39 2021

   => Loading Basis Set <=

    Name: AUG-CC-PV(T+D)Z
    Role: ORBITAL
    Keyword: BASIS
    atoms 1 entry S          line   928 file /work/zw18965/.conda/envs/p4env/share/psi4/basis/aug-cc-pv_tpd_z.gbs 
    atoms 2 entry O          line   347 file /work/zw18965/.conda/envs/p4env/share/psi4/basis/aug-cc-pv_tpd_z.gbs 


         ---------------------------------------------------------
                                   SCF
               by Justin Turney, Rob Parrish, Andy Simmonett
                          and Daniel G. A. Smith
                              UKS Reference
                       24 Threads, 137329 MiB Core
         ---------------------------------------------------------

  ==> Geometry <==

    Molecular point group: c2v
    Full point group: C_inf_v

    Geometry (in Angstrom), charge = 0, multiplicity = 3:

       Center              X                  Y                   Z               Mass       
    ------------   -----------------  -----------------  -----------------  -----------------
         S            0.000000000000     0.000000000000    -0.493696481158    31.972071174400
         O            0.000000000000     0.000000000000     0.986844844725    15.994914619570

  Running in c2v symmetry.

  Rotational constants: A = ************  B =      0.72135  C =      0.72135 [cm^-1]
  Rotational constants: A = ************  B =  21625.48530  C =  21625.48530 [MHz]
  Nuclear repulsion =   45.749944146529280

  Charge       = 0
  Multiplicity = 3
  Electrons    = 24
  Nalpha       = 13
  Nbeta        = 11

  ==> Algorithm <==

  SCF Algorithm Type is DF.
  DIIS enabled.
  MOM disabled.
  Fractional occupation disabled.
  Guess Type is READ.
  Energy threshold   = 1.00e-08
  Density threshold  = 1.00e-08
  Integral threshold = 0.00e+00

  ==> Primary Basis <==

  Basis Set: AUG-CC-PV(T+D)Z
    Blend: AUG-CC-PV(T+D)Z
    Number of shells: 31
    Number of basis function: 101
    Number of Cartesian functions: 120
    Spherical Harmonics?: true
    Max angular momentum: 3

  ==> DFT Potential <==

   => Composite Functional: WB97M-V <= 

    wB97M-V Hyb-GGA Exchange-Correlation Functional

    N. Mardirossian and M. Head-Gordon, J. Chem. Phys. 144, 214110 (2016)

    Deriv               =              1
    GGA                 =           TRUE
    Meta                =           TRUE

    Exchange Hybrid     =           TRUE
    MP2 Hybrid          =          FALSE

   => Exchange-Correlation Functionals <=

    1.0000   wB97M-V exchange-correlation functional

   => Exact (HF) Exchange <=

    0.8500            HF,LR [omega = 0.3000]
    0.1500               HF 

   => VV10 Non-Local Parameters <=

    VV10 B              =     6.0000E+00
    VV10 C              =     1.0000E-02

   => Molecular Quadrature <=

    Radial Scheme          =       TREUTLER
    Pruning Scheme         =           FLAT
    Nuclear Scheme         =       TREUTLER

    BS radius alpha        =              1
    Pruning alpha          =              1
    Radial Points          =             75
    Spherical Points       =            302
    Total Points           =          45099
    Total Blocks           =            421
    Max Points             =            255
    Max Functions          =            101

   => Loading Basis Set <=

    Name: (AUG-CC-PV(T+D)Z AUX)
    Role: JKFIT
    Keyword: DF_BASIS_SCF
    atoms 1 entry S          line   730 file /work/zw18965/.conda/envs/p4env/share/psi4/basis/aug-cc-pvtz-jkfit.gbs 
    atoms 2 entry O          line   286 file /work/zw18965/.conda/envs/p4env/share/psi4/basis/aug-cc-pvtz-jkfit.gbs 

   => Loading Basis Set <=

    Name: AUG-CC-PV(T+D)Z
    Role: ORBITAL
    Keyword: BASIS
    atoms 1 entry S          line   928 file /work/zw18965/.conda/envs/p4env/share/psi4/basis/aug-cc-pv_tpd_z.gbs 
    atoms 2 entry O          line   347 file /work/zw18965/.conda/envs/p4env/share/psi4/basis/aug-cc-pv_tpd_z.gbs 

  Reading orbitals from file 180, no projection.

  ==> Pre-Iterations <==

   -------------------------------------------------------
    Irrep   Nso     Nmo     Nalpha   Nbeta   Ndocc  Nsocc
   -------------------------------------------------------
     A1        42      42       0       0       0       0
     A2        11      11       0       0       0       0
     B1        24      24       0       0       0       0
     B2        24      24       0       0       0       0
   -------------------------------------------------------
[...]
         ---------------------------------------------------------

  ==> Geometry <==

    Molecular point group: c2v
    Full point group: C_inf_v

    Geometry (in Angstrom), charge = 0, multiplicity = 3:

       Center              X                  Y                   Z               Mass       
    ------------   -----------------  -----------------  -----------------  -----------------
         S            0.000000000000     0.000000000000    -0.493026242498    31.972071174400
         O            0.000000000000     0.000000000000     0.985505111525    15.994914619570

  Running in c2v symmetry.

  Rotational constants: A = ************  B =      0.72331  C =      0.72331 [cm^-1]
  Rotational constants: A = ************  B =  21684.32228  C =  21684.32228 [MHz]
  Nuclear repulsion =   45.812138363837477

  Charge       = 0
  Multiplicity = 3
  Electrons    = 24
  Nalpha       = 13
  Nbeta        = 11

  ==> Algorithm <==

  SCF Algorithm Type is DF.
  DIIS enabled.
  MOM disabled.
  Fractional occupation disabled.
  Guess Type is SAD.
  Energy threshold   = 1.00e-10
  Density threshold  = 1.00e-10
  Integral threshold = 0.00e+00

  ==> Primary Basis <==

  Basis Set: AUG-CC-PV(T+D)Z
    Blend: AUG-CC-PV(T+D)Z
    Number of shells: 31
    Number of basis function: 101
    Number of Cartesian functions: 120
    Spherical Harmonics?: true
    Max angular momentum: 3

  ==> DFT Potential <==

   => Composite Functional: WB97M-V <= 

    wB97M-V Hyb-GGA Exchange-Correlation Functional

    N. Mardirossian and M. Head-Gordon, J. Chem. Phys. 144, 214110 (2016)

    Deriv               =              1
    GGA                 =           TRUE
    Meta                =           TRUE

    Exchange Hybrid     =           TRUE
    MP2 Hybrid          =          FALSE

   => Exchange-Correlation Functionals <=

    1.0000   wB97M-V exchange-correlation functional

   => Exact (HF) Exchange <=

    0.8500            HF,LR [omega = 0.3000]
    0.1500               HF 

   => VV10 Non-Local Parameters <=

    VV10 B              =     6.0000E+00
    VV10 C              =     1.0000E-02

   => Molecular Quadrature <=

    Radial Scheme          =       TREUTLER
    Pruning Scheme         =           FLAT
    Nuclear Scheme         =       TREUTLER

    BS radius alpha        =              1
    Pruning alpha          =              1
    Radial Points          =             75
    Spherical Points       =            302
    Total Points           =          45099
    Total Blocks           =            421
    Max Points             =            255
    Max Functions          =            101

   => Loading Basis Set <=

    Name: (AUG-CC-PV(T+D)Z AUX)
    Role: JKFIT
    Keyword: DF_BASIS_SCF
    atoms 1 entry S          line   730 file /work/zw18965/.conda/envs/p4env/share/psi4/basis/aug-cc-pvtz-jkfit.gbs 
    atoms 2 entry O          line   286 file /work/zw18965/.conda/envs/p4env/share/psi4/basis/aug-cc-pvtz-jkfit.gbs 

  ==> Pre-Iterations <==

   -------------------------------------------------------
    Irrep   Nso     Nmo     Nalpha   Nbeta   Ndocc  Nsocc
   -------------------------------------------------------
     A1        42      42       0       0       0       0
     A2        11      11       0       0       0       0
     B1        24      24       0       0       0       0
     B2        24      24       0       0       0       0
   -------------------------------------------------------
    Total     101     101      13      11      11       2
   -------------------------------------------------------

  ==> Integral Setup <==

  ==> DiskDFJK: Density-Fitted J/K Matrices <==

    J tasked:                  Yes
    K tasked:                  Yes
    wK tasked:                 Yes
    Omega:               3.000E-01
    OpenMP threads:             24
    Integrals threads:          24
    Memory [MiB]:           102684
    Algorithm:                Core
    Integral Cache:           NONE
    Schwarz Cutoff:          1E-12
    Fitting Condition:       1E-10

   => Auxiliary Basis Set <=

  Basis Set: (AUG-CC-PV(T+D)Z AUX)
    Blend: AUG-CC-PVTZ-JKFIT
    Number of shells: 72
    Number of basis function: 250
    Number of Cartesian functions: 311
    Spherical Harmonics?: true
    Max angular momentum: 4

  Cached 100.0% of DFT collocation blocks in 0.305 [GiB].

  Minimum eigenvalue in the overlap matrix is 4.8516403531E-04.
  Using Symmetric Orthogonalization.

  SCF Guess: Superposition of Atomic Densities via on-the-fly atomic UHF.

  ==> Iterations <==

                           Total Energy        Delta E     RMS |[F,P]|

   @DF-UKS iter SAD:  -472.94347654398973   -4.72943e+02   0.00000e+00 
   @DF-UKS iter   1:  -473.28853733443634   -3.45061e-01   8.68931e-03 DIIS
   @DF-UKS iter   2:  -473.18036964554227    1.08168e-01   1.32422e-02 DIIS
   @DF-UKS iter   3:  -473.37442568571998   -1.94056e-01   9.49864e-04 DIIS
   @DF-UKS iter   4:  -473.37554667493578   -1.12099e-03   2.59486e-04 DIIS
   @DF-UKS iter   5:  -473.37573083370324   -1.84159e-04   7.90314e-05 DIIS
   @DF-UKS iter   6:  -473.37575738731846   -2.65536e-05   2.81444e-05 DIIS
   @DF-UKS iter   7:  -473.37576245186585   -5.06455e-06   1.02852e-05 DIIS
   @DF-UKS iter   8:  -473.37576290398840   -4.52123e-07   3.43597e-06 DIIS
   @DF-UKS iter   9:  -473.37576294269013   -3.87017e-08   6.50879e-07 DIIS
   @DF-UKS iter  10:  -473.37576294417750   -1.48736e-09   1.26629e-07 DIIS
   @DF-UKS iter  11:  -473.37576294423639   -5.88898e-11   3.58595e-08 DIIS
   @DF-UKS iter  12:  -473.37576294424025   -3.86535e-12   6.26222e-09 DIIS
   @DF-UKS iter  13:  -473.37576294424059   -3.41061e-13   1.69183e-09 DIIS
   @DF-UKS iter  14:  -473.37576294424036    2.27374e-13   3.41432e-10 DIIS
   @DF-UKS iter  15:  -473.37576294424065   -2.84217e-13   6.19374e-11 DIIS
  Energy and wave function converged.


  ==> Post-Iterations <==

   @Spin Contamination Metric:   8.321602707E-03
   @S^2 Expected:                2.000000000E+00
   @S^2 Observed:                2.008321603E+00
   @S   Expected:                1.000000000E+00
   @S   Observed:                1.000000000E+00

    Orbital Energies [Eh]
    ---------------------

    Alpha Occupied:                                                       

       1A1   -89.302125     2A1   -19.412932     3A1    -8.209835  
       1B1    -6.119946     1B2    -6.119946     4A1    -6.117074  
       5A1    -1.223956     6A1    -0.803764     2B2    -0.570269  
       2B1    -0.570269     7A1    -0.565231     3B2    -0.356778  
       3B1    -0.356778  

    Alpha Virtual:                                                        

       8A1     0.035054     9A1     0.055270     4B1     0.065209  
       4B2     0.065209    10A1     0.117319    11A1     0.160117  
       5B2     0.164068     5B1     0.164068    12A1     0.205354  
       1A2     0.205355    13A1     0.290702     6B1     0.299184  
       6B2     0.299184    14A1     0.374858     7B1     0.442260  
       7B2     0.442260    15A1     0.481274    16A1     0.552147  
       2A2     0.552147     8B1     0.585393     8B2     0.585393  
      17A1     0.592580    18A1     0.630764     3A2     0.630765  
       9B2     0.746864     9B1     0.746864    10B2     0.786219  
      10B1     0.786219    19A1     0.791871    20A1     0.909574  
       4A2     0.909576    11B1     0.913110    11B2     0.913110  
      21A1     0.913670    22A1     0.996847    12B1     1.133461  
      12B2     1.133461    23A1     1.301199    24A1     1.632395  
       5A2     1.632411    25A1     1.689571    13B1     1.731352  
      13B2     1.731352    26A1     1.732248    27A1     1.840476  
       6A2     1.840477    14B2     1.912042    14B1     1.912042  
      15B1     1.933399    15B2     1.933399    16B1     2.067281  
      16B2     2.067281    28A1     2.154441     7A2     2.154446  
      17B1     2.203350    17B2     2.203350    29A1     2.221200  
      30A1     2.367630     8A2     2.367637    18B1     2.377164  
      18B2     2.377164    31A1     2.402282    32A1     2.672039  
      19B1     2.936240    19B2     2.936240    33A1     3.377077  
      20B2     4.006495    20B1     4.006495    34A1     4.442881  
      35A1     5.599046    21B1     6.101853    21B2     6.101853  
       9A2     6.222441    36A1     6.222475    22B2     6.315341  
      22B1     6.315341    37A1     6.329110    10A2     6.589956  
      38A1     6.589969    23B2     6.781127    23B1     6.781127  
      39A1     6.821934    11A2     6.821961    40A1     6.947307  
      24B1     7.155099    24B2     7.155099    41A1     8.277693  
      42A1    10.889003  

    Beta Occupied:                                                        

       1A1   -89.294806     2A1   -19.391642     3A1    -8.202527  
       4A1    -6.112647     1B1    -6.104117     1B2    -6.104117  
       5A1    -1.185022     6A1    -0.740100     7A1    -0.530237  
       2B1    -0.498635     2B2    -0.498635  

    Beta Virtual:                                                         

       3B1    -0.045636     3B2    -0.045636     8A1     0.038862  
       9A1     0.052280     4B1     0.066258     4B2     0.066258  
      10A1     0.130899    11A1     0.164175     5B1     0.168658  
       5B2     0.168658    12A1     0.213988     1A2     0.213988  
      13A1     0.297186     6B1     0.311591     6B2     0.311591  
      14A1     0.377990     7B1     0.450250     7B2     0.450250  
      15A1     0.495216    16A1     0.577636     2A2     0.577636  
      17A1     0.596810     8B1     0.611582     8B2     0.611582  
      18A1     0.650776     3A2     0.650777     9B2     0.754558  
       9B1     0.754558    10B1     0.804856    10B2     0.804856  
      19A1     0.807741    20A1     0.914586     4A2     0.914588  
      11B1     0.924917    11B2     0.924917    21A1     0.926995  
      22A1     1.008222    12B1     1.143889    12B2     1.143889  
      23A1     1.337327    24A1     1.691916     5A2     1.691922  
      25A1     1.703392    26A1     1.745585    13B1     1.781522  
      13B2     1.781522     6A2     1.865790    27A1     1.865794  
      14B1     1.937559    14B2     1.937559    15B2     1.937935  
      15B1     1.937935    16B1     2.133598    16B2     2.133598  
      28A1     2.181060     7A2     2.181076    29A1     2.239560  
      17B2     2.243931    17B1     2.243931    18B1     2.401886  
      18B2     2.401886     8A2     2.401937    30A1     2.401941  
      31A1     2.436174    32A1     2.694922    19B1     2.963208  
      19B2     2.963208    33A1     3.391296    20B1     4.071661  
      20B2     4.071661    34A1     4.467925    35A1     5.620507  
      21B1     6.161011    21B2     6.161011     9A2     6.259806  
      36A1     6.259816    22B1     6.342871    22B2     6.342871  
      37A1     6.355221    10A2     6.678584    38A1     6.678597  
      23B1     6.824443    23B2     6.824443    39A1     6.839931  
      11A2     6.839946    40A1     6.978281    24B1     7.177215  
      24B2     7.177215    41A1     8.293108    42A1    10.935254  

    Final Occupation by Irrep:
             A1    A2    B1    B2 
    DOCC [     7,    0,    2,    2 ]
    SOCC [     0,    0,    1,    1 ]

  @DF-UKS Final Energy:  -473.37576294424065

   => Energetics <=

    Nuclear Repulsion Energy =             45.8121383638374766
    One-Electron Energy =                -743.6806794369531417
    Two-Electron Energy =                 250.4254393569001707
    DFT Exchange-Correlation Energy =     -26.0334488759437761
    Empirical Dispersion Energy =           0.0000000000000000
    VV10 Nonlocal Energy =                  0.1007876479186305
    Total Energy =                       -473.3757629442407051

  UHF NO Occupations:
  HONO-2 :    2 B2 1.9982399
  HONO-1 :    3 B1 1.0000000
  HONO-0 :    3 B2 1.0000000
  LUNO+0 :    4 B2 0.0017601
  LUNO+1 :    4 B1 0.0017601
  LUNO+2 :    8 A1 0.0003448
  LUNO+3 :    9 A1 0.0002314


Computation Completed


Properties will be evaluated at   0.000000,   0.000000,   0.000000 [a0]

Properties computed using the SCF density matrix

  Nuclear Dipole Moment: [e a0]
     X:     0.0000      Y:     0.0000      Z:    -0.0083

  Electronic Dipole Moment: [e a0]
     X:     0.0000      Y:     0.0000      Z:    -0.6035

  Dipole Moment: [e a0]
     X:     0.0000      Y:     0.0000      Z:    -0.6117     Total:     0.6117

  Dipole Moment: [D]
     X:     0.0000      Y:     0.0000      Z:    -1.5549     Total:     1.5549


*** tstop() called on bp1-compute00092.data.bp.acrc.priv at Tue Apr 27 17:36:55 2021
Module time:
	user time   =     219.19 seconds =       3.65 minutes
	system time =       8.46 seconds =       0.14 minutes
	total time  =          9 seconds =       0.15 minutes
Total time:
	user time   =    2602.93 seconds =      43.38 minutes
	system time =     105.38 seconds =       1.76 minutes
	total time  =        113 seconds =       1.88 minutes

         ----------------------------------------------------------
                                   FINDIF
                     R. A. King and Jonathon Misiewicz
         ---------------------------------------------------------

  Computing second-derivative from energies using projected, 
  symmetry-adapted, cartesian coordinates.

  3 energies passed in, including the reference geometry.
    Using 3-point formula.
    Energy without displacement: -473.3757637049
    Check energies below for precision!
    0: -1 :      -473.3757630794
    0: 1  :      -473.3757629442

-------------------------------------------------------------


  ==> Harmonic Vibrational Analysis <==

  non-mass-weighted Hessian:       Symmetric? True   Hermitian? True   Lin Dep Dim?  5 (0)
  projection of translations (True) and rotations (True) removed 5 degrees of freedom (5)
  total projector:                 Symmetric? True   Hermitian? True   Lin Dep Dim?  5 (5)
  mass-weighted Hessian:           Symmetric? True   Hermitian? True   Lin Dep Dim?  5 (0)
  pre-proj  low-frequency mode:    0.0000  [cm^-1]
  pre-proj  low-frequency mode:    0.0000  [cm^-1]
  pre-proj  low-frequency mode:    0.0000  [cm^-1]
  pre-proj  low-frequency mode:    0.0000  [cm^-1]
  pre-proj  low-frequency mode:    0.0000  [cm^-1]
  pre-proj  all modes:['0.0000' '0.0000' '0.0000' '0.0000' '0.0000' '1210.4330']
  projected mass-weighted Hessian: Symmetric? True   Hermitian? True   Lin Dep Dim?  5 (5)
  post-proj low-frequency mode:    0.0000i [cm^-1] (TR)
  post-proj low-frequency mode:    0.0000  [cm^-1] (TR)
  post-proj low-frequency mode:    0.0000  [cm^-1] (TR)
  post-proj low-frequency mode:    0.0000  [cm^-1] (TR)
  post-proj low-frequency mode:    0.0000  [cm^-1] (TR)
  post-proj  all modes:['0.0000i' '0.0000' '0.0000' '0.0000' '0.0000' '1210.4330']

  Vibration                       6           
  Freq [cm^-1]                1210.4330       
  Irrep                           A1          
  Reduced mass [u]             19.1932        
  Force const [mDyne/A]        16.5683        
  Turning point v=0 [a0]        0.0720        
  RMS dev v=0 [a0 u^1/2]        0.2230        
  Char temp [K]               1741.5436       
  ----------------------------------------------------------------------------------
      1   S                0.00  0.00 -0.45   
      2   O                0.00  0.00  0.89   

  ==> Thermochemistry Components <==

  Entropy, S
    Electronic S            2.183 [cal/(mol K)]        9.134 [J/(mol K)]       0.00347910 [mEh/K] (multiplicity = 3)
    Translational S        37.528 [cal/(mol K)]      157.018 [J/(mol K)]       0.05980487 [mEh/K] (mol. weight = 47.9670 [u], P = 101325.00 [Pa])
    Rotational S           13.232 [cal/(mol K)]       55.364 [J/(mol K)]       0.02108720 [mEh/K] (symmetry no. = 1)
    Vibrational S           0.040 [cal/(mol K)]        0.166 [J/(mol K)]       0.00006312 [mEh/K]
  Total S                  52.983 [cal/(mol K)]      221.682 [J/(mol K)]       0.08443428 [mEh/K]
  Correction S              0.000 [cal/(mol K)]        0.000 [J/(mol K)]       0.00000000 [mEh/K]

  Constant volume heat capacity, Cv
    Electronic Cv           0.000 [cal/(mol K)]        0.000 [J/(mol K)]       0.00000000 [mEh/K]
    Translational Cv        2.981 [cal/(mol K)]       12.472 [J/(mol K)]       0.00475022 [mEh/K]
    Rotational Cv           1.987 [cal/(mol K)]        8.314 [J/(mol K)]       0.00316681 [mEh/K]
    Vibrational Cv          0.198 [cal/(mol K)]        0.829 [J/(mol K)]       0.00031576 [mEh/K]
  Total Cv                  5.166 [cal/(mol K)]       21.615 [J/(mol K)]       0.00823279 [mEh/K]
  Correction Cv             0.000 [cal/(mol K)]        0.000 [J/(mol K)]       0.00000000 [mEh/K]

  Constant pressure heat capacity, Cp
    Electronic Cp           0.000 [cal/(mol K)]        0.000 [J/(mol K)]       0.00000000 [mEh/K]
    Translational Cp        4.968 [cal/(mol K)]       20.786 [J/(mol K)]       0.00791703 [mEh/K]
    Rotational Cp           1.987 [cal/(mol K)]        8.314 [J/(mol K)]       0.00316681 [mEh/K]
    Vibrational Cp          0.198 [cal/(mol K)]        0.829 [J/(mol K)]       0.00031576 [mEh/K]
  Total Cp                  7.153 [cal/(mol K)]       29.930 [J/(mol K)]       0.01139960 [mEh/K]
  Correction Cp             0.000 [cal/(mol K)]        0.000 [J/(mol K)]       0.00000000 [mEh/K]

  ==> Thermochemistry Energy Analysis <==

  Raw electronic energy, E0
  Total E0, Electronic energy at well bottom at 0 [K]                 -473.37576370 [Eh]

  Zero-point energy, ZPE_vib = Sum_i nu_i / 2
    Electronic ZPE          0.000 [kcal/mol]        0.000 [kJ/mol]       0.00000000 [Eh]
    Translational ZPE       0.000 [kcal/mol]        0.000 [kJ/mol]       0.00000000 [Eh]
    Rotational ZPE          0.000 [kcal/mol]        0.000 [kJ/mol]       0.00000000 [Eh]
    Vibrational ZPE         1.730 [kcal/mol]        7.240 [kJ/mol]       0.00275757 [Eh]         605.216 [cm^-1]
  Correction ZPE            1.730 [kcal/mol]        7.240 [kJ/mol]       0.00275757 [Eh]         605.216 [cm^-1]
  Total ZPE, Electronic energy at 0 [K]                               -473.37300614 [Eh]

  Thermal Energy, E (includes ZPE)
    Electronic E            0.000 [kcal/mol]        0.000 [kJ/mol]       0.00000000 [Eh]
    Translational E         0.889 [kcal/mol]        3.718 [kJ/mol]       0.00141628 [Eh]
    Rotational E            0.592 [kcal/mol]        2.479 [kJ/mol]       0.00094418 [Eh]
    Vibrational E           1.740 [kcal/mol]        7.282 [kJ/mol]       0.00277364 [Eh]
  Correction E              3.222 [kcal/mol]       13.480 [kJ/mol]       0.00513410 [Eh]
  Total E, Electronic energy at  298.15 [K]                           -473.37062960 [Eh]

  Enthalpy, H_trans = E_trans + k_B * T
    Electronic H            0.000 [kcal/mol]        0.000 [kJ/mol]       0.00000000 [Eh]
    Translational H         1.481 [kcal/mol]        6.197 [kJ/mol]       0.00236046 [Eh]
    Rotational H            0.592 [kcal/mol]        2.479 [kJ/mol]       0.00094418 [Eh]
    Vibrational H           1.740 [kcal/mol]        7.282 [kJ/mol]       0.00277364 [Eh]
  Correction H              3.814 [kcal/mol]       15.959 [kJ/mol]       0.00607829 [Eh]
  Total H, Enthalpy at  298.15 [K]                                    -473.36968542 [Eh]

  Gibbs free energy, G = H - T * S
    Electronic G           -0.651 [kcal/mol]       -2.723 [kJ/mol]      -0.00103729 [Eh]
    Translational G        -9.708 [kcal/mol]      -40.617 [kJ/mol]      -0.01547036 [Eh]
    Rotational G           -3.353 [kcal/mol]      -14.028 [kJ/mol]      -0.00534297 [Eh]
    Vibrational G           1.729 [kcal/mol]        7.233 [kJ/mol]       0.00275482 [Eh]
  Correction G            -11.983 [kcal/mol]      -50.136 [kJ/mol]      -0.01909580 [Eh]
  Total G, Free enthalpy at  298.15 [K]                               -473.39485950 [Eh]

    Psi4 stopped on: Tuesday, 27 April 2021 05:36PM
    Psi4 wall time for execution: 0:01:53.96

*** Psi4 exiting successfully. Buy a developer a beer!
