
    -----------------------------------------------------------------------
          Psi4: An Open-Source Ab Initio Electronic Structure Package
                               Psi4 1.3.2 release

                         Git: Rev {HEAD} ecbda83 


    R. M. Parrish, L. A. Burns, D. G. A. Smith, A. C. Simmonett,
    A. E. DePrince III, E. G. Hohenstein, U. Bozkaya, A. Yu. Sokolov,
    R. Di Remigio, R. M. Richard, J. F. Gonthier, A. M. James,
    H. R. McAlexander, A. Kumar, M. Saitow, X. Wang, B. P. Pritchard,
    P. Verma, H. F. Schaefer III, K. Patkowski, R. A. King, E. F. Valeev,
    F. A. Evangelista, J. M. Turney, T. D. Crawford, and C. D. Sherrill,
    J. Chem. Theory Comput. 13(7) pp 3185--3197 (2017).
    (doi: 10.1021/acs.jctc.7b00174)


                         Additional Contributions by
    P. Kraus, H. Kruse, M. H. Lechner, M. C. Schieber, R. A. Shaw,
    A. Alenaizan, R. Galvelis, Z. L. Glick, S. Lehtola, and J. P. Misiewicz

    -----------------------------------------------------------------------


    Psi4 started on: Tuesday, 27 April 2021 05:56PM

    Process ID: 188970
    Host:       bp1-compute00090.data.bp.acrc.priv
    PSIDATADIR: /work/zw18965/.conda/envs/p4env/share/psi4
    Memory:     500.0 MiB
    Threads:    24
    
  ==> Input File <==

--------------------------------------------------------------------------
memory 144 GB

molecule {
0 1
C 0.0000000000 0.0000000000 0.0000000000
Cl 0.0000000000 0.0000000000 1.7182578700
Cl 1.6229007750 0.0000000000 -0.5644494507
}

set dynamic_level 1
set basis aug-cc-pV(D+d)Z
 
optimize("wB97M-V")
frequencies("wB97M-V")
--------------------------------------------------------------------------

  Memory set to 134.110 GiB by Python driver.
gradient() will perform gradient computation by finite difference of analytic energies.

         ----------------------------------------------------------
                                   FINDIF
                     R. A. King and Jonathon Misiewicz
         ---------------------------------------------------------

  Using finite-differences of energies to determine gradients.
    Generating geometries for use with 3-point formula.
    Displacement size will be 5.00e-03.
    Number of atoms is 3.
    Number of symmetric SALCs is 2.
    Translations projected? 1. Rotations projected? 1.
    Number of geometries (including reference) is 5.

  //>>>>>>>>>>>>>>>>>>>>>>>>>>>>>>>>>>>//
  //    Loading displacement 1 of 5    //
  //<<<<<<<<<<<<<<<<<<<<<<<<<<<<<<<<<<<//

*** tstart() called on bp1-compute00090.data.bp.acrc.priv
*** at Tue Apr 27 17:56:31 2021

   => Loading Basis Set <=

    Name: AUG-CC-PV(D+D)Z
    Role: ORBITAL
    Keyword: BASIS
    atoms 1   entry C          line   198 file /work/zw18965/.conda/envs/p4env/share/psi4/basis/aug-cc-pv_dpd_z.gbs 
    atoms 2-3 entry CL         line   792 file /work/zw18965/.conda/envs/p4env/share/psi4/basis/aug-cc-pv_dpd_z.gbs 


         ---------------------------------------------------------
                                   SCF
               by Justin Turney, Rob Parrish, Andy Simmonett
                          and Daniel G. A. Smith
                              RKS Reference
                       24 Threads, 137329 MiB Core
         ---------------------------------------------------------

  ==> Geometry <==

    Molecular point group: c2v
    Full point group: C2v

    Geometry (in Angstrom), charge = 0, multiplicity = 1:

       Center              X                  Y                   Z               Mass       
    ------------   -----------------  -----------------  -----------------  -----------------
         C            0.000000000000     0.000000000000    -0.849813461927    12.000000000000
         CL          -0.000000000000     1.400407051313     0.145812069327    34.968852682000
         CL           0.000000000000    -1.400407051313     0.145812069327    34.968852682000

  Running in c2v symmetry.

  Rotational constants: A =      1.66033  B =      0.12291  C =      0.11444 [cm^-1]
  Rotational constants: A =  49775.57916  B =   3684.65850  C =   3430.69950 [MHz]
  Nuclear repulsion =  117.429285339600526

  Charge       = 0
  Multiplicity = 1
  Electrons    = 40
  Nalpha       = 20
  Nbeta        = 20

  ==> Algorithm <==

  SCF Algorithm Type is DF.
  DIIS enabled.
  MOM disabled.
  Fractional occupation disabled.
  Guess Type is SAD.
  Energy threshold   = 1.00e-08
  Density threshold  = 1.00e-08
  Integral threshold = 0.00e+00

  ==> Primary Basis <==

  Basis Set: AUG-CC-PV(D+D)Z
    Blend: AUG-CC-PV(D+D)Z
    Number of shells: 33
    Number of basis function: 87
    Number of Cartesian functions: 95
    Spherical Harmonics?: true
    Max angular momentum: 2

  ==> DFT Potential <==

   => Composite Functional: WB97M-V <= 

    wB97M-V Hyb-GGA Exchange-Correlation Functional

    N. Mardirossian and M. Head-Gordon, J. Chem. Phys. 144, 214110 (2016)

    Deriv               =              1
    GGA                 =           TRUE
    Meta                =           TRUE

    Exchange Hybrid     =           TRUE
    MP2 Hybrid          =          FALSE

   => Exchange-Correlation Functionals <=

    1.0000   wB97M-V exchange-correlation functional

   => Exact (HF) Exchange <=

    0.8500            HF,LR [omega = 0.3000]
    0.1500               HF 

   => VV10 Non-Local Parameters <=

    VV10 B              =     6.0000E+00
    VV10 C              =     1.0000E-02

   => Molecular Quadrature <=

    Radial Scheme          =       TREUTLER
    Pruning Scheme         =           FLAT
    Nuclear Scheme         =       TREUTLER

    BS radius alpha        =              1
    Pruning alpha          =              1
    Radial Points          =             75
    Spherical Points       =            302
    Total Points           =          67538
    Total Blocks           =            599
    Max Points             =            256
    Max Functions          =             87

   => Loading Basis Set <=

    Name: (AUG-CC-PV(D+D)Z AUX)
    Role: JKFIT
    Keyword: DF_BASIS_SCF
    atoms 1   entry C          line   154 file /work/zw18965/.conda/envs/p4env/share/psi4/basis/aug-cc-pvdz-jkfit.gbs 
    atoms 2-3 entry CL         line   772 file /work/zw18965/.conda/envs/p4env/share/psi4/basis/aug-cc-pvdz-jkfit.gbs 

  ==> Pre-Iterations <==

   -------------------------------------------------------
    Irrep   Nso     Nmo     Nalpha   Nbeta   Ndocc  Nsocc
   -------------------------------------------------------
     A1        33      33       0       0       0       0
     A2        12      12       0       0       0       0
     B1        15      15       0       0       0       0
     B2        27      27       0       0       0       0
   -------------------------------------------------------
    Total      87      87      20      20      20       0
   -------------------------------------------------------

  ==> Integral Setup <==

  ==> DiskDFJK: Density-Fitted J/K Matrices <==

    J tasked:                  Yes
    K tasked:                  Yes
    wK tasked:                 Yes
    Omega:               3.000E-01
    OpenMP threads:             24
    Integrals threads:          24
    Memory [MiB]:           102613
    Algorithm:                Core
    Integral Cache:           NONE
    Schwarz Cutoff:          1E-12
    Fitting Condition:       1E-10

   => Auxiliary Basis Set <=

  Basis Set: (AUG-CC-PV(D+D)Z AUX)
    Blend: AUG-CC-PVDZ-JKFIT
    Number of shells: 108
    Number of basis function: 342
    Number of Cartesian functions: 401
    Spherical Harmonics?: true
    Max angular momentum: 3

  Cached 100.0% of DFT collocation blocks in 0.375 [GiB].

  Minimum eigenvalue in the overlap matrix is 1.0410548899E-03.
  Using Symmetric Orthogonalization.

  SCF Guess: Superposition of Atomic Densities via on-the-fly atomic UHF.

  ==> Iterations <==

                           Total Energy        Delta E     RMS |[F,P]|

   @DF-RKS iter SAD:  -958.11270751907011   -9.58113e+02   0.00000e+00 
   @DF-RKS iter   1:  -958.34471039912262   -2.32003e-01   3.47713e-03 DIIS
   @DF-RKS iter   2:  -958.36374295923474   -1.90326e-02   1.02181e-03 DIIS
   @DF-RKS iter   3:  -958.36503288291078   -1.28992e-03   3.44817e-04 DIIS
   @DF-RKS iter   4:  -958.36521974811421   -1.86865e-04   1.78903e-04 DIIS
   @DF-RKS iter   5:  -958.36526813284638   -4.83847e-05   7.17395e-05 DIIS
   @DF-RKS iter   6:  -958.36527689740058   -8.76455e-06   1.69996e-05 DIIS
   @DF-RKS iter   7:  -958.36527765282699   -7.55426e-07   3.63203e-06 DIIS
   @DF-RKS iter   8:  -958.36527771489853   -6.20715e-08   1.18519e-06 DIIS
   @DF-RKS iter   9:  -958.36527771965882   -4.76030e-09   3.73577e-07 DIIS
   @DF-RKS iter  10:  -958.36527772036857   -7.09747e-10   1.15231e-07 DIIS
   @DF-RKS iter  11:  -958.36527772043689   -6.83258e-11   2.17736e-08 DIIS
   @DF-RKS iter  12:  -958.36527772044019   -3.29692e-12   4.29262e-09 DIIS
  Energy and wave function converged.


  ==> Post-Iterations <==

    Orbital Energies [Eh]
    ---------------------

    Doubly Occupied:                                                      

       1B2  -101.933005     1A1  -101.933004     2A1   -10.519894  
       2B2    -9.698636     3A1    -9.698568     3B2    -7.401834  
       4A1    -7.401831     1A2    -7.396348     1B1    -7.396346  
       5A1    -7.393049     4B2    -7.393049     6A1    -1.068958  
       5B2    -0.986635     7A1    -0.727738     6B2    -0.575440  
       8A1    -0.529489     2B1    -0.525756     2A2    -0.452706  
       7B2    -0.432593     9A1    -0.364828  

    Virtual:                                                              

       3B1    -0.043959    10A1     0.040395     8B2     0.050211  
      11A1     0.065039     4B1     0.085763    12A1     0.089982  
       9B2     0.107664     3A2     0.122617    13A1     0.123018  
       5B1     0.131230    10B2     0.145679    14A1     0.164500  
      11B2     0.172504    15A1     0.236212    12B2     0.253031  
       6B1     0.304165    16A1     0.336444     4A2     0.341787  
      17A1     0.387574    13B2     0.388560     5A2     0.448615  
       7B1     0.456165    14B2     0.462678    18A1     0.496300  
      15B2     0.560685     8B1     0.576777    19A1     0.585991  
      16B2     0.630811     6A2     0.637431    20A1     0.657824  
       9B1     0.699892    21A1     0.750540    17B2     0.807685  
      22A1     0.824313     7A2     0.852606    10B1     0.877005  
      18B2     0.910185    23A1     0.978262    19B2     1.073633  
      11B1     1.074365    24A1     1.084813    20B2     1.111624  
      25A1     1.112678     8A2     1.120006    12B1     1.136893  
      26A1     1.153237     9A2     1.155463    21B2     1.180275  
      27A1     1.197626    22B2     1.241171    13B1     1.534888  
      28A1     1.552341    10A2     1.556140    29A1     1.660671  
      23B2     1.773963    24B2     1.921664    30A1     2.120173  
      14B1     5.523982    25B2     5.540442    31A1     5.540469  
      11A2     5.544901    26B2     5.561583    15B1     5.567149  
      12A2     5.585971    32A1     5.620502    33A1     5.636040  
      27B2     5.647467  

    Final Occupation by Irrep:
             A1    A2    B1    B2 
    DOCC [     9,    2,    2,    7 ]

  @DF-RKS Final Energy:  -958.36527772044019

   => Energetics <=

    Nuclear Repulsion Energy =            117.4292853396005256
    One-Electron Energy =               -1554.2512560600596316
    Two-Electron Energy =                 525.7394292432501288
    DFT Exchange-Correlation Energy =     -47.4480593010874685
    Empirical Dispersion Energy =           0.0000000000000000
    VV10 Nonlocal Energy =                  0.1653230578563090
    Total Energy =                       -958.3652777204401900

Computation Completed


Properties will be evaluated at   0.000000,   0.000000,   0.000000 [a0]

Properties computed using the SCF density matrix

  Nuclear Dipole Moment: [e a0]
     X:     0.0000      Y:    -0.0000      Z:    -0.2670

  Electronic Dipole Moment: [e a0]
     X:     0.0000      Y:     0.0000      Z:     0.6952

  Dipole Moment: [e a0]
     X:     0.0000      Y:    -0.0000      Z:     0.4282     Total:     0.4282

  Dipole Moment: [D]
     X:     0.0000      Y:    -0.0000      Z:     1.0884     Total:     1.0884


*** tstop() called on bp1-compute00090.data.bp.acrc.priv at Tue Apr 27 17:56:35 2021
Module time:
	user time   =      80.53 seconds =       1.34 minutes
	system time =       4.11 seconds =       0.07 minutes
	total time  =          4 seconds =       0.07 minutes
Total time:
	user time   =      80.53 seconds =       1.34 minutes
	system time =       4.11 seconds =       0.07 minutes
	total time  =          4 seconds =       0.07 minutes

  //>>>>>>>>>>>>>>>>>>>>>>>>>>>>>>>>>>>//
  //    Loading displacement 2 of 5    //
  //<<<<<<<<<<<<<<<<<<<<<<<<<<<<<<<<<<<//

*** tstart() called on bp1-compute00090.data.bp.acrc.priv
*** at Tue Apr 27 17:56:35 2021

   => Loading Basis Set <=

    Name: AUG-CC-PV(D+D)Z
    Role: ORBITAL
    Keyword: BASIS
    atoms 1   entry C          line   198 file /work/zw18965/.conda/envs/p4env/share/psi4/basis/aug-cc-pv_dpd_z.gbs 
    atoms 2-3 entry CL         line   792 file /work/zw18965/.conda/envs/p4env/share/psi4/basis/aug-cc-pv_dpd_z.gbs 


         ---------------------------------------------------------
                                   SCF
               by Justin Turney, Rob Parrish, Andy Simmonett
                          and Daniel G. A. Smith
                              RKS Reference
                       24 Threads, 137329 MiB Core
         ---------------------------------------------------------

  ==> Geometry <==

    Molecular point group: c2v
    Full point group: C2v

    Geometry (in Angstrom), charge = 0, multiplicity = 1:

       Center              X                  Y                   Z               Mass       
    ------------   -----------------  -----------------  -----------------  -----------------
         C            0.000000000000     0.000000000000    -0.850519119985    12.000000000000
         CL          -0.000000000000     1.400407051313     0.145933147030    34.968852682000
         CL           0.000000000000    -1.400407051313     0.145933147030    34.968852682000

  Running in c2v symmetry.

  Rotational constants: A =      1.65758  B =      0.12291  C =      0.11442 [cm^-1]
  Rotational constants: A =  49693.01789  B =   3684.65850  C =   3430.30669 [MHz]
  Nuclear repulsion =  117.411769633489982

  Charge       = 0
  Multiplicity = 1
  Electrons    = 40
  Nalpha       = 20
  Nbeta        = 20

  ==> Algorithm <==

  SCF Algorithm Type is DF.
  DIIS enabled.
  MOM disabled.
  Fractional occupation disabled.
  Guess Type is SAD.
  Energy threshold   = 1.00e-08
  Density threshold  = 1.00e-08
  Integral threshold = 0.00e+00

  ==> Primary Basis <==

  Basis Set: AUG-CC-PV(D+D)Z
    Blend: AUG-CC-PV(D+D)Z
    Number of shells: 33
    Number of basis function: 87
    Number of Cartesian functions: 95
    Spherical Harmonics?: true
    Max angular momentum: 2

  ==> DFT Potential <==

   => Composite Functional: WB97M-V <= 

    wB97M-V Hyb-GGA Exchange-Correlation Functional

    N. Mardirossian and M. Head-Gordon, J. Chem. Phys. 144, 214110 (2016)

    Deriv               =              1
    GGA                 =           TRUE
    Meta                =           TRUE

    Exchange Hybrid     =           TRUE
    MP2 Hybrid          =          FALSE

   => Exchange-Correlation Functionals <=

    1.0000   wB97M-V exchange-correlation functional

   => Exact (HF) Exchange <=

    0.8500            HF,LR [omega = 0.3000]
    0.1500               HF 

   => VV10 Non-Local Parameters <=

    VV10 B              =     6.0000E+00
    VV10 C              =     1.0000E-02

   => Molecular Quadrature <=

    Radial Scheme          =       TREUTLER
    Pruning Scheme         =           FLAT
    Nuclear Scheme         =       TREUTLER

    BS radius alpha        =              1
    Pruning alpha          =              1
    Radial Points          =             75
    Spherical Points       =            302
    Total Points           =          67538
    Total Blocks           =            599
    Max Points             =            256
    Max Functions          =             87

   => Loading Basis Set <=

    Name: (AUG-CC-PV(D+D)Z AUX)
    Role: JKFIT
    Keyword: DF_BASIS_SCF
    atoms 1   entry C          line   154 file /work/zw18965/.conda/envs/p4env/share/psi4/basis/aug-cc-pvdz-jkfit.gbs 
    atoms 2-3 entry CL         line   772 file /work/zw18965/.conda/envs/p4env/share/psi4/basis/aug-cc-pvdz-jkfit.gbs 

  ==> Pre-Iterations <==

   -------------------------------------------------------
    Irrep   Nso     Nmo     Nalpha   Nbeta   Ndocc  Nsocc
   -------------------------------------------------------
     A1        33      33       0       0       0       0
     A2        12      12       0       0       0       0
     B1        15      15       0       0       0       0
     B2        27      27       0       0       0       0
   -------------------------------------------------------
    Total      87      87      20      20      20       0
   -------------------------------------------------------

  ==> Integral Setup <==

  ==> DiskDFJK: Density-Fitted J/K Matrices <==

    J tasked:                  Yes
    K tasked:                  Yes
    wK tasked:                 Yes
    Omega:               3.000E-01
    OpenMP threads:             24
    Integrals threads:          24
    Memory [MiB]:           102612
    Algorithm:                Core
    Integral Cache:           NONE
    Schwarz Cutoff:          1E-12
    Fitting Condition:       1E-10

   => Auxiliary Basis Set <=

  Basis Set: (AUG-CC-PV(D+D)Z AUX)
    Blend: AUG-CC-PVDZ-JKFIT
    Number of shells: 108
    Number of basis function: 342
    Number of Cartesian functions: 401
    Spherical Harmonics?: true
    Max angular momentum: 3

  Cached 100.0% of DFT collocation blocks in 0.375 [GiB].

  Minimum eigenvalue in the overlap matrix is 1.0424830483E-03.
  Using Symmetric Orthogonalization.

  SCF Guess: Superposition of Atomic Densities via on-the-fly atomic UHF.

  ==> Iterations <==

                           Total Energy        Delta E     RMS |[F,P]|

   @DF-RKS iter SAD:  -958.11157185184993   -9.58112e+02   0.00000e+00 
   @DF-RKS iter   1:  -958.34473362292215   -2.33162e-01   3.47601e-03 DIIS
   @DF-RKS iter   2:  -958.36375168485040   -1.90181e-02   1.01937e-03 DIIS
   @DF-RKS iter   3:  -958.36503806925145   -1.28638e-03   3.40289e-04 DIIS
   @DF-RKS iter   4:  -958.36522284644866   -1.84777e-04   1.74336e-04 DIIS
   @DF-RKS iter   5:  -958.36526921675284   -4.63703e-05   7.20306e-05 DIIS
   @DF-RKS iter   6:  -958.36527793533651   -8.71858e-06   1.71520e-05 DIIS
   @DF-RKS iter   7:  -958.36527869528391   -7.59947e-07   3.63278e-06 DIIS
   @DF-RKS iter   8:  -958.36527875758941   -6.23055e-08   1.18768e-06 DIIS
   @DF-RKS iter   9:  -958.36527876237335   -4.78394e-09   3.74112e-07 DIIS
   @DF-RKS iter  10:  -958.36527876308583   -7.12475e-10   1.15398e-07 DIIS
   @DF-RKS iter  11:  -958.36527876315336   -6.75300e-11   2.17820e-08 DIIS
   @DF-RKS iter  12:  -958.36527876315631   -2.95586e-12   4.29469e-09 DIIS
  Energy and wave function converged.


  ==> Post-Iterations <==

    Orbital Energies [Eh]
    ---------------------

    Doubly Occupied:                                                      

       1B2  -101.932981     1A1  -101.932980     2A1   -10.520062  
       2B2    -9.698606     3A1    -9.698538     3B2    -7.401805  
       4A1    -7.401802     1A2    -7.396318     1B1    -7.396316  
       5A1    -7.393020     4B2    -7.393020     6A1    -1.068830  
       5B2    -0.986537     7A1    -0.727747     6B2    -0.575332  
       8A1    -0.529440     2B1    -0.525673     2A2    -0.452666  
       7B2    -0.432533     9A1    -0.364994  

    Virtual:                                                              

       3B1    -0.044045    10A1     0.040381     8B2     0.050201  
      11A1     0.064980     4B1     0.085766    12A1     0.089975  
       9B2     0.107642     3A2     0.122626    13A1     0.123011  
       5B1     0.131212    10B2     0.145601    14A1     0.164438  
      11B2     0.172372    15A1     0.236227    12B2     0.253033  
       6B1     0.304180    16A1     0.336496     4A2     0.341764  
      17A1     0.387468    13B2     0.388599     5A2     0.448665  
       7B1     0.456034    14B2     0.462716    18A1     0.496209  
      15B2     0.560586     8B1     0.576682    19A1     0.585906  
      16B2     0.630650     6A2     0.637315    20A1     0.657797  
       9B1     0.699910    21A1     0.750514    17B2     0.807789  
      22A1     0.824199     7A2     0.852564    10B1     0.876945  
      18B2     0.910172    23A1     0.978146    19B2     1.073515  
      11B1     1.074393    24A1     1.084936    20B2     1.111611  
      25A1     1.112554     8A2     1.120066    12B1     1.136894  
      26A1     1.153217     9A2     1.155558    21B2     1.180221  
      27A1     1.197697    22B2     1.241197    13B1     1.534778  
      28A1     1.552242    10A2     1.555882    29A1     1.660192  
      23B2     1.773496    24B2     1.921645    30A1     2.119871  
      14B1     5.523999    25B2     5.540478    31A1     5.540494  
      11A2     5.544942    26B2     5.561562    15B1     5.567140  
      12A2     5.585901    32A1     5.620397    33A1     5.636034  
      27B2     5.647482  

    Final Occupation by Irrep:
             A1    A2    B1    B2 
    DOCC [     9,    2,    2,    7 ]

  @DF-RKS Final Energy:  -958.36527876315631

   => Energetics <=

    Nuclear Repulsion Energy =            117.4117696334899819
    One-Electron Energy =               -1554.2173876261854275
    Two-Electron Energy =                 525.7228081315555528
    DFT Exchange-Correlation Energy =     -47.4477924854422639
    Empirical Dispersion Energy =           0.0000000000000000
    VV10 Nonlocal Energy =                  0.1653235834259967
    Total Energy =                       -958.3652787631561978

Computation Completed


Properties will be evaluated at   0.000000,   0.000000,   0.000000 [a0]

Properties computed using the SCF density matrix

  Nuclear Dipole Moment: [e a0]
     X:     0.0000      Y:    -0.0000      Z:    -0.2672

  Electronic Dipole Moment: [e a0]
     X:     0.0000      Y:     0.0000      Z:     0.6946

  Dipole Moment: [e a0]
     X:     0.0000      Y:    -0.0000      Z:     0.4275     Total:     0.4275

  Dipole Moment: [D]
     X:     0.0000      Y:    -0.0000      Z:     1.0865     Total:     1.0865


*** tstop() called on bp1-compute00090.data.bp.acrc.priv at Tue Apr 27 17:56:38 2021
Module time:
	user time   =      80.73 seconds =       1.35 minutes
	system time =       3.16 seconds =       0.05 minutes
	total time  =          3 seconds =       0.05 minutes
Total time:
	user time   =     161.44 seconds =       2.69 minutes
	system time =       7.28 seconds =       0.12 minutes
	total time  =          7 seconds =       0.12 minutes

  //>>>>>>>>>>>>>>>>>>>>>>>>>>>>>>>>>>>//
  //    Loading displacement 3 of 5    //
  //<<<<<<<<<<<<<<<<<<<<<<<<<<<<<<<<<<<//

*** tstart() called on bp1-compute00090.data.bp.acrc.priv
*** at Tue Apr 27 17:56:38 2021

   => Loading Basis Set <=

    Name: AUG-CC-PV(D+D)Z
    Role: ORBITAL
    Keyword: BASIS
    atoms 1   entry C          line   198 file /work/zw18965/.conda/envs/p4env/share/psi4/basis/aug-cc-pv_dpd_z.gbs 
    atoms 2-3 entry CL         line   792 file /work/zw18965/.conda/envs/p4env/share/psi4/basis/aug-cc-pv_dpd_z.gbs 


         ---------------------------------------------------------
                                   SCF
               by Justin Turney, Rob Parrish, Andy Simmonett
                          and Daniel G. A. Smith
                              RKS Reference
                       24 Threads, 137329 MiB Core
         ---------------------------------------------------------

  ==> Geometry <==

    Molecular point group: c2v
    Full point group: C2v

    Geometry (in Angstrom), charge = 0, multiplicity = 1:

       Center              X                  Y                   Z               Mass       
    ------------   -----------------  -----------------  -----------------  -----------------
         C            0.000000000000     0.000000000000    -0.849107803870    12.000000000000
         CL          -0.000000000000     1.400407051313     0.145690991625    34.968852682000
         CL           0.000000000000    -1.400407051313     0.145690991625    34.968852682000

  Running in c2v symmetry.

  Rotational constants: A =      1.66310  B =      0.12291  C =      0.11445 [cm^-1]
  Rotational constants: A =  49858.34635  B =   3684.65850  C =   3431.09207 [MHz]
  Nuclear repulsion =  117.446801151134196

  Charge       = 0
  Multiplicity = 1
  Electrons    = 40
  Nalpha       = 20
  Nbeta        = 20

  ==> Algorithm <==

  SCF Algorithm Type is DF.
  DIIS enabled.
  MOM disabled.
  Fractional occupation disabled.
  Guess Type is SAD.
  Energy threshold   = 1.00e-08
  Density threshold  = 1.00e-08
  Integral threshold = 0.00e+00

  ==> Primary Basis <==

  Basis Set: AUG-CC-PV(D+D)Z
    Blend: AUG-CC-PV(D+D)Z
    Number of shells: 33
    Number of basis function: 87
    Number of Cartesian functions: 95
    Spherical Harmonics?: true
    Max angular momentum: 2

  ==> DFT Potential <==

   => Composite Functional: WB97M-V <= 

    wB97M-V Hyb-GGA Exchange-Correlation Functional

    N. Mardirossian and M. Head-Gordon, J. Chem. Phys. 144, 214110 (2016)

    Deriv               =              1
    GGA                 =           TRUE
    Meta                =           TRUE

    Exchange Hybrid     =           TRUE
    MP2 Hybrid          =          FALSE

   => Exchange-Correlation Functionals <=

    1.0000   wB97M-V exchange-correlation functional

   => Exact (HF) Exchange <=

    0.8500            HF,LR [omega = 0.3000]
    0.1500               HF 

   => VV10 Non-Local Parameters <=

    VV10 B              =     6.0000E+00
    VV10 C              =     1.0000E-02

   => Molecular Quadrature <=

    Radial Scheme          =       TREUTLER
    Pruning Scheme         =           FLAT
    Nuclear Scheme         =       TREUTLER

    BS radius alpha        =              1
    Pruning alpha          =              1
    Radial Points          =             75
    Spherical Points       =            302
    Total Points           =          67538
    Total Blocks           =            599
    Max Points             =            256
    Max Functions          =             87

   => Loading Basis Set <=

    Name: (AUG-CC-PV(D+D)Z AUX)
    Role: JKFIT
    Keyword: DF_BASIS_SCF
    atoms 1   entry C          line   154 file /work/zw18965/.conda/envs/p4env/share/psi4/basis/aug-cc-pvdz-jkfit.gbs 
    atoms 2-3 entry CL         line   772 file /work/zw18965/.conda/envs/p4env/share/psi4/basis/aug-cc-pvdz-jkfit.gbs 

  ==> Pre-Iterations <==

   -------------------------------------------------------
    Irrep   Nso     Nmo     Nalpha   Nbeta   Ndocc  Nsocc
   -------------------------------------------------------
     A1        33      33       0       0       0       0
     A2        12      12       0       0       0       0
     B1        15      15       0       0       0       0
     B2        27      27       0       0       0       0
   -------------------------------------------------------
    Total      87      87      20      20      20       0
   -------------------------------------------------------

  ==> Integral Setup <==

  ==> DiskDFJK: Density-Fitted J/K Matrices <==

    J tasked:                  Yes
    K tasked:                  Yes
    wK tasked:                 Yes
    Omega:               3.000E-01
    OpenMP threads:             24
    Integrals threads:          24
    Memory [MiB]:           102612
    Algorithm:                Core
    Integral Cache:           NONE
    Schwarz Cutoff:          1E-12
    Fitting Condition:       1E-10

   => Auxiliary Basis Set <=

  Basis Set: (AUG-CC-PV(D+D)Z AUX)
    Blend: AUG-CC-PVDZ-JKFIT
    Number of shells: 108
    Number of basis function: 342
    Number of Cartesian functions: 401
    Spherical Harmonics?: true
    Max angular momentum: 3

  Cached 100.0% of DFT collocation blocks in 0.375 [GiB].

  Minimum eigenvalue in the overlap matrix is 1.0396295211E-03.
  Using Symmetric Orthogonalization.

  SCF Guess: Superposition of Atomic Densities via on-the-fly atomic UHF.

  ==> Iterations <==

                           Total Energy        Delta E     RMS |[F,P]|

   @DF-RKS iter SAD:  -958.11382301978347   -9.58114e+02   0.00000e+00 
   @DF-RKS iter   1:  -958.34468673476920   -2.30864e-01   3.47825e-03 DIIS
   @DF-RKS iter   2:  -958.36373346149435   -1.90467e-02   1.02437e-03 DIIS
   @DF-RKS iter   3:  -958.36502702272321   -1.29356e-03   3.49525e-04 DIIS
   @DF-RKS iter   4:  -958.36521618292204   -1.89160e-04   1.83304e-04 DIIS
   @DF-RKS iter   5:  -958.36526659206766   -5.04091e-05   7.13453e-05 DIIS
   @DF-RKS iter   6:  -958.36527537926656   -8.78720e-06   1.68603e-05 DIIS
   @DF-RKS iter   7:  -958.36527613045314   -7.51187e-07   3.63108e-06 DIIS
   @DF-RKS iter   8:  -958.36527619229196   -6.18388e-08   1.18279e-06 DIIS
   @DF-RKS iter   9:  -958.36527619703202   -4.74006e-09   3.73050e-07 DIIS
   @DF-RKS iter  10:  -958.36527619773858   -7.06564e-10   1.15071e-07 DIIS
   @DF-RKS iter  11:  -958.36527619780736   -6.87805e-11   2.17654e-08 DIIS
   @DF-RKS iter  12:  -958.36527619781020   -2.84217e-12   4.29050e-09 DIIS
  Energy and wave function converged.


  ==> Post-Iterations <==

    Orbital Energies [Eh]
    ---------------------

    Doubly Occupied:                                                      

       1B2  -101.933028     1A1  -101.933027     2A1   -10.519725  
       2B2    -9.698665     3A1    -9.698598     3B2    -7.401863  
       4A1    -7.401860     1A2    -7.396378     1B1    -7.396376  
       5A1    -7.393077     4B2    -7.393077     6A1    -1.069086  
       5B2    -0.986732     7A1    -0.727730     6B2    -0.575549  
       8A1    -0.529538     2B1    -0.525840     2A2    -0.452745  
       7B2    -0.432652     9A1    -0.364662  

    Virtual:                                                              

       3B1    -0.043873    10A1     0.040408     8B2     0.050221  
      11A1     0.065099     4B1     0.085759    12A1     0.089989  
       9B2     0.107686     3A2     0.122609    13A1     0.123025  
       5B1     0.131248    10B2     0.145756    14A1     0.164562  
      11B2     0.172637    15A1     0.236197    12B2     0.253029  
       6B1     0.304150    16A1     0.336392     4A2     0.341810  
      17A1     0.387679    13B2     0.388522     5A2     0.448564  
       7B1     0.456296    14B2     0.462639    18A1     0.496391  
      15B2     0.560784     8B1     0.576871    19A1     0.586075  
      16B2     0.630972     6A2     0.637547    20A1     0.657850  
       9B1     0.699875    21A1     0.750566    17B2     0.807582  
      22A1     0.824426     7A2     0.852648    10B1     0.877066  
      18B2     0.910197    23A1     0.978377    19B2     1.073752  
      11B1     1.074337    24A1     1.084691    20B2     1.111639  
      25A1     1.112803     8A2     1.119946    12B1     1.136893  
      26A1     1.153256     9A2     1.155367    21B2     1.180329  
      27A1     1.197556    22B2     1.241144    13B1     1.534998  
      28A1     1.552441    10A2     1.556399    29A1     1.661150  
      23B2     1.774431    24B2     1.921683    30A1     2.120475  
      14B1     5.523964    25B2     5.540406    31A1     5.540445  
      11A2     5.544861    26B2     5.561604    15B1     5.567158  
      12A2     5.586040    32A1     5.620606    33A1     5.636047  
      27B2     5.647452  

    Final Occupation by Irrep:
             A1    A2    B1    B2 
    DOCC [     9,    2,    2,    7 ]

  @DF-RKS Final Energy:  -958.36527619781020

   => Energetics <=

    Nuclear Repulsion Energy =            117.4468011511341956
    One-Electron Energy =               -1554.2851240687978134
    Two-Electron Energy =                 525.7560503529072093
    DFT Exchange-Correlation Energy =     -47.4483261655833672
    Empirical Dispersion Energy =           0.0000000000000000
    VV10 Nonlocal Energy =                  0.1653225325295424
    Total Energy =                       -958.3652761978102035

Computation Completed


Properties will be evaluated at   0.000000,   0.000000,   0.000000 [a0]

Properties computed using the SCF density matrix

  Nuclear Dipole Moment: [e a0]
     X:     0.0000      Y:    -0.0000      Z:    -0.2667

  Electronic Dipole Moment: [e a0]
     X:     0.0000      Y:     0.0000      Z:     0.6957

  Dipole Moment: [e a0]
     X:     0.0000      Y:    -0.0000      Z:     0.4290     Total:     0.4290

  Dipole Moment: [D]
     X:     0.0000      Y:    -0.0000      Z:     1.0903     Total:     1.0903


*** tstop() called on bp1-compute00090.data.bp.acrc.priv at Tue Apr 27 17:56:41 2021
Module time:
	user time   =      75.02 seconds =       1.25 minutes
	system time =       2.24 seconds =       0.04 minutes
	total time  =          3 seconds =       0.05 minutes
Total time:
	user time   =     236.65 seconds =       3.94 minutes
	system time =       9.53 seconds =       0.16 minutes
	total time  =         10 seconds =       0.17 minutes

  //>>>>>>>>>>>>>>>>>>>>>>>>>>>>>>>>>>>//
  //    Loading displacement 4 of 5    //
  //<<<<<<<<<<<<<<<<<<<<<<<<<<<<<<<<<<<//

*** tstart() called on bp1-compute00090.data.bp.acrc.priv
*** at Tue Apr 27 17:56:41 2021

   => Loading Basis Set <=

    Name: AUG-CC-PV(D+D)Z
    Role: ORBITAL
    Keyword: BASIS
    atoms 1   entry C          line   198 file /work/zw18965/.conda/envs/p4env/share/psi4/basis/aug-cc-pv_dpd_z.gbs 
    atoms 2-3 entry CL         line   792 file /work/zw18965/.conda/envs/p4env/share/psi4/basis/aug-cc-pv_dpd_z.gbs 


         ---------------------------------------------------------
                                   SCF
               by Justin Turney, Rob Parrish, Andy Simmonett
                          and Daniel G. A. Smith
                              RKS Reference
                       24 Threads, 137329 MiB Core
         ---------------------------------------------------------

  ==> Geometry <==

    Molecular point group: c2v
    Full point group: C2v

    Geometry (in Angstrom), charge = 0, multiplicity = 1:

       Center              X                  Y                   Z               Mass       
    ------------   -----------------  -----------------  -----------------  -----------------
         C           -0.000000000000     0.000000000000    -0.849813461927    12.000000000000
         CL          -0.000000000000     1.400090666632     0.145812069327    34.968852682000
         CL           0.000000000000    -1.400090666632     0.145812069327    34.968852682000

  Running in c2v symmetry.

  Rotational constants: A =      1.66033  B =      0.12296  C =      0.11448 [cm^-1]
  Rotational constants: A =  49775.57916  B =   3686.32396  C =   3432.14325 [MHz]
  Nuclear repulsion =  117.451053583743573

  Charge       = 0
  Multiplicity = 1
  Electrons    = 40
  Nalpha       = 20
  Nbeta        = 20

  ==> Algorithm <==

  SCF Algorithm Type is DF.
  DIIS enabled.
  MOM disabled.
  Fractional occupation disabled.
  Guess Type is SAD.
  Energy threshold   = 1.00e-08
  Density threshold  = 1.00e-08
  Integral threshold = 0.00e+00

  ==> Primary Basis <==

  Basis Set: AUG-CC-PV(D+D)Z
    Blend: AUG-CC-PV(D+D)Z
    Number of shells: 33
    Number of basis function: 87
    Number of Cartesian functions: 95
    Spherical Harmonics?: true
    Max angular momentum: 2

  ==> DFT Potential <==

   => Composite Functional: WB97M-V <= 

    wB97M-V Hyb-GGA Exchange-Correlation Functional

    N. Mardirossian and M. Head-Gordon, J. Chem. Phys. 144, 214110 (2016)

    Deriv               =              1
    GGA                 =           TRUE
    Meta                =           TRUE

    Exchange Hybrid     =           TRUE
    MP2 Hybrid          =          FALSE

   => Exchange-Correlation Functionals <=

    1.0000   wB97M-V exchange-correlation functional

   => Exact (HF) Exchange <=

    0.8500            HF,LR [omega = 0.3000]
    0.1500               HF 

   => VV10 Non-Local Parameters <=

    VV10 B              =     6.0000E+00
    VV10 C              =     1.0000E-02

   => Molecular Quadrature <=

    Radial Scheme          =       TREUTLER
    Pruning Scheme         =           FLAT
    Nuclear Scheme         =       TREUTLER

    BS radius alpha        =              1
    Pruning alpha          =              1
    Radial Points          =             75
    Spherical Points       =            302
    Total Points           =          67538
    Total Blocks           =            599
    Max Points             =            256
    Max Functions          =             87

   => Loading Basis Set <=

    Name: (AUG-CC-PV(D+D)Z AUX)
    Role: JKFIT
    Keyword: DF_BASIS_SCF
    atoms 1   entry C          line   154 file /work/zw18965/.conda/envs/p4env/share/psi4/basis/aug-cc-pvdz-jkfit.gbs 
    atoms 2-3 entry CL         line   772 file /work/zw18965/.conda/envs/p4env/share/psi4/basis/aug-cc-pvdz-jkfit.gbs 

  ==> Pre-Iterations <==

   -------------------------------------------------------
    Irrep   Nso     Nmo     Nalpha   Nbeta   Ndocc  Nsocc
   -------------------------------------------------------
     A1        33      33       0       0       0       0
     A2        12      12       0       0       0       0
     B1        15      15       0       0       0       0
     B2        27      27       0       0       0       0
   -------------------------------------------------------
    Total      87      87      20      20      20       0
   -------------------------------------------------------

  ==> Integral Setup <==

  ==> DiskDFJK: Density-Fitted J/K Matrices <==

    J tasked:                  Yes
    K tasked:                  Yes
    wK tasked:                 Yes
    Omega:               3.000E-01
    OpenMP threads:             24
    Integrals threads:          24
    Memory [MiB]:           102613
    Algorithm:                Core
    Integral Cache:           NONE
    Schwarz Cutoff:          1E-12
    Fitting Condition:       1E-10

   => Auxiliary Basis Set <=

  Basis Set: (AUG-CC-PV(D+D)Z AUX)
    Blend: AUG-CC-PVDZ-JKFIT
    Number of shells: 108
    Number of basis function: 342
    Number of Cartesian functions: 401
    Spherical Harmonics?: true
    Max angular momentum: 3

  Cached 100.0% of DFT collocation blocks in 0.375 [GiB].

  Minimum eigenvalue in the overlap matrix is 1.0402022919E-03.
  Using Symmetric Orthogonalization.

  SCF Guess: Superposition of Atomic Densities via on-the-fly atomic UHF.

  ==> Iterations <==

                           Total Energy        Delta E     RMS |[F,P]|

   @DF-RKS iter SAD:  -958.11341138938678   -9.58113e+02   0.00000e+00 
   @DF-RKS iter   1:  -958.34470501698047   -2.31294e-01   3.47738e-03 DIIS
   @DF-RKS iter   2:  -958.36374063446965   -1.90356e-02   1.02265e-03 DIIS
   @DF-RKS iter   3:  -958.36503144707774   -1.29081e-03   3.46660e-04 DIIS
   @DF-RKS iter   4:  -958.36521912976627   -1.87683e-04   1.80697e-04 DIIS
   @DF-RKS iter   5:  -958.36526832309085   -4.91933e-05   7.15622e-05 DIIS
   @DF-RKS iter   6:  -958.36527709308916   -8.77000e-06   1.69395e-05 DIIS
   @DF-RKS iter   7:  -958.36527784660893   -7.53520e-07   3.63213e-06 DIIS
   @DF-RKS iter   8:  -958.36527790860998   -6.20010e-08   1.18430e-06 DIIS
   @DF-RKS iter   9:  -958.36527791336187   -4.75188e-09   3.73341e-07 DIIS
   @DF-RKS iter  10:  -958.36527791407116   -7.09292e-10   1.15112e-07 DIIS
   @DF-RKS iter  11:  -958.36527791413789   -6.67342e-11   2.17446e-08 DIIS
   @DF-RKS iter  12:  -958.36527791414119   -3.29692e-12   4.28766e-09 DIIS
  Energy and wave function converged.


  ==> Post-Iterations <==

    Orbital Energies [Eh]
    ---------------------

    Doubly Occupied:                                                      

       1B2  -101.933004     1A1  -101.933003     2A1   -10.519816  
       2B2    -9.698641     3A1    -9.698573     3B2    -7.401839  
       4A1    -7.401836     1A2    -7.396353     1B1    -7.396351  
       5A1    -7.393053     4B2    -7.393053     6A1    -1.069058  
       5B2    -0.986657     7A1    -0.727737     6B2    -0.575474  
       8A1    -0.529543     2B1    -0.525813     2A2    -0.452709  
       7B2    -0.432569     9A1    -0.364800  

    Virtual:                                                              

       3B1    -0.043919    10A1     0.040408     8B2     0.050217  
      11A1     0.065085     4B1     0.085759    12A1     0.089983  
       9B2     0.107672     3A2     0.122616    13A1     0.123015  
       5B1     0.131232    10B2     0.145696    14A1     0.164553  
      11B2     0.172570    15A1     0.236230    12B2     0.253027  
       6B1     0.304153    16A1     0.336441     4A2     0.341797  
      17A1     0.387578    13B2     0.388587     5A2     0.448670  
       7B1     0.456192    14B2     0.462688    18A1     0.496294  
      15B2     0.560698     8B1     0.576809    19A1     0.586035  
      16B2     0.630914     6A2     0.637434    20A1     0.657915  
       9B1     0.699899    21A1     0.750547    17B2     0.807639  
      22A1     0.824281     7A2     0.852631    10B1     0.876980  
      18B2     0.910268    23A1     0.978223    19B2     1.073712  
      11B1     1.074374    24A1     1.084797    20B2     1.111611  
      25A1     1.112669     8A2     1.119983    12B1     1.136877  
      26A1     1.153387     9A2     1.155438    21B2     1.180240  
      27A1     1.197710    22B2     1.241141    13B1     1.534959  
      28A1     1.552450    10A2     1.556239    29A1     1.660804  
      23B2     1.774323    24B2     1.921828    30A1     2.120248  
      14B1     5.523985    25B2     5.540435    31A1     5.540479  
      11A2     5.544895    26B2     5.561536    15B1     5.567186  
      12A2     5.585988    32A1     5.620570    33A1     5.636130  
      27B2     5.647490  

    Final Occupation by Irrep:
             A1    A2    B1    B2 
    DOCC [     9,    2,    2,    7 ]

  @DF-RKS Final Energy:  -958.36527791414119

   => Energetics <=

    Nuclear Repulsion Energy =            117.4510535837435725
    One-Electron Energy =               -1554.2943363564768333
    Two-Electron Energy =                 525.7609181186704745
    DFT Exchange-Correlation Energy =     -47.4482350825236878
    Empirical Dispersion Energy =           0.0000000000000000
    VV10 Nonlocal Energy =                  0.1653218224454244
    Total Energy =                       -958.3652779141410747

Computation Completed


Properties will be evaluated at   0.000000,   0.000000,   0.000000 [a0]

Properties computed using the SCF density matrix

  Nuclear Dipole Moment: [e a0]
     X:    -0.0000      Y:    -0.0000      Z:    -0.2670

  Electronic Dipole Moment: [e a0]
     X:     0.0000      Y:     0.0000      Z:     0.6956

  Dipole Moment: [e a0]
     X:    -0.0000      Y:    -0.0000      Z:     0.4286     Total:     0.4286

  Dipole Moment: [D]
     X:    -0.0000      Y:    -0.0000      Z:     1.0894     Total:     1.0894


*** tstop() called on bp1-compute00090.data.bp.acrc.priv at Tue Apr 27 17:56:45 2021
Module time:
	user time   =      74.32 seconds =       1.24 minutes
	system time =       2.07 seconds =       0.03 minutes
	total time  =          4 seconds =       0.07 minutes
Total time:
	user time   =     311.11 seconds =       5.19 minutes
	system time =      11.61 seconds =       0.19 minutes
	total time  =         14 seconds =       0.23 minutes

  //>>>>>>>>>>>>>>>>>>>>>>>>>>>>>>>>>>>//
  //    Loading displacement 5 of 5    //
  //<<<<<<<<<<<<<<<<<<<<<<<<<<<<<<<<<<<//

*** tstart() called on bp1-compute00090.data.bp.acrc.priv
*** at Tue Apr 27 17:56:45 2021

   => Loading Basis Set <=

    Name: AUG-CC-PV(D+D)Z
    Role: ORBITAL
    Keyword: BASIS
    atoms 1   entry C          line   198 file /work/zw18965/.conda/envs/p4env/share/psi4/basis/aug-cc-pv_dpd_z.gbs 
    atoms 2-3 entry CL         line   792 file /work/zw18965/.conda/envs/p4env/share/psi4/basis/aug-cc-pv_dpd_z.gbs 


         ---------------------------------------------------------
                                   SCF
               by Justin Turney, Rob Parrish, Andy Simmonett
                          and Daniel G. A. Smith
                              RKS Reference
                       24 Threads, 137329 MiB Core
         ---------------------------------------------------------

  ==> Geometry <==

    Molecular point group: c2v
    Full point group: C2v

    Geometry (in Angstrom), charge = 0, multiplicity = 1:

       Center              X                  Y                   Z               Mass       
    ------------   -----------------  -----------------  -----------------  -----------------
         C           -0.000000000000     0.000000000000    -0.849813461927    12.000000000000
         CL          -0.000000000000     1.400723435995     0.145812069327    34.968852682000
         CL           0.000000000000    -1.400723435995     0.145812069327    34.968852682000

  Running in c2v symmetry.

  Rotational constants: A =      1.66033  B =      0.12285  C =      0.11439 [cm^-1]
  Rotational constants: A =  49775.57916  B =   3682.99416  C =   3429.25664 [MHz]
  Nuclear repulsion =  117.407524784104496

  Charge       = 0
  Multiplicity = 1
  Electrons    = 40
  Nalpha       = 20
  Nbeta        = 20

  ==> Algorithm <==

  SCF Algorithm Type is DF.
  DIIS enabled.
  MOM disabled.
  Fractional occupation disabled.
  Guess Type is SAD.
  Energy threshold   = 1.00e-08
  Density threshold  = 1.00e-08
  Integral threshold = 0.00e+00

  ==> Primary Basis <==

  Basis Set: AUG-CC-PV(D+D)Z
    Blend: AUG-CC-PV(D+D)Z
    Number of shells: 33
    Number of basis function: 87
    Number of Cartesian functions: 95
    Spherical Harmonics?: true
    Max angular momentum: 2

  ==> DFT Potential <==

   => Composite Functional: WB97M-V <= 

    wB97M-V Hyb-GGA Exchange-Correlation Functional

    N. Mardirossian and M. Head-Gordon, J. Chem. Phys. 144, 214110 (2016)

    Deriv               =              1
    GGA                 =           TRUE
    Meta                =           TRUE

    Exchange Hybrid     =           TRUE
    MP2 Hybrid          =          FALSE

   => Exchange-Correlation Functionals <=

    1.0000   wB97M-V exchange-correlation functional

   => Exact (HF) Exchange <=

    0.8500            HF,LR [omega = 0.3000]
    0.1500               HF 

   => VV10 Non-Local Parameters <=

    VV10 B              =     6.0000E+00
    VV10 C              =     1.0000E-02

   => Molecular Quadrature <=

    Radial Scheme          =       TREUTLER
    Pruning Scheme         =           FLAT
    Nuclear Scheme         =       TREUTLER

    BS radius alpha        =              1
    Pruning alpha          =              1
    Radial Points          =             75
    Spherical Points       =            302
    Total Points           =          67538
    Total Blocks           =            600
    Max Points             =            255
    Max Functions          =             87

   => Loading Basis Set <=

    Name: (AUG-CC-PV(D+D)Z AUX)
    Role: JKFIT
    Keyword: DF_BASIS_SCF
    atoms 1   entry C          line   154 file /work/zw18965/.conda/envs/p4env/share/psi4/basis/aug-cc-pvdz-jkfit.gbs 
    atoms 2-3 entry CL         line   772 file /work/zw18965/.conda/envs/p4env/share/psi4/basis/aug-cc-pvdz-jkfit.gbs 

  ==> Pre-Iterations <==

   -------------------------------------------------------
    Irrep   Nso     Nmo     Nalpha   Nbeta   Ndocc  Nsocc
   -------------------------------------------------------
     A1        33      33       0       0       0       0
     A2        12      12       0       0       0       0
     B1        15      15       0       0       0       0
     B2        27      27       0       0       0       0
   -------------------------------------------------------
    Total      87      87      20      20      20       0
   -------------------------------------------------------

  ==> Integral Setup <==

  ==> DiskDFJK: Density-Fitted J/K Matrices <==

    J tasked:                  Yes
    K tasked:                  Yes
    wK tasked:                 Yes
    Omega:               3.000E-01
    OpenMP threads:             24
    Integrals threads:          24
    Memory [MiB]:           102613
    Algorithm:                Core
    Integral Cache:           NONE
    Schwarz Cutoff:          1E-12
    Fitting Condition:       1E-10

   => Auxiliary Basis Set <=

  Basis Set: (AUG-CC-PV(D+D)Z AUX)
    Blend: AUG-CC-PVDZ-JKFIT
    Number of shells: 108
    Number of basis function: 342
    Number of Cartesian functions: 401
    Spherical Harmonics?: true
    Max angular momentum: 3

  Cached 100.0% of DFT collocation blocks in 0.375 [GiB].

  Minimum eigenvalue in the overlap matrix is 1.0419082296E-03.
  Using Symmetric Orthogonalization.

  SCF Guess: Superposition of Atomic Densities via on-the-fly atomic UHF.

  ==> Iterations <==

                           Total Energy        Delta E     RMS |[F,P]|

   @DF-RKS iter SAD:  -958.11198921076243   -9.58112e+02   0.00000e+00 
   @DF-RKS iter   1:  -958.34471607797252   -2.32727e-01   3.47685e-03 DIIS
   @DF-RKS iter   2:  -958.36374516685885   -1.90291e-02   1.02096e-03 DIIS
   @DF-RKS iter   3:  -958.36503415962807   -1.28899e-03   3.42975e-04 DIIS
   @DF-RKS iter   4:  -958.36522022347822   -1.86064e-04   1.77056e-04 DIIS
   @DF-RKS iter   5:  -958.36526778864015   -4.75652e-05   7.18990e-05 DIIS
   @DF-RKS iter   6:  -958.36527654292672   -8.75429e-06   1.70622e-05 DIIS
   @DF-RKS iter   7:  -958.36527730027387   -7.57347e-07   3.63179e-06 DIIS
   @DF-RKS iter   8:  -958.36527736241271   -6.21388e-08   1.18608e-06 DIIS
   @DF-RKS iter   9:  -958.36527736718278   -4.77007e-09   3.73808e-07 DIIS
   @DF-RKS iter  10:  -958.36527736789390   -7.11111e-10   1.15350e-07 DIIS
   @DF-RKS iter  11:  -958.36527736796165   -6.77574e-11   2.18017e-08 DIIS
   @DF-RKS iter  12:  -958.36527736796438   -2.72848e-12   4.29757e-09 DIIS
  Energy and wave function converged.


  ==> Post-Iterations <==

    Orbital Energies [Eh]
    ---------------------

    Doubly Occupied:                                                      

       1B2  -101.933005     1A1  -101.933004     2A1   -10.519972  
       2B2    -9.698631     3A1    -9.698563     3B2    -7.401829  
       4A1    -7.401827     1A2    -7.396343     1B1    -7.396341  
       5A1    -7.393045     4B2    -7.393045     6A1    -1.068858  
       5B2    -0.986612     7A1    -0.727739     6B2    -0.575407  
       8A1    -0.529435     2B1    -0.525700     2A2    -0.452702  
       7B2    -0.432616     9A1    -0.364857  

    Virtual:                                                              

       3B1    -0.043998    10A1     0.040381     8B2     0.050205  
      11A1     0.064994     4B1     0.085767    12A1     0.089981  
       9B2     0.107657     3A2     0.122619    13A1     0.123021  
       5B1     0.131229    10B2     0.145663    14A1     0.164447  
      11B2     0.172438    15A1     0.236194    12B2     0.253036  
       6B1     0.304176    16A1     0.336447     4A2     0.341777  
      17A1     0.387569    13B2     0.388534     5A2     0.448560  
       7B1     0.456138    14B2     0.462667    18A1     0.496306  
      15B2     0.560672     8B1     0.576744    19A1     0.585947  
      16B2     0.630709     6A2     0.637428    20A1     0.657733  
       9B1     0.699885    21A1     0.750533    17B2     0.807731  
      22A1     0.824345     7A2     0.852582    10B1     0.877030  
      18B2     0.910101    23A1     0.978300    19B2     1.073555  
      11B1     1.074356    24A1     1.084829    20B2     1.111638  
      25A1     1.112688     8A2     1.120028    12B1     1.136909  
      26A1     1.153088     9A2     1.155487    21B2     1.180310  
      27A1     1.197542    22B2     1.241200    13B1     1.534817  
      28A1     1.552233    10A2     1.556041    29A1     1.660538  
      23B2     1.773604    24B2     1.921499    30A1     2.120097  
      14B1     5.523978    25B2     5.540449    31A1     5.540460  
      11A2     5.544907    26B2     5.561630    15B1     5.567112  
      12A2     5.585953    32A1     5.620434    33A1     5.635951  
      27B2     5.647444  

    Final Occupation by Irrep:
             A1    A2    B1    B2 
    DOCC [     9,    2,    2,    7 ]

  @DF-RKS Final Energy:  -958.36527736796438

   => Energetics <=

    Nuclear Repulsion Energy =            117.4075247841044956
    One-Electron Energy =               -1554.2081908115435454
    Two-Electron Energy =                 525.7179479848007304
    DFT Exchange-Correlation Energy =     -47.4478836183077846
    Empirical Dispersion Energy =           0.0000000000000000
    VV10 Nonlocal Energy =                  0.1653242929817153
    Total Energy =                       -958.3652773679643815

Computation Completed


Properties will be evaluated at   0.000000,   0.000000,   0.000000 [a0]

Properties computed using the SCF density matrix

  Nuclear Dipole Moment: [e a0]
     X:     0.0000      Y:     0.0000      Z:    -0.2670

  Electronic Dipole Moment: [e a0]
     X:     0.0000      Y:     0.0000      Z:     0.6948

  Dipole Moment: [e a0]
     X:     0.0000      Y:     0.0000      Z:     0.4278     Total:     0.4278

  Dipole Moment: [D]
     X:     0.0000      Y:     0.0000      Z:     1.0874     Total:     1.0874


*** tstop() called on bp1-compute00090.data.bp.acrc.priv at Tue Apr 27 17:56:48 2021
Module time:
	user time   =      73.79 seconds =       1.23 minutes
	system time =       2.27 seconds =       0.04 minutes
	total time  =          3 seconds =       0.05 minutes
Total time:
	user time   =     385.05 seconds =       6.42 minutes
	system time =      13.89 seconds =       0.23 minutes
	total time  =         17 seconds =       0.28 minutes

         ----------------------------------------------------------
                                   FINDIF
                     R. A. King and Jonathon Misiewicz
         ---------------------------------------------------------

  Computing gradient from energies.
    Using 3-point formula.
    Energy without displacement: -958.3652777204
    Check energies below for precision!
    Forces are for mass-weighted, symmetry-adapted cartesians (in au).

     Coord      Energy(-1)        Energy(+1)            Force
        0   -958.3652787632   -958.3652761978      0.0002565346
        1   -958.3652779141   -958.3652773680      0.0000546177


-------------------------------------------------------------
  ## New Matrix (Symmetry 0) ##
  Irrep: 1 Size: 3 x 3

                 1                   2                   3

    1     0.00000000000000     0.00000000000000     0.00082101365592
    2     0.00000000000000     0.00022838046244    -0.00041050682796
    3     0.00000000000000    -0.00022838046244    -0.00041050682796




			-----------------------------------------
			 OPTKING 2.0: for geometry optimizations 
			  - R.A. King,  Bethel University        
			-----------------------------------------
	At level 1: Red. Int., RFO, no backsteps, dynamic trust

	Internal coordinates to be generated automatically.
	Detected frag 1 with atoms:  1 2 3
	---Fragment 1 Bond Connectivity---
	 1 : 2 3
	 2 : 1
	 3 : 1

	---Fragment 1 Geometry and Gradient---
	 C           0.0000000000        0.0000000000       -1.6059147008
	 CL         -0.0000000000        2.6463857911        0.2755448768
	 CL          0.0000000000       -2.6463857911        0.2755448768
	             0.0000000000        0.0000000000        0.0008210137
	             0.0000000000        0.0002283805       -0.0004105068
	             0.0000000000       -0.0002283805       -0.0004105068

	Previous optimization step data not found.  Starting new optimization.

	---Fragment 1 Intrafragment Coordinates---
	 - Coordinate -           - BOHR/RAD -       - ANG/DEG -
	 R(1,2)           =         3.247037	       1.718258
	 R(1,3)           =         3.247037	       1.718258
	 B(2,1,3)         =         1.905512	     109.177818

	Current energy   :      -958.3652777204

	Generating empirical Hessian (Schlegel '84) for each fragment.
	Taking RFO optimization step.
	Going to follow RFO solution 1.
	Using RFO vector 1.
	Norm of target step-size    0.00607
	Projected energy change by RFO approximation:        -0.0000089361

	Back-transformation to cartesian coordinates...
	Successfully converged to displaced geometry.

	--- Internal Coordinate Step in ANG or DEG, aJ/ANG or AJ/DEG ---
	 ---------------------------------------------------------------------------
	   Coordinate                Previous        Force       Change         New 
	   ----------                --------       ------       ------       ------
	    1 R(1,2)          =      1.718258     0.000426     0.000081     1.718339
	    2 R(1,3)          =      1.718258     0.000426     0.000081     1.718339
	    3 B(2,1,3)        =    109.177818    -0.000115    -0.347440   108.830378
	 ---------------------------------------------------------------------------
	Successfully symmetrized geometry.

  ==> Convergence Check <==

  Measures of convergence in internal coordinates in au.
  Criteria marked as inactive (o), active & met (*), and active & unmet ( ).
  --------------------------------------------------------------------------------------------- ~
   Step     Total Energy     Delta E     MAX Force     RMS Force      MAX Disp      RMS Disp    ~
  --------------------------------------------------------------------------------------------- ~
    Convergence Criteria    1.00e-06 *    3.00e-04 *             o    1.20e-03 *             o  ~
  --------------------------------------------------------------------------------------------- ~
      1    -958.36527772   -9.58e+02      1.52e-03      8.76e-04 o    6.06e-03      3.50e-03 o  ~
  ---------------------------------------------------------------------------------------------

	Writing optimization data to binary file.
	Structure for next step:
	Cartesian Geometry (in Angstrom)
	    C     0.0000000000   0.0000000000  -0.8526725152
	   CL    -0.0000000000   1.3974477953   0.1472415970
	   CL     0.0000000000  -1.3974477953   0.1472415970
			--------------------------
			 OPTKING Finished Execution 
			--------------------------

    Structure for next step:
    Molecular point group: c2v
    Full point group: C2v

    Geometry (in Angstrom), charge = 0, multiplicity = 1:

    C           -0.000000000000     0.000000000000    -0.853473971889
    CL          -0.000000000000     1.397447800833     0.146440144259
    CL           0.000000000000    -1.397447800833     0.146440144259

gradient() will perform gradient computation by finite difference of analytic energies.

         ----------------------------------------------------------
                                   FINDIF
                     R. A. King and Jonathon Misiewicz
         ---------------------------------------------------------

  Using finite-differences of energies to determine gradients.
    Generating geometries for use with 3-point formula.
    Displacement size will be 5.00e-03.
    Number of atoms is 3.
    Number of symmetric SALCs is 2.
    Translations projected? 1. Rotations projected? 1.
    Number of geometries (including reference) is 5.

  //>>>>>>>>>>>>>>>>>>>>>>>>>>>>>>>>>>>//
  //    Loading displacement 1 of 5    //
  //<<<<<<<<<<<<<<<<<<<<<<<<<<<<<<<<<<<//

*** tstart() called on bp1-compute00090.data.bp.acrc.priv
*** at Tue Apr 27 17:56:48 2021

   => Loading Basis Set <=

    Name: AUG-CC-PV(D+D)Z
    Role: ORBITAL
    Keyword: BASIS
    atoms 1   entry C          line   198 file /work/zw18965/.conda/envs/p4env/share/psi4/basis/aug-cc-pv_dpd_z.gbs 
    atoms 2-3 entry CL         line   792 file /work/zw18965/.conda/envs/p4env/share/psi4/basis/aug-cc-pv_dpd_z.gbs 


         ---------------------------------------------------------
                                   SCF
               by Justin Turney, Rob Parrish, Andy Simmonett
                          and Daniel G. A. Smith
                              RKS Reference
                       24 Threads, 137329 MiB Core
         ---------------------------------------------------------

  ==> Geometry <==

    Molecular point group: c2v
    Full point group: C2v

    Geometry (in Angstrom), charge = 0, multiplicity = 1:

       Center              X                  Y                   Z               Mass       
    ------------   -----------------  -----------------  -----------------  -----------------
         C           -0.000000000000     0.000000000000    -0.853473971889    12.000000000000
         CL          -0.000000000000     1.397447800833     0.146440144259    34.968852682000
         CL           0.000000000000    -1.397447800833     0.146440144259    34.968852682000

  Running in c2v symmetry.

  Rotational constants: A =      1.64612  B =      0.12343  C =      0.11482 [cm^-1]
  Rotational constants: A =  49349.52452  B =   3700.28036  C =   3442.18187 [MHz]
  Nuclear repulsion =  117.541949891513426

  Charge       = 0
  Multiplicity = 1
  Electrons    = 40
  Nalpha       = 20
  Nbeta        = 20

  ==> Algorithm <==

  SCF Algorithm Type is DF.
  DIIS enabled.
  MOM disabled.
  Fractional occupation disabled.
  Guess Type is READ.
  Energy threshold   = 1.00e-08
  Density threshold  = 1.00e-08
  Integral threshold = 0.00e+00

  ==> Primary Basis <==

  Basis Set: AUG-CC-PV(D+D)Z
    Blend: AUG-CC-PV(D+D)Z
    Number of shells: 33
    Number of basis function: 87
    Number of Cartesian functions: 95
    Spherical Harmonics?: true
    Max angular momentum: 2

  ==> DFT Potential <==

   => Composite Functional: WB97M-V <= 

    wB97M-V Hyb-GGA Exchange-Correlation Functional

    N. Mardirossian and M. Head-Gordon, J. Chem. Phys. 144, 214110 (2016)

    Deriv               =              1
    GGA                 =           TRUE
    Meta                =           TRUE

    Exchange Hybrid     =           TRUE
    MP2 Hybrid          =          FALSE

   => Exchange-Correlation Functionals <=

    1.0000   wB97M-V exchange-correlation functional

   => Exact (HF) Exchange <=

    0.8500            HF,LR [omega = 0.3000]
    0.1500               HF 

   => VV10 Non-Local Parameters <=

    VV10 B              =     6.0000E+00
    VV10 C              =     1.0000E-02

   => Molecular Quadrature <=

    Radial Scheme          =       TREUTLER
    Pruning Scheme         =           FLAT
    Nuclear Scheme         =       TREUTLER

    BS radius alpha        =              1
    Pruning alpha          =              1
    Radial Points          =             75
    Spherical Points       =            302
    Total Points           =          67538
    Total Blocks           =            598
    Max Points             =            256
    Max Functions          =             87

   => Loading Basis Set <=

    Name: (AUG-CC-PV(D+D)Z AUX)
    Role: JKFIT
    Keyword: DF_BASIS_SCF
    atoms 1   entry C          line   154 file /work/zw18965/.conda/envs/p4env/share/psi4/basis/aug-cc-pvdz-jkfit.gbs 
    atoms 2-3 entry CL         line   772 file /work/zw18965/.conda/envs/p4env/share/psi4/basis/aug-cc-pvdz-jkfit.gbs 

   => Loading Basis Set <=

    Name: AUG-CC-PV(D+D)Z
    Role: ORBITAL
    Keyword: BASIS
    atoms 1   entry C          line   198 file /work/zw18965/.conda/envs/p4env/share/psi4/basis/aug-cc-pv_dpd_z.gbs 
    atoms 2-3 entry CL         line   792 file /work/zw18965/.conda/envs/p4env/share/psi4/basis/aug-cc-pv_dpd_z.gbs 

  Reading orbitals from file 180, no projection.

  ==> Pre-Iterations <==

   -------------------------------------------------------
    Irrep   Nso     Nmo     Nalpha   Nbeta   Ndocc  Nsocc
   -------------------------------------------------------
     A1        33      33       0       0       0       0
     A2        12      12       0       0       0       0
     B1        15      15       0       0       0       0
     B2        27      27       0       0       0       0
   -------------------------------------------------------
    Total      87      87      20      20      20       0
   -------------------------------------------------------

  ==> Integral Setup <==

  ==> DiskDFJK: Density-Fitted J/K Matrices <==

    J tasked:                  Yes
    K tasked:                  Yes
    wK tasked:                 Yes
    Omega:               3.000E-01
    OpenMP threads:             24
    Integrals threads:          24
    Memory [MiB]:           102612
    Algorithm:                Core
    Integral Cache:           NONE
    Schwarz Cutoff:          1E-12
    Fitting Condition:       1E-10

   => Auxiliary Basis Set <=

  Basis Set: (AUG-CC-PV(D+D)Z AUX)
    Blend: AUG-CC-PVDZ-JKFIT
    Number of shells: 108
    Number of basis function: 342
    Number of Cartesian functions: 401
    Spherical Harmonics?: true
    Max angular momentum: 3

  Cached 100.0% of DFT collocation blocks in 0.375 [GiB].

  Minimum eigenvalue in the overlap matrix is 1.0404953379E-03.
  Using Symmetric Orthogonalization.

  SCF Guess: Orbitals guess was supplied from a previous computation.

  ==> Iterations <==

                           Total Energy        Delta E     RMS |[F,P]|

   @DF-RKS iter   0:  -958.36537012390374   -9.58365e+02   1.80225e-04 
   @DF-RKS iter   1:  -958.36527800051465    9.21234e-05   3.20111e-05 DIIS
   @DF-RKS iter   2:  -958.36527860552894   -6.05014e-07   3.14610e-05 DIIS
   @DF-RKS iter   3:  -958.36527975668582   -1.15116e-06   4.58457e-06 DIIS
   @DF-RKS iter   4:  -958.36527982200573   -6.53199e-08   2.12576e-06 DIIS
   @DF-RKS iter   5:  -958.36527983311578   -1.11100e-08   3.77512e-07 DIIS
   @DF-RKS iter   6:  -958.36527983384076   -7.24981e-10   1.07302e-07 DIIS
   @DF-RKS iter   7:  -958.36527983391750   -7.67386e-11   3.14794e-08 DIIS
   @DF-RKS iter   8:  -958.36527983392341   -5.91172e-12   1.19250e-08 DIIS
   @DF-RKS iter   9:  -958.36527983392455   -1.13687e-12   2.41271e-09 DIIS
  Energy and wave function converged.


  ==> Post-Iterations <==

    Orbital Energies [Eh]
    ---------------------

    Doubly Occupied:                                                      

       1B2  -101.932879     1A1  -101.932878     2A1   -10.520043  
       2B2    -9.698528     3A1    -9.698460     3B2    -7.401725  
       4A1    -7.401723     1A2    -7.396240     1B1    -7.396237  
       5A1    -7.392938     4B2    -7.392938     6A1    -1.069229  
       5B2    -0.986341     7A1    -0.727772     6B2    -0.575189  
       8A1    -0.529738     2B1    -0.525852     2A2    -0.452536  
       7B2    -0.432063     9A1    -0.365423  

    Virtual:                                                              

       3B1    -0.044037    10A1     0.040447     8B2     0.050217  
      11A1     0.065150     4B1     0.085741    12A1     0.089958  
       9B2     0.107620     3A2     0.122646    13A1     0.122950  
       5B1     0.131151    10B2     0.145429    14A1     0.164669  
      11B2     0.172436    15A1     0.236457    12B2     0.253000  
       6B1     0.304136    16A1     0.336689     4A2     0.341767  
      17A1     0.387074    13B2     0.389007     5A2     0.449393  
       7B1     0.455737    14B2     0.462974    18A1     0.495775  
      15B2     0.560295     8B1     0.576588    19A1     0.585962  
      16B2     0.630937     6A2     0.636857    20A1     0.658525  
       9B1     0.700049    21A1     0.750452    17B2     0.807799  
      22A1     0.823446     7A2     0.852622    10B1     0.876457  
      18B2     0.910897    23A1     0.977314    19B2     1.073753  
      11B1     1.074602    24A1     1.085312    20B2     1.111425  
      25A1     1.111960     8A2     1.120107    12B1     1.136748  
      26A1     1.154523     9A2     1.155732    21B2     1.179676  
      27A1     1.198783    22B2     1.241029    13B1     1.534981  
      28A1     1.552845    10A2     1.555720    29A1     1.659421  
      23B2     1.774885    24B2     1.923106    30A1     2.119314  
      14B1     5.524106    25B2     5.540564    31A1     5.540685  
      11A2     5.545056    26B2     5.561036    15B1     5.567447  
      12A2     5.585773    32A1     5.620575    33A1     5.636857  
      27B2     5.647760  

    Final Occupation by Irrep:
             A1    A2    B1    B2 
    DOCC [     9,    2,    2,    7 ]

  @DF-RKS Final Energy:  -958.36527983392455

   => Energetics <=

    Nuclear Repulsion Energy =            117.5419498915134255
    One-Electron Energy =               -1554.4783669527710117
    Two-Electron Energy =                 525.8541391945651640
    DFT Exchange-Correlation Energy =     -47.4483161857189302
    Empirical Dispersion Energy =           0.0000000000000000
    VV10 Nonlocal Energy =                  0.1653142184867100
    Total Energy =                       -958.3652798339245464

Computation Completed


Properties will be evaluated at   0.000000,   0.000000,   0.000000 [a0]

Properties computed using the SCF density matrix

  Nuclear Dipole Moment: [e a0]
     X:    -0.0000      Y:     0.0000      Z:    -0.2681

  Electronic Dipole Moment: [e a0]
     X:     0.0000      Y:     0.0000      Z:     0.6960

  Dipole Moment: [e a0]
     X:    -0.0000      Y:     0.0000      Z:     0.4279     Total:     0.4279

  Dipole Moment: [D]
     X:    -0.0000      Y:     0.0000      Z:     1.0877     Total:     1.0877


*** tstop() called on bp1-compute00090.data.bp.acrc.priv at Tue Apr 27 17:56:50 2021
Module time:
	user time   =      55.62 seconds =       0.93 minutes
	system time =       1.59 seconds =       0.03 minutes
	total time  =          2 seconds =       0.03 minutes
Total time:
	user time   =     441.05 seconds =       7.35 minutes
	system time =      15.50 seconds =       0.26 minutes
	total time  =         19 seconds =       0.32 minutes

  //>>>>>>>>>>>>>>>>>>>>>>>>>>>>>>>>>>>//
  //    Loading displacement 2 of 5    //
  //<<<<<<<<<<<<<<<<<<<<<<<<<<<<<<<<<<<//

*** tstart() called on bp1-compute00090.data.bp.acrc.priv
*** at Tue Apr 27 17:56:50 2021

   => Loading Basis Set <=

    Name: AUG-CC-PV(D+D)Z
    Role: ORBITAL
    Keyword: BASIS
    atoms 1   entry C          line   198 file /work/zw18965/.conda/envs/p4env/share/psi4/basis/aug-cc-pv_dpd_z.gbs 
    atoms 2-3 entry CL         line   792 file /work/zw18965/.conda/envs/p4env/share/psi4/basis/aug-cc-pv_dpd_z.gbs 


         ---------------------------------------------------------
                                   SCF
               by Justin Turney, Rob Parrish, Andy Simmonett
                          and Daniel G. A. Smith
                              RKS Reference
                       24 Threads, 137329 MiB Core
         ---------------------------------------------------------

  ==> Geometry <==

    Molecular point group: c2v
    Full point group: C2v

    Geometry (in Angstrom), charge = 0, multiplicity = 1:

       Center              X                  Y                   Z               Mass       
    ------------   -----------------  -----------------  -----------------  -----------------
         C           -0.000000000000     0.000000000000    -0.854179629946    12.000000000000
         CL          -0.000000000000     1.397447800833     0.146561221962    34.968852682000
         CL           0.000000000000    -1.397447800833     0.146561221962    34.968852682000

  Running in c2v symmetry.

  Rotational constants: A =      1.64340  B =      0.12343  C =      0.11481 [cm^-1]
  Rotational constants: A =  49268.02058  B =   3700.28036  C =   3441.78473 [MHz]
  Nuclear repulsion =  117.524361288695232

  Charge       = 0
  Multiplicity = 1
  Electrons    = 40
  Nalpha       = 20
  Nbeta        = 20

  ==> Algorithm <==

  SCF Algorithm Type is DF.
  DIIS enabled.
  MOM disabled.
  Fractional occupation disabled.
  Guess Type is READ.
  Energy threshold   = 1.00e-08
  Density threshold  = 1.00e-08
  Integral threshold = 0.00e+00

  ==> Primary Basis <==

  Basis Set: AUG-CC-PV(D+D)Z
    Blend: AUG-CC-PV(D+D)Z
    Number of shells: 33
    Number of basis function: 87
    Number of Cartesian functions: 95
    Spherical Harmonics?: true
    Max angular momentum: 2

  ==> DFT Potential <==

   => Composite Functional: WB97M-V <= 

    wB97M-V Hyb-GGA Exchange-Correlation Functional

    N. Mardirossian and M. Head-Gordon, J. Chem. Phys. 144, 214110 (2016)

    Deriv               =              1
    GGA                 =           TRUE
    Meta                =           TRUE

    Exchange Hybrid     =           TRUE
    MP2 Hybrid          =          FALSE

   => Exchange-Correlation Functionals <=

    1.0000   wB97M-V exchange-correlation functional

   => Exact (HF) Exchange <=

    0.8500            HF,LR [omega = 0.3000]
    0.1500               HF 

   => VV10 Non-Local Parameters <=

    VV10 B              =     6.0000E+00
    VV10 C              =     1.0000E-02

   => Molecular Quadrature <=

    Radial Scheme          =       TREUTLER
    Pruning Scheme         =           FLAT
    Nuclear Scheme         =       TREUTLER

    BS radius alpha        =              1
    Pruning alpha          =              1
    Radial Points          =             75
    Spherical Points       =            302
    Total Points           =          67538
    Total Blocks           =            598
    Max Points             =            256
    Max Functions          =             87

   => Loading Basis Set <=

    Name: (AUG-CC-PV(D+D)Z AUX)
    Role: JKFIT
    Keyword: DF_BASIS_SCF
    atoms 1   entry C          line   154 file /work/zw18965/.conda/envs/p4env/share/psi4/basis/aug-cc-pvdz-jkfit.gbs 
    atoms 2-3 entry CL         line   772 file /work/zw18965/.conda/envs/p4env/share/psi4/basis/aug-cc-pvdz-jkfit.gbs 

   => Loading Basis Set <=

    Name: AUG-CC-PV(D+D)Z
    Role: ORBITAL
    Keyword: BASIS
    atoms 1   entry C          line   198 file /work/zw18965/.conda/envs/p4env/share/psi4/basis/aug-cc-pv_dpd_z.gbs 
    atoms 2-3 entry CL         line   792 file /work/zw18965/.conda/envs/p4env/share/psi4/basis/aug-cc-pv_dpd_z.gbs 

  Reading orbitals from file 180, no projection.

  ==> Pre-Iterations <==

   -------------------------------------------------------
    Irrep   Nso     Nmo     Nalpha   Nbeta   Ndocc  Nsocc
   -------------------------------------------------------
     A1        33      33       0       0       0       0
     A2        12      12       0       0       0       0
     B1        15      15       0       0       0       0
     B2        27      27       0       0       0       0
   -------------------------------------------------------
    Total      87      87      20      20      20       0
   -------------------------------------------------------

  ==> Integral Setup <==

  ==> DiskDFJK: Density-Fitted J/K Matrices <==

    J tasked:                  Yes
    K tasked:                  Yes
    wK tasked:                 Yes
    Omega:               3.000E-01
    OpenMP threads:             24
    Integrals threads:          24
    Memory [MiB]:           102612
    Algorithm:                Core
    Integral Cache:           NONE
    Schwarz Cutoff:          1E-12
    Fitting Condition:       1E-10

   => Auxiliary Basis Set <=

  Basis Set: (AUG-CC-PV(D+D)Z AUX)
    Blend: AUG-CC-PVDZ-JKFIT
    Number of shells: 108
    Number of basis function: 342
    Number of Cartesian functions: 401
    Spherical Harmonics?: true
    Max angular momentum: 3

  Cached 100.0% of DFT collocation blocks in 0.375 [GiB].

  Minimum eigenvalue in the overlap matrix is 1.0419278387E-03.
  Using Symmetric Orthogonalization.

  SCF Guess: Orbitals guess was supplied from a previous computation.

  ==> Iterations <==

                           Total Energy        Delta E     RMS |[F,P]|

   @DF-RKS iter   0:  -958.36464099738032   -9.58365e+02   3.91357e-05 
   @DF-RKS iter   1:  -958.36527951646440   -6.38519e-04   8.01938e-06 DIIS
   @DF-RKS iter   2:  -958.36527955048928   -3.40249e-08   6.83809e-06 DIIS
   @DF-RKS iter   3:  -958.36527960458670   -5.40974e-08   1.42158e-06 DIIS
   @DF-RKS iter   4:  -958.36527960712681   -2.54011e-09   3.78638e-07 DIIS
   @DF-RKS iter   5:  -958.36527960757292   -4.46107e-10   1.00995e-07 DIIS
   @DF-RKS iter   6:  -958.36527960761134   -3.84262e-11   2.58296e-08 DIIS
   @DF-RKS iter   7:  -958.36527960761418   -2.84217e-12   8.08114e-09 DIIS
  Energy and wave function converged.


  ==> Post-Iterations <==

    Orbital Energies [Eh]
    ---------------------

    Doubly Occupied:                                                      

       1B2  -101.932855     1A1  -101.932855     2A1   -10.520212  
       2B2    -9.698498     3A1    -9.698430     3B2    -7.401696  
       4A1    -7.401693     1A2    -7.396210     1B1    -7.396207  
       5A1    -7.392910     4B2    -7.392910     6A1    -1.069101  
       5B2    -0.986244     7A1    -0.727781     6B2    -0.575080  
       8A1    -0.529689     2B1    -0.525768     2A2    -0.452497  
       7B2    -0.432003     9A1    -0.365588  

    Virtual:                                                              

       3B1    -0.044124    10A1     0.040433     8B2     0.050207  
      11A1     0.065090     4B1     0.085744    12A1     0.089951  
       9B2     0.107598     3A2     0.122655    13A1     0.122943  
       5B1     0.131134    10B2     0.145348    14A1     0.164606  
      11B2     0.172306    15A1     0.236472    12B2     0.253002  
       6B1     0.304151    16A1     0.336742     4A2     0.341744  
      17A1     0.386969    13B2     0.389046     5A2     0.449444  
       7B1     0.455606    14B2     0.463012    18A1     0.495685  
      15B2     0.560197     8B1     0.576493    19A1     0.585876  
      16B2     0.630776     6A2     0.636741    20A1     0.658495  
       9B1     0.700066    21A1     0.750423    17B2     0.807904  
      22A1     0.823335     7A2     0.852581    10B1     0.876397  
      18B2     0.910883    23A1     0.977202    19B2     1.073634  
      11B1     1.074632    24A1     1.085439    20B2     1.111413  
      25A1     1.111842     8A2     1.120167    12B1     1.136749  
      26A1     1.154496     9A2     1.155827    21B2     1.179622  
      27A1     1.198858    22B2     1.241054    13B1     1.534869  
      28A1     1.552743    10A2     1.555461    29A1     1.658941  
      23B2     1.774415    24B2     1.923086    30A1     2.119013  
      14B1     5.524124    25B2     5.540600    31A1     5.540709  
      11A2     5.545097    26B2     5.561015    15B1     5.567438  
      12A2     5.585704    32A1     5.620468    33A1     5.636853  
      27B2     5.647775  

    Final Occupation by Irrep:
             A1    A2    B1    B2 
    DOCC [     9,    2,    2,    7 ]

  @DF-RKS Final Energy:  -958.36527960761418

   => Energetics <=

    Nuclear Repulsion Energy =            117.5243612886952320
    One-Electron Energy =               -1554.4443558203772682
    Two-Electron Energy =                 525.8374483417412648
    DFT Exchange-Correlation Energy =     -47.4480481628021167
    Empirical Dispersion Energy =           0.0000000000000000
    VV10 Nonlocal Energy =                  0.1653147451286970
    Total Energy =                       -958.3652796076141840

Computation Completed


Properties will be evaluated at   0.000000,   0.000000,   0.000000 [a0]

Properties computed using the SCF density matrix

[...]

    Final Occupation by Irrep:
             A1    A2    B1    B2 
    DOCC [     9,    2,    2,    7 ]

  @DF-RKS Final Energy:  -958.36528084866825

   => Energetics <=

    Nuclear Repulsion Energy =            117.4823792293222056
    One-Electron Energy =               -1554.3601796198458942
    Two-Electron Energy =                 525.7950831236379372
    DFT Exchange-Correlation Energy =     -47.4478813558815631
    Empirical Dispersion Energy =           0.0000000000000000
    VV10 Nonlocal Energy =                  0.1653177740990031
    Total Energy =                       -958.3652808486682488

Computation Completed


Properties will be evaluated at   0.000000,   0.000000,   0.000000 [a0]

Properties computed using the SCF density matrix

  Nuclear Dipole Moment: [e a0]
     X:    -0.0000      Y:     0.0000      Z:    -0.2680

  Electronic Dipole Moment: [e a0]
     X:     0.0000      Y:     0.0000      Z:     0.6951

  Dipole Moment: [e a0]
     X:    -0.0000      Y:     0.0000      Z:     0.4270     Total:     0.4270

  Dipole Moment: [D]
     X:    -0.0000      Y:     0.0000      Z:     1.0854     Total:     1.0854


*** tstop() called on bp1-compute00090.data.bp.acrc.priv at Tue Apr 27 17:57:51 2021
Module time:
	user time   =      83.38 seconds =       1.39 minutes
	system time =       2.27 seconds =       0.04 minutes
	total time  =          3 seconds =       0.05 minutes
Total time:
	user time   =    1854.86 seconds =      30.91 minutes
	system time =      53.99 seconds =       0.90 minutes
	total time  =         80 seconds =       1.33 minutes

  //>>>>>>>>>>>>>>>>>>>>>>>>>>>>>>>>>>>//
  //    Loading displacement 8 of 8    //
  //<<<<<<<<<<<<<<<<<<<<<<<<<<<<<<<<<<<//

*** tstart() called on bp1-compute00090.data.bp.acrc.priv
*** at Tue Apr 27 17:57:51 2021

   => Loading Basis Set <=

    Name: AUG-CC-PV(D+D)Z
    Role: ORBITAL
    Keyword: BASIS
    atoms 1   entry C          line   198 file /work/zw18965/.conda/envs/p4env/share/psi4/basis/aug-cc-pv_dpd_z.gbs 
    atoms 2-3 entry CL         line   792 file /work/zw18965/.conda/envs/p4env/share/psi4/basis/aug-cc-pv_dpd_z.gbs 


         ---------------------------------------------------------
                                   SCF
               by Justin Turney, Rob Parrish, Andy Simmonett
                          and Daniel G. A. Smith
                              RKS Reference
                       24 Threads, 137329 MiB Core
         ---------------------------------------------------------

  ==> Geometry <==

    Molecular point group: cs
    Full point group: Cs

    Geometry (in Angstrom), charge = 0, multiplicity = 1:

       Center              X                  Y                   Z               Mass       
    ------------   -----------------  -----------------  -----------------  -----------------
         C            0.000000000000    -0.000680699656    -0.852512454863    12.000000000000
         CL           0.000000000000     1.398838674848     0.146358566168    34.968852682000
         CL           0.000000000000    -1.398605084231     0.146191765734    34.968852682000

  Running in cs symmetry.

  Rotational constants: A =      1.64984  B =      0.12320  C =      0.11464 [cm^-1]
  Rotational constants: A =  49460.91410  B =   3693.54212  C =   3436.88907 [MHz]
  Nuclear repulsion =  117.478173771178447

  Charge       = 0
  Multiplicity = 1
  Electrons    = 40
  Nalpha       = 20
  Nbeta        = 20

  ==> Algorithm <==

  SCF Algorithm Type is DF.
  DIIS enabled.
  MOM disabled.
  Fractional occupation disabled.
  Guess Type is SAD.
  Energy threshold   = 1.00e-10
  Density threshold  = 1.00e-10
  Integral threshold = 0.00e+00

  ==> Primary Basis <==

  Basis Set: AUG-CC-PV(D+D)Z
    Blend: AUG-CC-PV(D+D)Z
    Number of shells: 33
    Number of basis function: 87
    Number of Cartesian functions: 95
    Spherical Harmonics?: true
    Max angular momentum: 2

  ==> DFT Potential <==

   => Composite Functional: WB97M-V <= 

    wB97M-V Hyb-GGA Exchange-Correlation Functional

    N. Mardirossian and M. Head-Gordon, J. Chem. Phys. 144, 214110 (2016)

    Deriv               =              1
    GGA                 =           TRUE
    Meta                =           TRUE

    Exchange Hybrid     =           TRUE
    MP2 Hybrid          =          FALSE

   => Exchange-Correlation Functionals <=

    1.0000   wB97M-V exchange-correlation functional

   => Exact (HF) Exchange <=

    0.8500            HF,LR [omega = 0.3000]
    0.1500               HF 

   => VV10 Non-Local Parameters <=

    VV10 B              =     6.0000E+00
    VV10 C              =     1.0000E-02

   => Molecular Quadrature <=

    Radial Scheme          =       TREUTLER
    Pruning Scheme         =           FLAT
    Nuclear Scheme         =       TREUTLER

    BS radius alpha        =              1
    Pruning alpha          =              1
    Radial Points          =             75
    Spherical Points       =            302
    Total Points           =          67538
    Total Blocks           =            600
    Max Points             =            255
    Max Functions          =             87

   => Loading Basis Set <=

    Name: (AUG-CC-PV(D+D)Z AUX)
    Role: JKFIT
    Keyword: DF_BASIS_SCF
    atoms 1   entry C          line   154 file /work/zw18965/.conda/envs/p4env/share/psi4/basis/aug-cc-pvdz-jkfit.gbs 
    atoms 2-3 entry CL         line   772 file /work/zw18965/.conda/envs/p4env/share/psi4/basis/aug-cc-pvdz-jkfit.gbs 

  ==> Pre-Iterations <==

   -------------------------------------------------------
    Irrep   Nso     Nmo     Nalpha   Nbeta   Ndocc  Nsocc
   -------------------------------------------------------
     A'        60      60       0       0       0       0
     A"        27      27       0       0       0       0
   -------------------------------------------------------
    Total      87      87      20      20      20       0
   -------------------------------------------------------

  ==> Integral Setup <==

  ==> DiskDFJK: Density-Fitted J/K Matrices <==

    J tasked:                  Yes
    K tasked:                  Yes
    wK tasked:                 Yes
    Omega:               3.000E-01
    OpenMP threads:             24
    Integrals threads:          24
    Memory [MiB]:           102613
    Algorithm:                Core
    Integral Cache:           NONE
    Schwarz Cutoff:          1E-12
    Fitting Condition:       1E-10

   => Auxiliary Basis Set <=

  Basis Set: (AUG-CC-PV(D+D)Z AUX)
    Blend: AUG-CC-PVDZ-JKFIT
    Number of shells: 108
    Number of basis function: 342
    Number of Cartesian functions: 401
    Spherical Harmonics?: true
    Max angular momentum: 3

  Cached 100.0% of DFT collocation blocks in 0.375 [GiB].

  Minimum eigenvalue in the overlap matrix is 1.0419571715E-03.
  Using Symmetric Orthogonalization.

  SCF Guess: Superposition of Atomic Densities via on-the-fly atomic UHF.

  ==> Iterations <==

                           Total Energy        Delta E     RMS |[F,P]|

   @DF-RKS iter SAD:  -958.11218641980383   -9.58112e+02   0.00000e+00 
   @DF-RKS iter   1:  -958.34476610946683   -2.32580e-01   2.46949e-03 DIIS
   @DF-RKS iter   2:  -958.36376166206412   -1.89956e-02   7.22862e-04 DIIS
   @DF-RKS iter   3:  -958.36504304812991   -1.28139e-03   2.39719e-04 DIIS
   @DF-RKS iter   4:  -958.36522617091157   -1.83123e-04   1.21721e-04 DIIS
   @DF-RKS iter   5:  -958.36527120188362   -4.50310e-05   5.11831e-05 DIIS
   @DF-RKS iter   6:  -958.36527984634449   -8.64446e-06   1.22635e-05 DIIS
   @DF-RKS iter   7:  -958.36528060888122   -7.62537e-07   2.59183e-06 DIIS
   @DF-RKS iter   8:  -958.36528067153267   -6.26515e-08   8.61069e-07 DIIS
   @DF-RKS iter   9:  -958.36528067637892   -4.84624e-09   2.83267e-07 DIIS
   @DF-RKS iter  10:  -958.36528067712197   -7.43057e-10   1.01899e-07 DIIS
   @DF-RKS iter  11:  -958.36528067719541   -7.34417e-11   4.42164e-08 DIIS
   @DF-RKS iter  12:  -958.36528067720860   -1.31877e-11   1.00000e-08 DIIS
   @DF-RKS iter  13:  -958.36528067720872   -1.13687e-13   2.01964e-09 DIIS
   @DF-RKS iter  14:  -958.36528067720883   -1.13687e-13   5.74850e-10 DIIS
   @DF-RKS iter  15:  -958.36528067720928   -4.54747e-13   6.51272e-11 DIIS
  Energy and wave function converged.


  ==> Post-Iterations <==

    Orbital Energies [Eh]
    ---------------------

    Doubly Occupied:                                                      

       1Ap  -101.933052     2Ap  -101.932773     3Ap   -10.520125  
       4Ap    -9.698667     5Ap    -9.698362     6Ap    -7.401892  
       7Ap    -7.401599     1App   -7.396410     2App   -7.396108  
       8Ap    -7.393108     9Ap    -7.392815    10Ap    -1.069002  
      11Ap    -0.986383    12Ap    -0.727765    13Ap    -0.575203  
      14Ap    -0.529588     3App   -0.525739     4App   -0.452575  
      15Ap    -0.432240    16Ap    -0.365311  

    Virtual:                                                              

       5App   -0.044078    17Ap     0.040413    18Ap     0.050205  
      19Ap     0.065051     6App    0.085753    20Ap     0.089962  
      21Ap     0.107620     7App    0.122641    22Ap     0.122973  
       8App    0.131170    23Ap     0.145468    24Ap     0.164542  
      25Ap     0.172353    26Ap     0.236364    27Ap     0.253015  
       9App    0.304161    28Ap     0.336629    10App    0.341756  
      29Ap     0.387197    30Ap     0.388848    11App    0.449102  
      12App    0.455808    31Ap     0.462880    32Ap     0.495922  
      33Ap     0.560376    13App    0.576587    34Ap     0.585901  
      35Ap     0.630742    14App    0.637003    36Ap     0.658202  
      15App    0.699997    37Ap     0.750470    38Ap     0.807839  
      39Ap     0.823717    16App    0.852579    17App    0.876641  
      40Ap     0.910579    41Ap     0.977621    42Ap     1.073597  
      18App    1.074523    43Ap     1.085202    44Ap     1.111468  
      45Ap     1.112193    19App    1.120114    20App    1.136811  
      46Ap     1.153952    21App    1.155700    47Ap     1.179886  
      48Ap     1.198348    49Ap     1.241115    22App    1.534843  
      50Ap     1.552540    23App    1.555678    51Ap     1.659543  
      52Ap     1.774084    53Ap     1.922467    54Ap     2.119421  
      24App    5.524066    55Ap     5.540438    56Ap     5.540717  
      25App    5.545026    57Ap     5.561252    26App    5.567310  
      27App    5.585798    58Ap     5.620456    59Ap     5.636497  
      60Ap     5.647647  

    Final Occupation by Irrep:
             Ap   App 
    DOCC [    16,    4 ]

  @DF-RKS Final Energy:  -958.36528067720928

   => Energetics <=

    Nuclear Repulsion Energy =            117.4781737711784473
    One-Electron Energy =               -1554.3510570073162853
    Two-Electron Energy =                 525.7902576175144986
    DFT Exchange-Correlation Energy =     -47.4479735441306616
    Empirical Dispersion Energy =           0.0000000000000000
    VV10 Nonlocal Energy =                  0.1653184855445193
    Total Energy =                       -958.3652806772095119

Computation Completed


Properties will be evaluated at   0.000000,   0.000000,   0.000000 [a0]

Properties computed using the SCF density matrix

  Nuclear Dipole Moment: [e a0]
     X:     0.0000      Y:    -0.0002      Z:    -0.2678

  Electronic Dipole Moment: [e a0]
     X:     0.0000      Y:    -0.0029      Z:     0.6952

  Dipole Moment: [e a0]
     X:     0.0000      Y:    -0.0031      Z:     0.4274     Total:     0.4274

  Dipole Moment: [D]
     X:     0.0000      Y:    -0.0080      Z:     1.0863     Total:     1.0864


*** tstop() called on bp1-compute00090.data.bp.acrc.priv at Tue Apr 27 17:57:55 2021
Module time:
	user time   =      83.71 seconds =       1.40 minutes
	system time =       2.09 seconds =       0.03 minutes
	total time  =          4 seconds =       0.07 minutes
Total time:
	user time   =    1938.71 seconds =      32.31 minutes
	system time =      56.08 seconds =       0.93 minutes
	total time  =         84 seconds =       1.40 minutes

         ----------------------------------------------------------
                                   FINDIF
                     R. A. King and Jonathon Misiewicz
         ---------------------------------------------------------

  Computing second-derivative from energies using projected, 
  symmetry-adapted, cartesian coordinates.

  8 energies passed in, including the reference geometry.
    Using 3-point formula.
    Energy without displacement: -958.3652809735
    Check energies below for precision!
    0: -1        :      -958.3652808733
    0: 1         :      -958.3652805892
    1: -1        :      -958.3652808171
    1: 1         :      -958.3652809660
    0: 1, 1: 1   :      -958.3652807166
    0: -1, 1: -1 :      -958.3652808487
    2: -1        :      -958.3652806772

-------------------------------------------------------------


  ==> Harmonic Vibrational Analysis <==

  non-mass-weighted Hessian:       Symmetric? True   Hermitian? True   Lin Dep Dim?  6 (0)
  projection of translations (True) and rotations (True) removed 6 degrees of freedom (6)
  total projector:                 Symmetric? True   Hermitian? True   Lin Dep Dim?  6 (6)
  mass-weighted Hessian:           Symmetric? True   Hermitian? True   Lin Dep Dim?  6 (0)
  pre-proj  low-frequency mode:    0.0000i [cm^-1]
  pre-proj  low-frequency mode:    0.0000i [cm^-1]
  pre-proj  low-frequency mode:    0.0000  [cm^-1]
  pre-proj  low-frequency mode:    0.0000  [cm^-1]
  pre-proj  low-frequency mode:    0.0000  [cm^-1]
  pre-proj  low-frequency mode:    0.0000  [cm^-1]
  pre-proj  all modes:['0.0000i' '0.0000i' '0.0000' '0.0000' '0.0000' '0.0000' '349.7498'
 '750.3945' '791.4464']
  projected mass-weighted Hessian: Symmetric? True   Hermitian? True   Lin Dep Dim?  6 (6)
  post-proj low-frequency mode:    0.0000i [cm^-1] (TR)
  post-proj low-frequency mode:    0.0000i [cm^-1] (TR)
  post-proj low-frequency mode:    0.0000i [cm^-1] (TR)
  post-proj low-frequency mode:    0.0000i [cm^-1] (TR)
  post-proj low-frequency mode:    0.0000  [cm^-1] (TR)
  post-proj low-frequency mode:    0.0000  [cm^-1] (TR)
  post-proj  all modes:['0.0000i' '0.0000i' '0.0000i' '0.0000i' '0.0000' '0.0000' '349.7498'
 '750.3945' '791.4464']

  Vibration                       7                   8                   9           
  Freq [cm^-1]                 349.7498            750.3945            791.4464       
  Irrep                           A1                  A1                  B2          
  Reduced mass [u]             29.4139             14.3028             13.8753        
  Force const [mDyne/A]         2.1199              4.7452              5.1208        
  Turning point v=0 [a0]        0.1082              0.1059              0.1047        
  RMS dev v=0 [a0 u^1/2]        0.4149              0.2832              0.2758        
  Char temp [K]                503.2120           1079.6506           1138.7151       
  ----------------------------------------------------------------------------------
      1   C                0.00 -0.00  0.49   -0.00  0.00  0.95   -0.00  0.96 -0.00   
      2   CL              -0.00  0.61 -0.08    0.00 -0.15 -0.16    0.00 -0.16 -0.12   
      3   CL               0.00 -0.61 -0.08   -0.00  0.15 -0.16   -0.00 -0.16  0.12   

  ==> Thermochemistry Components <==

  Entropy, S
    Electronic S            0.000 [cal/(mol K)]        0.000 [J/(mol K)]       0.00000000 [mEh/K] (multiplicity = 1)
    Translational S        39.124 [cal/(mol K)]      163.696 [J/(mol K)]       0.06234835 [mEh/K] (mol. weight = 81.9377 [u], P = 101325.00 [Pa])
    Rotational S           22.375 [cal/(mol K)]       93.617 [J/(mol K)]       0.03565674 [mEh/K] (symmetry no. = 2)
    Vibrational S           1.633 [cal/(mol K)]        6.834 [J/(mol K)]       0.00260294 [mEh/K]
  Total S                  63.132 [cal/(mol K)]      264.146 [J/(mol K)]       0.10060804 [mEh/K]
  Correction S              0.000 [cal/(mol K)]        0.000 [J/(mol K)]       0.00000000 [mEh/K]

  Constant volume heat capacity, Cv
    Electronic Cv           0.000 [cal/(mol K)]        0.000 [J/(mol K)]       0.00000000 [mEh/K]
    Translational Cv        2.981 [cal/(mol K)]       12.472 [J/(mol K)]       0.00475022 [mEh/K]
    Rotational Cv           2.981 [cal/(mol K)]       12.472 [J/(mol K)]       0.00475022 [mEh/K]
    Vibrational Cv          2.977 [cal/(mol K)]       12.454 [J/(mol K)]       0.00474358 [mEh/K]
  Total Cv                  8.938 [cal/(mol K)]       37.398 [J/(mol K)]       0.01424401 [mEh/K]
  Correction Cv             0.000 [cal/(mol K)]        0.000 [J/(mol K)]       0.00000000 [mEh/K]

  Constant pressure heat capacity, Cp
    Electronic Cp           0.000 [cal/(mol K)]        0.000 [J/(mol K)]       0.00000000 [mEh/K]
    Translational Cp        4.968 [cal/(mol K)]       20.786 [J/(mol K)]       0.00791703 [mEh/K]
    Rotational Cp           2.981 [cal/(mol K)]       12.472 [J/(mol K)]       0.00475022 [mEh/K]
    Vibrational Cp          2.977 [cal/(mol K)]       12.454 [J/(mol K)]       0.00474358 [mEh/K]
  Total Cp                 10.925 [cal/(mol K)]       45.712 [J/(mol K)]       0.01741082 [mEh/K]
  Correction Cp             0.000 [cal/(mol K)]        0.000 [J/(mol K)]       0.00000000 [mEh/K]

  ==> Thermochemistry Energy Analysis <==

  Raw electronic energy, E0
  Total E0, Electronic energy at well bottom at 0 [K]                 -958.36528097 [Eh]

  Zero-point energy, ZPE_vib = Sum_i nu_i / 2
    Electronic ZPE          0.000 [kcal/mol]        0.000 [kJ/mol]       0.00000000 [Eh]
    Translational ZPE       0.000 [kcal/mol]        0.000 [kJ/mol]       0.00000000 [Eh]
    Rotational ZPE          0.000 [kcal/mol]        0.000 [kJ/mol]       0.00000000 [Eh]
    Vibrational ZPE         2.704 [kcal/mol]       11.314 [kJ/mol]       0.00430936 [Eh]         945.795 [cm^-1]
  Correction ZPE            2.704 [kcal/mol]       11.314 [kJ/mol]       0.00430936 [Eh]         945.795 [cm^-1]
  Total ZPE, Electronic energy at 0 [K]                               -958.36097161 [Eh]

  Thermal Energy, E (includes ZPE)
    Electronic E            0.000 [kcal/mol]        0.000 [kJ/mol]       0.00000000 [Eh]
    Translational E         0.889 [kcal/mol]        3.718 [kJ/mol]       0.00141628 [Eh]
    Rotational E            0.889 [kcal/mol]        3.718 [kJ/mol]       0.00141628 [Eh]
    Vibrational E           3.041 [kcal/mol]       12.723 [kJ/mol]       0.00484581 [Eh]
  Correction E              4.818 [kcal/mol]       20.160 [kJ/mol]       0.00767836 [Eh]
  Total E, Electronic energy at  298.15 [K]                           -958.35760261 [Eh]

  Enthalpy, H_trans = E_trans + k_B * T
    Electronic H            0.000 [kcal/mol]        0.000 [kJ/mol]       0.00000000 [Eh]
    Translational H         1.481 [kcal/mol]        6.197 [kJ/mol]       0.00236046 [Eh]
    Rotational H            0.889 [kcal/mol]        3.718 [kJ/mol]       0.00141628 [Eh]
    Vibrational H           3.041 [kcal/mol]       12.723 [kJ/mol]       0.00484581 [Eh]
  Correction H              5.411 [kcal/mol]       22.638 [kJ/mol]       0.00862255 [Eh]
  Total H, Enthalpy at  298.15 [K]                                    -958.35665843 [Eh]

  Gibbs free energy, G = H - T * S
    Electronic G            0.000 [kcal/mol]        0.000 [kJ/mol]       0.00000000 [Eh]
    Translational G       -10.184 [kcal/mol]      -42.608 [kJ/mol]      -0.01622870 [Eh]
    Rotational G           -5.782 [kcal/mol]      -24.193 [kJ/mol]      -0.00921478 [Eh]
    Vibrational G           2.554 [kcal/mol]       10.685 [kJ/mol]       0.00406974 [Eh]
  Correction G            -13.412 [kcal/mol]      -56.117 [kJ/mol]      -0.02137374 [Eh]
  Total G, Free enthalpy at  298.15 [K]                               -958.38665471 [Eh]

    Psi4 stopped on: Tuesday, 27 April 2021 05:57PM
    Psi4 wall time for execution: 0:01:24.70

*** Psi4 exiting successfully. Buy a developer a beer!
