
    -----------------------------------------------------------------------
          Psi4: An Open-Source Ab Initio Electronic Structure Package
                               Psi4 1.3.2 release

                         Git: Rev {HEAD} ecbda83 


    R. M. Parrish, L. A. Burns, D. G. A. Smith, A. C. Simmonett,
    A. E. DePrince III, E. G. Hohenstein, U. Bozkaya, A. Yu. Sokolov,
    R. Di Remigio, R. M. Richard, J. F. Gonthier, A. M. James,
    H. R. McAlexander, A. Kumar, M. Saitow, X. Wang, B. P. Pritchard,
    P. Verma, H. F. Schaefer III, K. Patkowski, R. A. King, E. F. Valeev,
    F. A. Evangelista, J. M. Turney, T. D. Crawford, and C. D. Sherrill,
    J. Chem. Theory Comput. 13(7) pp 3185--3197 (2017).
    (doi: 10.1021/acs.jctc.7b00174)


                         Additional Contributions by
    P. Kraus, H. Kruse, M. H. Lechner, M. C. Schieber, R. A. Shaw,
    A. Alenaizan, R. Galvelis, Z. L. Glick, S. Lehtola, and J. P. Misiewicz

    -----------------------------------------------------------------------


    Psi4 started on: Tuesday, 27 April 2021 05:56PM

    Process ID: 189534
    Host:       bp1-compute00107.data.bp.acrc.priv
    PSIDATADIR: /work/zw18965/.conda/envs/p4env/share/psi4
    Memory:     500.0 MiB
    Threads:    24
    
  ==> Input File <==

--------------------------------------------------------------------------
memory 144 GB

molecule {
0 1
Cl 0.0000000000 0.0000000000 0.0000000000
Cl 0.0000000000 0.0000000000 1.9965761200
}

set dynamic_level 1
set basis aug-cc-pV(D+d)Z
 
optimize("wB97M-V")
frequencies("wB97M-V")
--------------------------------------------------------------------------

  Memory set to 134.110 GiB by Python driver.
gradient() will perform gradient computation by finite difference of analytic energies.

         ----------------------------------------------------------
                                   FINDIF
                     R. A. King and Jonathon Misiewicz
         ---------------------------------------------------------

  Using finite-differences of energies to determine gradients.
    Generating geometries for use with 3-point formula.
    Displacement size will be 5.00e-03.
    Number of atoms is 2.
    Number of symmetric SALCs is 1.
    Translations projected? 1. Rotations projected? 1.
    Number of geometries (including reference) is 3.

  //>>>>>>>>>>>>>>>>>>>>>>>>>>>>>>>>>>>//
  //    Loading displacement 1 of 3    //
  //<<<<<<<<<<<<<<<<<<<<<<<<<<<<<<<<<<<//

*** tstart() called on bp1-compute00107.data.bp.acrc.priv
*** at Tue Apr 27 17:56:07 2021

   => Loading Basis Set <=

    Name: AUG-CC-PV(D+D)Z
    Role: ORBITAL
    Keyword: BASIS
    atoms 1-2 entry CL         line   792 file /work/zw18965/.conda/envs/p4env/share/psi4/basis/aug-cc-pv_dpd_z.gbs 


         ---------------------------------------------------------
                                   SCF
               by Justin Turney, Rob Parrish, Andy Simmonett
                          and Daniel G. A. Smith
                              RKS Reference
                       24 Threads, 137329 MiB Core
         ---------------------------------------------------------

  ==> Geometry <==

    Molecular point group: d2h
    Full point group: D_inf_h

    Geometry (in Angstrom), charge = 0, multiplicity = 1:

       Center              X                  Y                   Z               Mass       
    ------------   -----------------  -----------------  -----------------  -----------------
         CL           0.000000000000     0.000000000000    -0.998288060000    34.968852682000
         CL           0.000000000000     0.000000000000     0.998288060000    34.968852682000

  Running in d2h symmetry.

  Rotational constants: A = ************  B =      0.24187  C =      0.24187 [cm^-1]
  Rotational constants: A = ************  B =   7250.93591  C =   7250.93591 [MHz]
  Nuclear repulsion =   76.597236815408763

  Charge       = 0
  Multiplicity = 1
  Electrons    = 34
  Nalpha       = 17
  Nbeta        = 17

  ==> Algorithm <==

  SCF Algorithm Type is DF.
  DIIS enabled.
  MOM disabled.
  Fractional occupation disabled.
  Guess Type is SAD.
  Energy threshold   = 1.00e-08
  Density threshold  = 1.00e-08
  Integral threshold = 0.00e+00

  ==> Primary Basis <==

  Basis Set: AUG-CC-PV(D+D)Z
    Blend: AUG-CC-PV(D+D)Z
    Number of shells: 24
    Number of basis function: 64
    Number of Cartesian functions: 70
    Spherical Harmonics?: true
    Max angular momentum: 2

  ==> DFT Potential <==

   => Composite Functional: WB97M-V <= 

    wB97M-V Hyb-GGA Exchange-Correlation Functional

    N. Mardirossian and M. Head-Gordon, J. Chem. Phys. 144, 214110 (2016)

    Deriv               =              1
    GGA                 =           TRUE
    Meta                =           TRUE

    Exchange Hybrid     =           TRUE
    MP2 Hybrid          =          FALSE

   => Exchange-Correlation Functionals <=

    1.0000   wB97M-V exchange-correlation functional

   => Exact (HF) Exchange <=

    0.8500            HF,LR [omega = 0.3000]
    0.1500               HF 

   => VV10 Non-Local Parameters <=

    VV10 B              =     6.0000E+00
    VV10 C              =     1.0000E-02

   => Molecular Quadrature <=

    Radial Scheme          =       TREUTLER
    Pruning Scheme         =           FLAT
    Nuclear Scheme         =       TREUTLER

    BS radius alpha        =              1
    Pruning alpha          =              1
    Radial Points          =             75
    Spherical Points       =            302
    Total Points           =          44714
    Total Blocks           =            424
    Max Points             =            255
    Max Functions          =             64

   => Loading Basis Set <=

    Name: (AUG-CC-PV(D+D)Z AUX)
    Role: JKFIT
    Keyword: DF_BASIS_SCF
    atoms 1-2 entry CL         line   772 file /work/zw18965/.conda/envs/p4env/share/psi4/basis/aug-cc-pvdz-jkfit.gbs 

  ==> Pre-Iterations <==

   -------------------------------------------------------
    Irrep   Nso     Nmo     Nalpha   Nbeta   Ndocc  Nsocc
   -------------------------------------------------------
     Ag        15      15       0       0       0       0
     B1g        3       3       0       0       0       0
     B2g        7       7       0       0       0       0
     B3g        7       7       0       0       0       0
     Au         3       3       0       0       0       0
     B1u       15      15       0       0       0       0
     B2u        7       7       0       0       0       0
     B3u        7       7       0       0       0       0
   -------------------------------------------------------
    Total      64      64      17      17      17       0
   -------------------------------------------------------

  ==> Integral Setup <==

  ==> DiskDFJK: Density-Fitted J/K Matrices <==

    J tasked:                  Yes
    K tasked:                  Yes
    wK tasked:                 Yes
    Omega:               3.000E-01
    OpenMP threads:             24
    Integrals threads:          24
    Memory [MiB]:           102810
    Algorithm:                Core
    Integral Cache:           NONE
    Schwarz Cutoff:          1E-12
    Fitting Condition:       1E-10

   => Auxiliary Basis Set <=

  Basis Set: (AUG-CC-PV(D+D)Z AUX)
    Blend: AUG-CC-PVDZ-JKFIT
    Number of shells: 80
    Number of basis function: 256
    Number of Cartesian functions: 300
    Spherical Harmonics?: true
    Max angular momentum: 3

  Cached 100.0% of DFT collocation blocks in 0.182 [GiB].

  Minimum eigenvalue in the overlap matrix is 3.0418971277E-03.
  Using Symmetric Orthogonalization.

  SCF Guess: Superposition of Atomic Densities via on-the-fly atomic UHF.

  ==> Iterations <==

                           Total Energy        Delta E     RMS |[F,P]|

   @DF-RKS iter SAD:  -920.23638668592832   -9.20236e+02   0.00000e+00 
   @DF-RKS iter   1:  -920.31893358070568   -8.25469e-02   6.60899e-03 DIIS
   @DF-RKS iter   2:  -920.32956512698956   -1.06315e-02   4.01951e-03 DIIS
   @DF-RKS iter   3:  -920.33287159363783   -3.30647e-03   3.69353e-04 DIIS
   @DF-RKS iter   4:  -920.33294688928720   -7.52956e-05   1.30003e-04 DIIS
   @DF-RKS iter   5:  -920.33295553565688   -8.64637e-06   2.14584e-05 DIIS
   @DF-RKS iter   6:  -920.33295589111174   -3.55455e-07   2.33152e-06 DIIS
   @DF-RKS iter   7:  -920.33295589441934   -3.30760e-09   2.06471e-07 DIIS
   @DF-RKS iter   8:  -920.33295589444663   -2.72848e-11   2.92971e-08 DIIS
   @DF-RKS iter   9:  -920.33295589444731   -6.82121e-13   1.79749e-09 DIIS
  Energy and wave function converged.


  ==> Post-Iterations <==

    Orbital Energies [Eh]
    ---------------------

    Doubly Occupied:                                                      

       1B1u -101.941812     1Ag  -101.941811     2B1u   -9.704776  
       2Ag    -9.704711     3Ag    -7.412734     3B1u   -7.412607  
       1B2g   -7.398671     1B3g   -7.398671     1B3u   -7.398669  
       1B2u   -7.398669     4Ag    -1.065054     4B1u   -0.893200  
       5Ag    -0.570514     2B2u   -0.517075     2B3u   -0.517075  
       2B3g   -0.406445     2B2g   -0.406445  

    Virtual:                                                              

       5B1u   -0.042185     6B1u    0.079842     6Ag     0.090360  
       3B2u    0.100706     3B3u    0.100706     7Ag     0.117935  
       3B2g    0.132278     3B3g    0.132278     7B1u    0.259662  
       4B3u    0.306057     4B2u    0.306057     8Ag     0.318704  
       1B1g    0.318707     9Ag     0.419403     8B1u    0.442048  
       1Au     0.442053     4B2g    0.573912     4B3g    0.573912  
       9B1u    0.598894     5B3u    0.754762     5B2u    0.754762  
      10B1u    0.840652     5B2g    0.864379     5B3g    0.864379  
      10Ag     0.885406    11Ag     0.991420     2B1g    1.070936  
      12Ag     1.070959     6B3u    1.091637     6B2u    1.091637  
       2Au     1.121690    11B1u    1.121711    13Ag     1.150633  
       6B2g    1.168034     6B3g    1.168034    12B1u    1.223123  
      13B1u    1.676489    14Ag     5.416103     7B3u    5.470816  
       7B2u    5.470816     3B1g    5.513320    15Ag     5.513354  
       3Au     5.542117    14B1u    5.542151     7B2g    5.593828  
       7B3g    5.593828    15B1u    5.724427  

    Final Occupation by Irrep:
             Ag   B1g   B2g   B3g    Au   B1u   B2u   B3u 
    DOCC [     5,    0,    2,    2,    0,    4,    2,    2 ]

  @DF-RKS Final Energy:  -920.33295589444731

   => Energetics <=

    Nuclear Repulsion Energy =             76.5972368154087633
    One-Electron Energy =               -1422.3863967576730829
    Two-Electron Energy =                 468.9714274906327773
    DFT Exchange-Correlation Energy =     -43.6575476390105237
    Empirical Dispersion Energy =           0.0000000000000000
    VV10 Nonlocal Energy =                  0.1423241961948996
    Total Energy =                       -920.3329558944473092

Computation Completed


Properties will be evaluated at   0.000000,   0.000000,   0.000000 [a0]

Properties computed using the SCF density matrix

  Nuclear Dipole Moment: [e a0]
     X:     0.0000      Y:     0.0000      Z:     0.0000

  Electronic Dipole Moment: [e a0]
     X:     0.0000      Y:     0.0000      Z:     0.0000

  Dipole Moment: [e a0]
     X:     0.0000      Y:     0.0000      Z:     0.0000     Total:     0.0000

  Dipole Moment: [D]
     X:     0.0000      Y:     0.0000      Z:     0.0000     Total:     0.0000


*** tstop() called on bp1-compute00107.data.bp.acrc.priv at Tue Apr 27 17:56:10 2021
Module time:
	user time   =      48.72 seconds =       0.81 minutes
	system time =       2.05 seconds =       0.03 minutes
	total time  =          3 seconds =       0.05 minutes
Total time:
	user time   =      48.72 seconds =       0.81 minutes
	system time =       2.05 seconds =       0.03 minutes
	total time  =          3 seconds =       0.05 minutes

  //>>>>>>>>>>>>>>>>>>>>>>>>>>>>>>>>>>>//
  //    Loading displacement 2 of 3    //
  //<<<<<<<<<<<<<<<<<<<<<<<<<<<<<<<<<<<//

*** tstart() called on bp1-compute00107.data.bp.acrc.priv
*** at Tue Apr 27 17:56:10 2021

   => Loading Basis Set <=

    Name: AUG-CC-PV(D+D)Z
    Role: ORBITAL
    Keyword: BASIS
    atoms 1-2 entry CL         line   792 file /work/zw18965/.conda/envs/p4env/share/psi4/basis/aug-cc-pv_dpd_z.gbs 


         ---------------------------------------------------------
                                   SCF
               by Justin Turney, Rob Parrish, Andy Simmonett
                          and Daniel G. A. Smith
                              RKS Reference
                       24 Threads, 137329 MiB Core
         ---------------------------------------------------------

  ==> Geometry <==

    Molecular point group: d2h
    Full point group: D_inf_h

    Geometry (in Angstrom), charge = 0, multiplicity = 1:

       Center              X                  Y                   Z               Mass       
    ------------   -----------------  -----------------  -----------------  -----------------
         CL           0.000000000000     0.000000000000    -0.998604444681    34.968852682000
         CL           0.000000000000     0.000000000000     0.998604444681    34.968852682000

  Running in d2h symmetry.

  Rotational constants: A = ************  B =      0.24171  C =      0.24171 [cm^-1]
  Rotational constants: A = ************  B =   7246.34206  C =   7246.34206 [MHz]
  Nuclear repulsion =   76.572968755638541

  Charge       = 0
  Multiplicity = 1
  Electrons    = 34
  Nalpha       = 17
  Nbeta        = 17

  ==> Algorithm <==

  SCF Algorithm Type is DF.
  DIIS enabled.
  MOM disabled.
  Fractional occupation disabled.
  Guess Type is SAD.
  Energy threshold   = 1.00e-08
  Density threshold  = 1.00e-08
  Integral threshold = 0.00e+00

  ==> Primary Basis <==

  Basis Set: AUG-CC-PV(D+D)Z
    Blend: AUG-CC-PV(D+D)Z
    Number of shells: 24
    Number of basis function: 64
    Number of Cartesian functions: 70
    Spherical Harmonics?: true
    Max angular momentum: 2

  ==> DFT Potential <==

   => Composite Functional: WB97M-V <= 

    wB97M-V Hyb-GGA Exchange-Correlation Functional

    N. Mardirossian and M. Head-Gordon, J. Chem. Phys. 144, 214110 (2016)

    Deriv               =              1
    GGA                 =           TRUE
    Meta                =           TRUE

    Exchange Hybrid     =           TRUE
    MP2 Hybrid          =          FALSE

   => Exchange-Correlation Functionals <=

    1.0000   wB97M-V exchange-correlation functional

   => Exact (HF) Exchange <=

    0.8500            HF,LR [omega = 0.3000]
    0.1500               HF 

   => VV10 Non-Local Parameters <=

    VV10 B              =     6.0000E+00
    VV10 C              =     1.0000E-02

   => Molecular Quadrature <=

    Radial Scheme          =       TREUTLER
    Pruning Scheme         =           FLAT
    Nuclear Scheme         =       TREUTLER

    BS radius alpha        =              1
    Pruning alpha          =              1
    Radial Points          =             75
    Spherical Points       =            302
    Total Points           =          44714
    Total Blocks           =            424
    Max Points             =            255
    Max Functions          =             64

   => Loading Basis Set <=

    Name: (AUG-CC-PV(D+D)Z AUX)
    Role: JKFIT
    Keyword: DF_BASIS_SCF
    atoms 1-2 entry CL         line   772 file /work/zw18965/.conda/envs/p4env/share/psi4/basis/aug-cc-pvdz-jkfit.gbs 

  ==> Pre-Iterations <==

   -------------------------------------------------------
    Irrep   Nso     Nmo     Nalpha   Nbeta   Ndocc  Nsocc
   -------------------------------------------------------
     Ag        15      15       0       0       0       0
     B1g        3       3       0       0       0       0
     B2g        7       7       0       0       0       0
     B3g        7       7       0       0       0       0
     Au         3       3       0       0       0       0
     B1u       15      15       0       0       0       0
     B2u        7       7       0       0       0       0
     B3u        7       7       0       0       0       0
   -------------------------------------------------------
    Total      64      64      17      17      17       0
   -------------------------------------------------------

  ==> Integral Setup <==

  ==> DiskDFJK: Density-Fitted J/K Matrices <==

    J tasked:                  Yes
    K tasked:                  Yes
    wK tasked:                 Yes
    Omega:               3.000E-01
    OpenMP threads:             24
    Integrals threads:          24
    Memory [MiB]:           102810
    Algorithm:                Core
    Integral Cache:           NONE
    Schwarz Cutoff:          1E-12
    Fitting Condition:       1E-10

   => Auxiliary Basis Set <=

  Basis Set: (AUG-CC-PV(D+D)Z AUX)
    Blend: AUG-CC-PVDZ-JKFIT
    Number of shells: 80
    Number of basis function: 256
    Number of Cartesian functions: 300
    Spherical Harmonics?: true
    Max angular momentum: 3

  Cached 100.0% of DFT collocation blocks in 0.182 [GiB].

  Minimum eigenvalue in the overlap matrix is 3.0480526331E-03.
  Using Symmetric Orthogonalization.

  SCF Guess: Superposition of Atomic Densities via on-the-fly atomic UHF.

  ==> Iterations <==

                           Total Energy        Delta E     RMS |[F,P]|

   @DF-RKS iter SAD:  -920.23560108660286   -9.20236e+02   0.00000e+00 
   @DF-RKS iter   1:  -920.31895002667977   -8.33489e-02   6.60606e-03 DIIS
   @DF-RKS iter   2:  -920.32957064168761   -1.06206e-02   4.01753e-03 DIIS
   @DF-RKS iter   3:  -920.33287447305315   -3.30383e-03   3.69189e-04 DIIS
   @DF-RKS iter   4:  -920.33294970356633   -7.52305e-05   1.29912e-04 DIIS
   @DF-RKS iter   5:  -920.33295834069770   -8.63713e-06   2.14489e-05 DIIS
   @DF-RKS iter   6:  -920.33295869592814   -3.55230e-07   2.33207e-06 DIIS
   @DF-RKS iter   7:  -920.33295869923381   -3.30567e-09   2.06386e-07 DIIS
   @DF-RKS iter   8:  -920.33295869926212   -2.83080e-11   2.93049e-08 DIIS
   @DF-RKS iter   9:  -920.33295869926292   -7.95808e-13   1.79576e-09 DIIS
  Energy and wave function converged.


  ==> Post-Iterations <==

    Orbital Energies [Eh]
    ---------------------

    Doubly Occupied:                                                      

       1B1u -101.941847     1Ag  -101.941846     2B1u   -9.704798  
       2Ag    -9.704732     3Ag    -7.412758     3B1u   -7.412631  
       1B3g   -7.398694     1B2g   -7.398694     1B2u   -7.398692  
       1B3u   -7.398692     4Ag    -1.064891     4B1u   -0.893268  
       5Ag    -0.570440     2B3u   -0.516998     2B2u   -0.516998  
       2B2g   -0.406503     2B3g   -0.406503  

    Virtual:                                                              

       5B1u   -0.042374     6B1u    0.079813     6Ag     0.090358  
       3B3u    0.100715     3B2u    0.100715     7Ag     0.117954  
       3B3g    0.132273     3B2g    0.132273     7B1u    0.259650  
       4B2u    0.306036     4B3u    0.306036     8Ag     0.318744  
       1B1g    0.318747     9Ag     0.419412     8B1u    0.442000  
       1Au     0.442005     4B3g    0.573801     4B2g    0.573801  
       9B1u    0.598726     5B2u    0.754749     5B3u    0.754749  
      10B1u    0.840809     5B3g    0.864339     5B2g    0.864339  
      10Ag     0.885342    11Ag     0.991286     2B1g    1.070938  
      12Ag     1.070961     6B2u    1.091747     6B3u    1.091747  
       2Au     1.121680    11B1u    1.121701    13Ag     1.150850  
       6B2g    1.167959     6B3g    1.167959    12B1u    1.222893  
      13B1u    1.676072    14Ag     5.416153     7B2u    5.470952  
       7B3u    5.470952     3B1g    5.513323    15Ag     5.513357  
       3Au     5.542084    14B1u    5.542119     7B3g    5.593641  
       7B2g    5.593641    15B1u    5.724145  

    Final Occupation by Irrep:
             Ag   B1g   B2g   B3g    Au   B1u   B2u   B3u 
    DOCC [     5,    0,    2,    2,    0,    4,    2,    2 ]

  @DF-RKS Final Energy:  -920.33295869926292

   => Energetics <=

    Nuclear Repulsion Energy =             76.5729687556385414
    One-Electron Energy =               -1422.3378989831046511
    Two-Electron Energy =                 468.9469960728886804
    DFT Exchange-Correlation Energy =     -43.6573499287950995
    Empirical Dispersion Energy =           0.0000000000000000
    VV10 Nonlocal Energy =                  0.1423253841095504
    Total Energy =                       -920.3329586992630311

Computation Completed


Properties will be evaluated at   0.000000,   0.000000,   0.000000 [a0]

Properties computed using the SCF density matrix

  Nuclear Dipole Moment: [e a0]
     X:     0.0000      Y:     0.0000      Z:     0.0000

  Electronic Dipole Moment: [e a0]
     X:     0.0000      Y:     0.0000      Z:     0.0000

  Dipole Moment: [e a0]
     X:     0.0000      Y:     0.0000      Z:     0.0000     Total:     0.0000

  Dipole Moment: [D]
     X:     0.0000      Y:     0.0000      Z:     0.0000     Total:     0.0000


*** tstop() called on bp1-compute00107.data.bp.acrc.priv at Tue Apr 27 17:56:12 2021
Module time:
	user time   =      48.84 seconds =       0.81 minutes
	system time =       2.18 seconds =       0.04 minutes
	total time  =          2 seconds =       0.03 minutes
Total time:
	user time   =      97.74 seconds =       1.63 minutes
	system time =       4.24 seconds =       0.07 minutes
	total time  =          5 seconds =       0.08 minutes

  //>>>>>>>>>>>>>>>>>>>>>>>>>>>>>>>>>>>//
  //    Loading displacement 3 of 3    //
  //<<<<<<<<<<<<<<<<<<<<<<<<<<<<<<<<<<<//

*** tstart() called on bp1-compute00107.data.bp.acrc.priv
*** at Tue Apr 27 17:56:12 2021

   => Loading Basis Set <=

    Name: AUG-CC-PV(D+D)Z
    Role: ORBITAL
    Keyword: BASIS
    atoms 1-2 entry CL         line   792 file /work/zw18965/.conda/envs/p4env/share/psi4/basis/aug-cc-pv_dpd_z.gbs 


         ---------------------------------------------------------
                                   SCF
               by Justin Turney, Rob Parrish, Andy Simmonett
                          and Daniel G. A. Smith
                              RKS Reference
                       24 Threads, 137329 MiB Core
         ---------------------------------------------------------

  ==> Geometry <==

    Molecular point group: d2h
    Full point group: D_inf_h

    Geometry (in Angstrom), charge = 0, multiplicity = 1:

       Center              X                  Y                   Z               Mass       
    ------------   -----------------  -----------------  -----------------  -----------------
         CL           0.000000000000     0.000000000000    -0.997971675319    34.968852682000
         CL           0.000000000000     0.000000000000     0.997971675319    34.968852682000

  Running in d2h symmetry.

  Rotational constants: A = ************  B =      0.24202  C =      0.24202 [cm^-1]
  Rotational constants: A = ************  B =   7255.53414  C =   7255.53414 [MHz]
  Nuclear repulsion =   76.621520262474121

  Charge       = 0
  Multiplicity = 1
  Electrons    = 34
  Nalpha       = 17
  Nbeta        = 17

  ==> Algorithm <==

  SCF Algorithm Type is DF.
  DIIS enabled.
  MOM disabled.
  Fractional occupation disabled.
  Guess Type is SAD.
  Energy threshold   = 1.00e-08
  Density threshold  = 1.00e-08
  Integral threshold = 0.00e+00

  ==> Primary Basis <==

  Basis Set: AUG-CC-PV(D+D)Z
    Blend: AUG-CC-PV(D+D)Z
    Number of shells: 24
    Number of basis function: 64
    Number of Cartesian functions: 70
    Spherical Harmonics?: true
    Max angular momentum: 2

  ==> DFT Potential <==

   => Composite Functional: WB97M-V <= 

    wB97M-V Hyb-GGA Exchange-Correlation Functional

    N. Mardirossian and M. Head-Gordon, J. Chem. Phys. 144, 214110 (2016)

    Deriv               =              1
    GGA                 =           TRUE
    Meta                =           TRUE

    Exchange Hybrid     =           TRUE
    MP2 Hybrid          =          FALSE

   => Exchange-Correlation Functionals <=

    1.0000   wB97M-V exchange-correlation functional

   => Exact (HF) Exchange <=

    0.8500            HF,LR [omega = 0.3000]
    0.1500               HF 

   => VV10 Non-Local Parameters <=

    VV10 B              =     6.0000E+00
    VV10 C              =     1.0000E-02

   => Molecular Quadrature <=

    Radial Scheme          =       TREUTLER
    Pruning Scheme         =           FLAT
    Nuclear Scheme         =       TREUTLER

    BS radius alpha        =              1
    Pruning alpha          =              1
    Radial Points          =             75
    Spherical Points       =            302
    Total Points           =          44714
    Total Blocks           =            424
    Max Points             =            255
    Max Functions          =             64

   => Loading Basis Set <=

    Name: (AUG-CC-PV(D+D)Z AUX)
    Role: JKFIT
    Keyword: DF_BASIS_SCF
    atoms 1-2 entry CL         line   772 file /work/zw18965/.conda/envs/p4env/share/psi4/basis/aug-cc-pvdz-jkfit.gbs 

  ==> Pre-Iterations <==

   -------------------------------------------------------
    Irrep   Nso     Nmo     Nalpha   Nbeta   Ndocc  Nsocc
   -------------------------------------------------------
     Ag        15      15       0       0       0       0
     B1g        3       3       0       0       0       0
     B2g        7       7       0       0       0       0
     B3g        7       7       0       0       0       0
     Au         3       3       0       0       0       0
     B1u       15      15       0       0       0       0
     B2u        7       7       0       0       0       0
     B3u        7       7       0       0       0       0
   -------------------------------------------------------
    Total      64      64      17      17      17       0
   -------------------------------------------------------

  ==> Integral Setup <==

  ==> DiskDFJK: Density-Fitted J/K Matrices <==

    J tasked:                  Yes
    K tasked:                  Yes
    wK tasked:                 Yes
    Omega:               3.000E-01
    OpenMP threads:             24
    Integrals threads:          24
    Memory [MiB]:           102810
    Algorithm:                Core
    Integral Cache:           NONE
    Schwarz Cutoff:          1E-12
    Fitting Condition:       1E-10

   => Auxiliary Basis Set <=

  Basis Set: (AUG-CC-PV(D+D)Z AUX)
    Blend: AUG-CC-PVDZ-JKFIT
    Number of shells: 80
    Number of basis function: 256
    Number of Cartesian functions: 300
    Spherical Harmonics?: true
    Max angular momentum: 3

  Cached 100.0% of DFT collocation blocks in 0.182 [GiB].

  Minimum eigenvalue in the overlap matrix is 3.0357507528E-03.
  Using Symmetric Orthogonalization.

  SCF Guess: Superposition of Atomic Densities via on-the-fly atomic UHF.

  ==> Iterations <==

                           Total Energy        Delta E     RMS |[F,P]|

   @DF-RKS iter SAD:  -920.23723475316046   -9.20237e+02   0.00000e+00 
   @DF-RKS iter   1:  -920.31891548058240   -8.16807e-02   6.61197e-03 DIIS
   @DF-RKS iter   2:  -920.32955919631763   -1.06437e-02   4.02152e-03 DIIS
   @DF-RKS iter   3:  -920.33286836930279   -3.30917e-03   3.69560e-04 DIIS
   @DF-RKS iter   4:  -920.33294375569540   -7.53864e-05   1.30110e-04 DIIS
   @DF-RKS iter   5:  -920.33295241417454   -8.65848e-06   2.14709e-05 DIIS
   @DF-RKS iter   6:  -920.33295276991782   -3.55743e-07   2.33104e-06 DIIS
   @DF-RKS iter   7:  -920.33295277322679   -3.30897e-09   2.06566e-07 DIIS
   @DF-RKS iter   8:  -920.33295277325499   -2.81943e-11   2.92953e-08 DIIS
   @DF-RKS iter   9:  -920.33295277325567   -6.82121e-13   1.79951e-09 DIIS
  Energy and wave function converged.


  ==> Post-Iterations <==

    Orbital Energies [Eh]
    ---------------------

    Doubly Occupied:                                                      

       1B1u -101.941777     1Ag  -101.941776     2B1u   -9.704755  
       2Ag    -9.704689     3Ag    -7.412711     3B1u   -7.412583  
       1B3g   -7.398649     1B2g   -7.398649     1B2u   -7.398647  
       1B3u   -7.398647     4Ag    -1.065217     4B1u   -0.893133  
       5Ag    -0.570588     2B3u   -0.517151     2B2u   -0.517151  
       2B2g   -0.406388     2B3g   -0.406388  

    Virtual:                                                              

       5B1u   -0.041997     6B1u    0.079872     6Ag     0.090363  
       3B3u    0.100698     3B2u    0.100698     7Ag     0.117917  
       3B3g    0.132282     3B2g    0.132282     7B1u    0.259674  
       4B3u    0.306079     4B2u    0.306079     8Ag     0.318665  
       1B1g    0.318668     9Ag     0.419393     8B1u    0.442097  
       1Au     0.442101     4B3g    0.574024     4B2g    0.574024  
       9B1u    0.599062     5B3u    0.754776     5B2u    0.754776  
      10B1u    0.840495     5B3g    0.864420     5B2g    0.864420  
      10Ag     0.885469    11Ag     0.991553     2B1g    1.070934  
      12Ag     1.070957     6B2u    1.091527     6B3u    1.091527  
       2Au     1.121701    11B1u    1.121721    13Ag     1.150415  
       6B3g    1.168109     6B2g    1.168109    12B1u    1.223353  
      13B1u    1.676906    14Ag     5.416055     7B3u    5.470679  
       7B2u    5.470679     3B1g    5.513316    15Ag     5.513350  
       3Au     5.542149    14B1u    5.542184     7B3g    5.594014  
       7B2g    5.594014    15B1u    5.724709  

    Final Occupation by Irrep:
             Ag   B1g   B2g   B3g    Au   B1u   B2u   B3u 
    DOCC [     5,    0,    2,    2,    0,    4,    2,    2 ]

  @DF-RKS Final Energy:  -920.33295277325567

   => Energetics <=

    Nuclear Repulsion Energy =             76.6215202624741210
    One-Electron Energy =               -1422.4349242841090017
    Two-Electron Energy =                 468.9958738335308794
    DFT Exchange-Correlation Energy =     -43.6577455936141092
    Empirical Dispersion Energy =           0.0000000000000000
    VV10 Nonlocal Energy =                  0.1423230084624069
    Total Energy =                       -920.3329527732556699

Computation Completed


Properties will be evaluated at   0.000000,   0.000000,   0.000000 [a0]

Properties computed using the SCF density matrix

  Nuclear Dipole Moment: [e a0]
     X:     0.0000      Y:     0.0000      Z:     0.0000

  Electronic Dipole Moment: [e a0]
     X:     0.0000      Y:     0.0000      Z:     0.0000

  Dipole Moment: [e a0]
     X:     0.0000      Y:     0.0000      Z:     0.0000     Total:     0.0000

  Dipole Moment: [D]
     X:     0.0000      Y:     0.0000      Z:     0.0000     Total:     0.0000


*** tstop() called on bp1-compute00107.data.bp.acrc.priv at Tue Apr 27 17:56:14 2021
Module time:
	user time   =      45.71 seconds =       0.76 minutes
	system time =       1.48 seconds =       0.02 minutes
	total time  =          2 seconds =       0.03 minutes
Total time:
	user time   =     143.61 seconds =       2.39 minutes
	system time =       5.73 seconds =       0.10 minutes
	total time  =          7 seconds =       0.12 minutes

         ----------------------------------------------------------
                                   FINDIF
                     R. A. King and Jonathon Misiewicz
         ---------------------------------------------------------

  Computing gradient from energies.
    Using 3-point formula.
    Energy without displacement: -920.3329558944
    Check energies below for precision!
    Forces are for mass-weighted, symmetry-adapted cartesians (in au).

     Coord      Energy(-1)        Energy(+1)            Force
        0   -920.3329586993   -920.3329527733      0.0005926007


-------------------------------------------------------------
  ## New Matrix (Symmetry 0) ##
  Irrep: 1 Size: 2 x 3

                 1                   2                   3

    1     0.00000000000000     0.00000000000000     0.00247792337308
    2     0.00000000000000     0.00000000000000    -0.00247792337308




			-----------------------------------------
			 OPTKING 2.0: for geometry optimizations 
			  - R.A. King,  Bethel University        
			-----------------------------------------
	At level 1: Red. Int., RFO, no backsteps, dynamic trust

	Internal coordinates to be generated automatically.
	Detected frag 1 with atoms:  1 2
	---Fragment 1 Bond Connectivity---
	 1 : 2
	 2 : 1

	---Fragment 1 Geometry and Gradient---
	 CL          0.0000000000        0.0000000000       -1.8864910277
	 CL          0.0000000000        0.0000000000        1.8864910277
	             0.0000000000        0.0000000000        0.0024779234
	             0.0000000000        0.0000000000       -0.0024779234

	Previous optimization step data not found.  Starting new optimization.

	---Fragment 1 Intrafragment Coordinates---
	 - Coordinate -           - BOHR/RAD -       - ANG/DEG -
	 R(1,2)           =         3.772982	       1.996576

	Current energy   :      -920.3329558944

	Generating empirical Hessian (Schlegel '84) for each fragment.
	Taking RFO optimization step.
	Going to follow RFO solution 1.
	Using RFO vector 1.
	Norm of target step-size    0.00708
	Projected energy change by RFO approximation:         0.0000075299

	Back-transformation to cartesian coordinates...
	Successfully converged to displaced geometry.

	--- Internal Coordinate Step in ANG or DEG, aJ/ANG or AJ/DEG ---
	 ---------------------------------------------------------------------------
	   Coordinate                Previous        Force       Change         New 
	   ----------                --------       ------       ------       ------
	    1 R(1,2)          =      1.996576     0.020415     0.003748     2.000324
	 ---------------------------------------------------------------------------
	Successfully symmetrized geometry.

  ==> Convergence Check <==

  Measures of convergence in internal coordinates in au.
  Criteria marked as inactive (o), active & met (*), and active & unmet ( ).
  --------------------------------------------------------------------------------------------- ~
   Step     Total Energy     Delta E     MAX Force     RMS Force      MAX Disp      RMS Disp    ~
  --------------------------------------------------------------------------------------------- ~
    Convergence Criteria    1.00e-06 *    3.00e-04 *             o    1.20e-03 *             o  ~
  --------------------------------------------------------------------------------------------- ~
      1    -920.33295589   -9.20e+02      2.48e-03      2.48e-03 o    7.08e-03      7.08e-03 o  ~
  ---------------------------------------------------------------------------------------------

	Writing optimization data to binary file.
	Structure for next step:
	Cartesian Geometry (in Angstrom)
	   CL     0.0000000000   0.0000000000  -1.0001619611
	   CL     0.0000000000   0.0000000000   1.0001619611
			--------------------------
			 OPTKING Finished Execution 
			--------------------------

    Structure for next step:
    Molecular point group: d2h
    Full point group: D_inf_h

    Geometry (in Angstrom), charge = 0, multiplicity = 1:

    CL           0.000000000000     0.000000000000    -1.000161964996
    CL           0.000000000000     0.000000000000     1.000161964996

gradient() will perform gradient computation by finite difference of analytic energies.

         ----------------------------------------------------------
                                   FINDIF
                     R. A. King and Jonathon Misiewicz
         ---------------------------------------------------------

  Using finite-differences of energies to determine gradients.
    Generating geometries for use with 3-point formula.
    Displacement size will be 5.00e-03.
    Number of atoms is 2.
    Number of symmetric SALCs is 1.
    Translations projected? 1. Rotations projected? 1.
    Number of geometries (including reference) is 3.

  //>>>>>>>>>>>>>>>>>>>>>>>>>>>>>>>>>>>//
  //    Loading displacement 1 of 3    //
  //<<<<<<<<<<<<<<<<<<<<<<<<<<<<<<<<<<<//

*** tstart() called on bp1-compute00107.data.bp.acrc.priv
*** at Tue Apr 27 17:56:14 2021

   => Loading Basis Set <=

    Name: AUG-CC-PV(D+D)Z
    Role: ORBITAL
    Keyword: BASIS
    atoms 1-2 entry CL         line   792 file /work/zw18965/.conda/envs/p4env/share/psi4/basis/aug-cc-pv_dpd_z.gbs 


         ---------------------------------------------------------
                                   SCF
               by Justin Turney, Rob Parrish, Andy Simmonett
                          and Daniel G. A. Smith
                              RKS Reference
                       24 Threads, 137329 MiB Core
         ---------------------------------------------------------

  ==> Geometry <==

    Molecular point group: d2h
    Full point group: D_inf_h

    Geometry (in Angstrom), charge = 0, multiplicity = 1:

       Center              X                  Y                   Z               Mass       
    ------------   -----------------  -----------------  -----------------  -----------------
         CL           0.000000000000     0.000000000000    -1.000161964996    34.968852682000
         CL           0.000000000000     0.000000000000     1.000161964996    34.968852682000

  Running in d2h symmetry.

  Rotational constants: A = ************  B =      0.24096  C =      0.24096 [cm^-1]
  Rotational constants: A = ************  B =   7223.79064  C =   7223.79064 [MHz]
  Nuclear repulsion =   76.453724114677456

  Charge       = 0
  Multiplicity = 1
  Electrons    = 34
  Nalpha       = 17
  Nbeta        = 17

  ==> Algorithm <==

  SCF Algorithm Type is DF.
  DIIS enabled.
  MOM disabled.
  Fractional occupation disabled.
  Guess Type is READ.
  Energy threshold   = 1.00e-08
  Density threshold  = 1.00e-08
  Integral threshold = 0.00e+00

  ==> Primary Basis <==

  Basis Set: AUG-CC-PV(D+D)Z
    Blend: AUG-CC-PV(D+D)Z
    Number of shells: 24
    Number of basis function: 64
    Number of Cartesian functions: 70
    Spherical Harmonics?: true
    Max angular momentum: 2

  ==> DFT Potential <==

   => Composite Functional: WB97M-V <= 

    wB97M-V Hyb-GGA Exchange-Correlation Functional

    N. Mardirossian and M. Head-Gordon, J. Chem. Phys. 144, 214110 (2016)

    Deriv               =              1
    GGA                 =           TRUE
    Meta                =           TRUE

    Exchange Hybrid     =           TRUE
    MP2 Hybrid          =          FALSE

   => Exchange-Correlation Functionals <=

    1.0000   wB97M-V exchange-correlation functional

   => Exact (HF) Exchange <=

    0.8500            HF,LR [omega = 0.3000]
    0.1500               HF 

   => VV10 Non-Local Parameters <=

    VV10 B              =     6.0000E+00
    VV10 C              =     1.0000E-02

   => Molecular Quadrature <=

    Radial Scheme          =       TREUTLER
    Pruning Scheme         =           FLAT
    Nuclear Scheme         =       TREUTLER

    BS radius alpha        =              1
    Pruning alpha          =              1
    Radial Points          =             75
    Spherical Points       =            302
    Total Points           =          44714
    Total Blocks           =            426
    Max Points             =            255
    Max Functions          =             64

   => Loading Basis Set <=

    Name: (AUG-CC-PV(D+D)Z AUX)
    Role: JKFIT
    Keyword: DF_BASIS_SCF
    atoms 1-2 entry CL         line   772 file /work/zw18965/.conda/envs/p4env/share/psi4/basis/aug-cc-pvdz-jkfit.gbs 

   => Loading Basis Set <=

    Name: AUG-CC-PV(D+D)Z
    Role: ORBITAL
    Keyword: BASIS
    atoms 1-2 entry CL         line   792 file /work/zw18965/.conda/envs/p4env/share/psi4/basis/aug-cc-pv_dpd_z.gbs 

  Reading orbitals from file 180, no projection.

  ==> Pre-Iterations <==

   -------------------------------------------------------
    Irrep   Nso     Nmo     Nalpha   Nbeta   Ndocc  Nsocc
   -------------------------------------------------------
     Ag        15      15       0       0       0       0
     B1g        3       3       0       0       0       0
     B2g        7       7       0       0       0       0
     B3g        7       7       0       0       0       0
     Au         3       3       0       0       0       0
     B1u       15      15       0       0       0       0
     B2u        7       7       0       0       0       0
     B3u        7       7       0       0       0       0
   -------------------------------------------------------
    Total      64      64      17      17      17       0
   -------------------------------------------------------

  ==> Integral Setup <==

  ==> DiskDFJK: Density-Fitted J/K Matrices <==

    J tasked:                  Yes
    K tasked:                  Yes
    wK tasked:                 Yes
    Omega:               3.000E-01
    OpenMP threads:             24
    Integrals threads:          24
    Memory [MiB]:           102810
    Algorithm:                Core
    Integral Cache:           NONE
    Schwarz Cutoff:          1E-12
    Fitting Condition:       1E-10

   => Auxiliary Basis Set <=

  Basis Set: (AUG-CC-PV(D+D)Z AUX)
    Blend: AUG-CC-PVDZ-JKFIT
    Number of shells: 80
    Number of basis function: 256
    Number of Cartesian functions: 300
    Spherical Harmonics?: true
    Max angular momentum: 3

  Cached 100.0% of DFT collocation blocks in 0.182 [GiB].

  Minimum eigenvalue in the overlap matrix is 3.0784882766E-03.
  Using Symmetric Orthogonalization.

  SCF Guess: Orbitals guess was supplied from a previous computation.

  ==> Iterations <==

                           Total Energy        Delta E     RMS |[F,P]|

   @DF-RKS iter   0:  -920.33107193642866   -9.20331e+02   2.92466e-04 
   @DF-RKS iter   1:  -920.33296698173160   -1.89505e-03   5.55194e-05 DIIS
   @DF-RKS iter   2:  -920.33296757539119   -5.93660e-07   3.94356e-05 DIIS
   @DF-RKS iter   3:  -920.33296791501130   -3.39620e-07   2.32503e-06 DIIS
   @DF-RKS iter   4:  -920.33296791804332   -3.03203e-09   5.94374e-07 DIIS
   @DF-RKS iter   5:  -920.33296791824205   -1.98725e-10   1.69586e-07 DIIS
   @DF-RKS iter   6:  -920.33296791825273   -1.06866e-11   9.00793e-09 DIIS
  Energy and wave function converged.


  ==> Post-Iterations <==

    Orbital Energies [Eh]
    ---------------------

    Doubly Occupied:                                                      

       1B1u -101.942019     1Ag  -101.942018     2B1u   -9.704905  
       2Ag    -9.704840     3Ag    -7.412873     3B1u   -7.412749  
       1B3g   -7.398804     1B2g   -7.398804     1B2u   -7.398802  
       1B3u   -7.398802     4Ag    -1.064093     4B1u   -0.893600  
       5Ag    -0.570075     2B2u   -0.516623     2B3u   -0.516623  
       2B3g   -0.406782     2B2g   -0.406782  

    Virtual:                                                              

       5B1u   -0.043299     6B1u    0.079668     6Ag     0.090345  
       3B2u    0.100757     3B3u    0.100757     7Ag     0.118044  
       3B3g    0.132252     3B2g    0.132252     7B1u    0.259592  
       4B3u    0.305932     4B2u    0.305932     8Ag     0.318938  
       1B1g    0.318942     9Ag     0.419454     8B1u    0.441764  
       1Au     0.441768     4B3g    0.573253     4B2g    0.573253  
       9B1u    0.597904     5B2u    0.754683     5B3u    0.754683  
      10B1u    0.841581     5B3g    0.864139     5B2g    0.864139  
      10Ag     0.885022    11Ag     0.990633     2B1g    1.070947  
      12Ag     1.070970     6B2u    1.092282     6B3u    1.092282  
       2Au     1.121630    11B1u    1.121651    13Ag     1.151922  
       6B3g    1.167593     6B2g    1.167593    12B1u    1.221768  
      13B1u    1.674022    14Ag     5.416410     7B2u    5.471621  
       7B3u    5.471621     3B1g    5.513339    15Ag     5.513373  
       3Au     5.541925    14B1u    5.541960     7B3g    5.592727  
       7B2g    5.592727    15B1u    5.722751  

    Final Occupation by Irrep:
             Ag   B1g   B2g   B3g    Au   B1u   B2u   B3u 
    DOCC [     5,    0,    2,    2,    0,    4,    2,    2 ]

  @DF-RKS Final Energy:  -920.33296791825273

   => Energetics <=

    Nuclear Repulsion Energy =             76.4537241146774562
    One-Electron Energy =               -1422.0995825006448285
    Two-Electron Energy =                 468.8269393568411942
    DFT Exchange-Correlation Energy =     -43.6563801237886722
    Empirical Dispersion Energy =           0.0000000000000000
    VV10 Nonlocal Energy =                  0.1423312346621084
    Total Energy =                       -920.3329679182527343

Computation Completed


Properties will be evaluated at   0.000000,   0.000000,   0.000000 [a0]

Properties computed using the SCF density matrix

  Nuclear Dipole Moment: [e a0]
     X:     0.0000      Y:     0.0000      Z:    -0.0000

  Electronic Dipole Moment: [e a0]
     X:     0.0000      Y:     0.0000      Z:     0.0000

  Dipole Moment: [e a0]
     X:     0.0000      Y:     0.0000      Z:    -0.0000     Total:     0.0000

  Dipole Moment: [D]
     X:     0.0000      Y:     0.0000      Z:    -0.0000     Total:     0.0000


*** tstop() called on bp1-compute00107.data.bp.acrc.priv at Tue Apr 27 17:56:15 2021
Module time:
	user time   =      35.62 seconds =       0.59 minutes
	system time =       1.11 seconds =       0.02 minutes
	total time  =          1 seconds =       0.02 minutes
Total time:
	user time   =     179.72 seconds =       3.00 minutes
	system time =       6.87 seconds =       0.11 minutes
	total time  =          8 seconds =       0.13 minutes

  //>>>>>>>>>>>>>>>>>>>>>>>>>>>>>>>>>>>//
  //    Loading displacement 2 of 3    //
  //<<<<<<<<<<<<<<<<<<<<<<<<<<<<<<<<<<<//

*** tstart() called on bp1-compute00107.data.bp.acrc.priv
*** at Tue Apr 27 17:56:15 2021

   => Loading Basis Set <=

    Name: AUG-CC-PV(D+D)Z
    Role: ORBITAL
    Keyword: BASIS
    atoms 1-2 entry CL         line   792 file /work/zw18965/.conda/envs/p4env/share/psi4/basis/aug-cc-pv_dpd_z.gbs 


         ---------------------------------------------------------
                                   SCF
               by Justin Turney, Rob Parrish, Andy Simmonett
                          and Daniel G. A. Smith
                              RKS Reference
                       24 Threads, 137329 MiB Core
         ---------------------------------------------------------

  ==> Geometry <==

    Molecular point group: d2h
    Full point group: D_inf_h

    Geometry (in Angstrom), charge = 0, multiplicity = 1:

       Center              X                  Y                   Z               Mass       
    ------------   -----------------  -----------------  -----------------  -----------------
         CL           0.000000000000     0.000000000000    -1.000478349677    34.968852682000
         CL           0.000000000000     0.000000000000     1.000478349677    34.968852682000

  Running in d2h symmetry.

  Rotational constants: A = ************  B =      0.24081  C =      0.24081 [cm^-1]
  Rotational constants: A = ************  B =   7219.22255  C =   7219.22255 [MHz]
  Nuclear repulsion =   76.429546892713518

  Charge       = 0
  Multiplicity = 1
  Electrons    = 34
  Nalpha       = 17
  Nbeta        = 17

  ==> Algorithm <==

  SCF Algorithm Type is DF.
  DIIS enabled.
  MOM disabled.
  Fractional occupation disabled.
  Guess Type is READ.
  Energy threshold   = 1.00e-08
  Density threshold  = 1.00e-08
  Integral threshold = 0.00e+00

  ==> Primary Basis <==

  Basis Set: AUG-CC-PV(D+D)Z
    Blend: AUG-CC-PV(D+D)Z
    Number of shells: 24
    Number of basis function: 64
    Number of Cartesian functions: 70
    Spherical Harmonics?: true
    Max angular momentum: 2

  ==> DFT Potential <==

   => Composite Functional: WB97M-V <= 

    wB97M-V Hyb-GGA Exchange-Correlation Functional

    N. Mardirossian and M. Head-Gordon, J. Chem. Phys. 144, 214110 (2016)

    Deriv               =              1
    GGA                 =           TRUE
    Meta                =           TRUE

    Exchange Hybrid     =           TRUE
    MP2 Hybrid          =          FALSE

   => Exchange-Correlation Functionals <=

    1.0000   wB97M-V exchange-correlation functional

   => Exact (HF) Exchange <=

    0.8500            HF,LR [omega = 0.3000]
    0.1500               HF 

   => VV10 Non-Local Parameters <=

    VV10 B              =     6.0000E+00
    VV10 C              =     1.0000E-02

   => Molecular Quadrature <=

    Radial Scheme          =       TREUTLER
    Pruning Scheme         =           FLAT
    Nuclear Scheme         =       TREUTLER

    BS radius alpha        =              1
    Pruning alpha          =              1
    Radial Points          =             75
    Spherical Points       =            302
    Total Points           =          44714
    Total Blocks           =            426
    Max Points             =            255
    Max Functions          =             64

   => Loading Basis Set <=

    Name: (AUG-CC-PV(D+D)Z AUX)
    Role: JKFIT
    Keyword: DF_BASIS_SCF
    atoms 1-2 entry CL         line   772 file /work/zw18965/.conda/envs/p4env/share/psi4/basis/aug-cc-pvdz-jkfit.gbs 

   => Loading Basis Set <=

    Name: AUG-CC-PV(D+D)Z
    Role: ORBITAL
    Keyword: BASIS
    atoms 1-2 entry CL         line   792 file /work/zw18965/.conda/envs/p4env/share/psi4/basis/aug-cc-pv_dpd_z.gbs 

  Reading orbitals from file 180, no projection.

  ==> Pre-Iterations <==

   -------------------------------------------------------
    Irrep   Nso     Nmo     Nalpha   Nbeta   Ndocc  Nsocc
   -------------------------------------------------------
     Ag        15      15       0       0       0       0
     B1g        3       3       0       0       0       0
     B2g        7       7       0       0       0       0
     B3g        7       7       0       0       0       0
     Au         3       3       0       0       0       0
     B1u       15      15       0       0       0       0
     B2u        7       7       0       0       0       0
     B3u        7       7       0       0       0       0
   -------------------------------------------------------
    Total      64      64      17      17      17       0
   -------------------------------------------------------

  ==> Integral Setup <==

  ==> DiskDFJK: Density-Fitted J/K Matrices <==

    J tasked:                  Yes
    K tasked:                  Yes
    wK tasked:                 Yes
    Omega:               3.000E-01
    OpenMP threads:             24
    Integrals threads:          24
    Memory [MiB]:           102810
    Algorithm:                Core
    Integral Cache:           NONE
    Schwarz Cutoff:          1E-12
    Fitting Condition:       1E-10

   => Auxiliary Basis Set <=

  Basis Set: (AUG-CC-PV(D+D)Z AUX)
    Blend: AUG-CC-PVDZ-JKFIT
    Number of shells: 80
    Number of basis function: 256
    Number of Cartesian functions: 300
    Spherical Harmonics?: true
    Max angular momentum: 3

  Cached 100.0% of DFT collocation blocks in 0.182 [GiB].

  Minimum eigenvalue in the overlap matrix is 3.0846977291E-03.
  Using Symmetric Orthogonalization.

  SCF Guess: Orbitals guess was supplied from a previous computation.

  ==> Iterations <==

                           Total Energy        Delta E     RMS |[F,P]|

   @DF-RKS iter   0:  -920.33264969537083   -9.20333e+02   4.92403e-05 
   @DF-RKS iter   1:  -920.33296883916478   -3.19144e-04   9.35365e-06 DIIS
   @DF-RKS iter   2:  -920.33296885600316   -1.68384e-08   6.64821e-06 DIIS
   @DF-RKS iter   3:  -920.33296886566097   -9.65781e-09   3.91328e-07 DIIS
   @DF-RKS iter   4:  -920.33296886574692   -8.59472e-11   9.98170e-08 DIIS
   @DF-RKS iter   5:  -920.33296886575249   -5.57066e-12   2.85714e-08 DIIS
   @DF-RKS iter   6:  -920.33296886575283   -3.41061e-13   1.51809e-09 DIIS
  Energy and wave function converged.


  ==> Post-Iterations <==

    Orbital Energies [Eh]
    ---------------------

    Doubly Occupied:                                                      

       1B1u -101.942054     1Ag  -101.942053     2B1u   -9.704927  
       2Ag    -9.704861     3Ag    -7.412896     3B1u   -7.412773  
       1B3g   -7.398827     1B2g   -7.398827     1B2u   -7.398824  
       1B3u   -7.398824     4Ag    -1.063931     4B1u   -0.893667  
       5Ag    -0.570001     2B3u   -0.516547     2B2u   -0.516547  
       2B2g   -0.406839     2B3g   -0.406839  

    Virtual:                                                              

       5B1u   -0.043487     6B1u    0.079639     6Ag     0.090342  
       3B3u    0.100766     3B2u    0.100766     7Ag     0.118063  
       3B3g    0.132247     3B2g    0.132247     7B1u    0.259580  
       4B2u    0.305911     4B3u    0.305911     8Ag     0.318978  
       1B1g    0.318981     9Ag     0.419463     8B1u    0.441716  
       1Au     0.441720     4B3g    0.573142     4B2g    0.573142  
       9B1u    0.597738     5B2u    0.754669     5B3u    0.754669  
      10B1u    0.841738     5B3g    0.864098     5B2g    0.864098  
      10Ag     0.884957    11Ag     0.990501     2B1g    1.070948  
      12Ag     1.070971     6B3u    1.092390     6B2u    1.092390  
       2Au     1.121620    11B1u    1.121641    13Ag     1.152140  
       6B3g    1.167520     6B2g    1.167520    12B1u    1.221540  
      13B1u    1.673606    14Ag     5.416465     7B2u    5.471756  
       7B3u    5.471756     3B1g    5.513342    15Ag     5.513377  
       3Au     5.541893    14B1u    5.541928     7B3g    5.592543  
       7B2g    5.592543    15B1u    5.722466  

    Final Occupation by Irrep:
             Ag   B1g   B2g   B3g    Au   B1u   B2u   B3u 
    DOCC [     5,    0,    2,    2,    0,    4,    2,    2 ]

  @DF-RKS Final Energy:  -920.33296886575283

   => Energetics <=

    Nuclear Repulsion Energy =             76.4295468927135175
    One-Electron Energy =               -1422.0512614184081031
    Two-Electron Energy =                 468.8025971396817226
    DFT Exchange-Correlation Energy =     -43.6561839034103869
    Empirical Dispersion Energy =           0.0000000000000000
    VV10 Nonlocal Energy =                  0.1423324236705208
    Total Energy =                       -920.3329688657528322

Computation Completed


Properties will be evaluated at   0.000000,   0.000000,   0.000000 [a0]

Properties computed using the SCF density matrix

  Nuclear Dipole Moment: [e a0]
     X:     0.0000      Y:     0.0000      Z:    -0.0000

  Electronic Dipole Moment: [e a0]
     X:     0.0000      Y:     0.0000      Z:     0.0000

  Dipole Moment: [e a0]
     X:     0.0000      Y:     0.0000      Z:    -0.0000     Total:     0.0000

  Dipole Moment: [D]
     X:     0.0000      Y:     0.0000      Z:    -0.0000     Total:     0.0000


*** tstop() called on bp1-compute00107.data.bp.acrc.priv at Tue Apr 27 17:56:17 2021
Module time:
	user time   =      38.08 seconds =       0.63 minutes
	system time =       1.47 seconds =       0.02 minutes
	total time  =          2 seconds =       0.03 minutes
Total time:
	user time   =     217.93 seconds =       3.63 minutes
	system time =       8.34 seconds =       0.14 minutes
	total time  =         10 seconds =       0.17 minutes

  //>>>>>>>>>>>>>>>>>>>>>>>>>>>>>>>>>>>//
  //    Loading displacement 3 of 3    //
  //<<<<<<<<<<<<<<<<<<<<<<<<<<<<<<<<<<<//

*** tstart() called on bp1-compute00107.data.bp.acrc.priv
*** at Tue Apr 27 17:56:17 2021

   => Loading Basis Set <=

    Name: AUG-CC-PV(D+D)Z
    Role: ORBITAL
    Keyword: BASIS
    atoms 1-2 entry CL         line   792 file /work/zw18965/.conda/envs/p4env/share/psi4/basis/aug-cc-pv_dpd_z.gbs 


         ---------------------------------------------------------
                                   SCF
               by Justin Turney, Rob Parrish, Andy Simmonett
                          and Daniel G. A. Smith
                              RKS Reference
                       24 Threads, 137329 MiB Core
         ---------------------------------------------------------

  ==> Geometry <==

    Molecular point group: d2h
    Full point group: D_inf_h

    Geometry (in Angstrom), charge = 0, multiplicity = 1:

       Center              X                  Y                   Z               Mass       
    ------------   -----------------  -----------------  -----------------  -----------------
         CL           0.000000000000     0.000000000000    -0.999845580315    34.968852682000
         CL           0.000000000000     0.000000000000     0.999845580315    34.968852682000

  Running in d2h symmetry.

  Rotational constants: A = ************  B =      0.24111  C =      0.24111 [cm^-1]
  Rotational constants: A = ************  B =   7228.36306  C =   7228.36306 [MHz]
  Nuclear repulsion =   76.477916637609468

  Charge       = 0
  Multiplicity = 1
  Electrons    = 34
  Nalpha       = 17
  Nbeta        = 17

  ==> Algorithm <==

  SCF Algorithm Type is DF.
  DIIS enabled.
  MOM disabled.
  Fractional occupation disabled.
  Guess Type is READ.
  Energy threshold   = 1.00e-08
  Density threshold  = 1.00e-08
  Integral threshold = 0.00e+00

  ==> Primary Basis <==

  Basis Set: AUG-CC-PV(D+D)Z
    Blend: AUG-CC-PV(D+D)Z
    Number of shells: 24
    Number of basis function: 64
    Number of Cartesian functions: 70
    Spherical Harmonics?: true
    Max angular momentum: 2

  ==> DFT Potential <==

   => Composite Functional: WB97M-V <= 

    wB97M-V Hyb-GGA Exchange-Correlation Functional

    N. Mardirossian and M. Head-Gordon, J. Chem. Phys. 144, 214110 (2016)

    Deriv               =              1
    GGA                 =           TRUE
    Meta                =           TRUE

    Exchange Hybrid     =           TRUE
    MP2 Hybrid          =          FALSE

   => Exchange-Correlation Functionals <=

    1.0000   wB97M-V exchange-correlation functional

   => Exact (HF) Exchange <=

    0.8500            HF,LR [omega = 0.3000]
    0.1500               HF 

   => VV10 Non-Local Parameters <=

    VV10 B              =     6.0000E+00
    VV10 C              =     1.0000E-02

   => Molecular Quadrature <=

    Radial Scheme          =       TREUTLER
    Pruning Scheme         =           FLAT
    Nuclear Scheme         =       TREUTLER

    BS radius alpha        =              1
    Pruning alpha          =              1
    Radial Points          =             75
    Spherical Points       =            302
    Total Points           =          44714
    Total Blocks           =            424
    Max Points             =            255
    Max Functions          =             64

   => Loading Basis Set <=

    Name: (AUG-CC-PV(D+D)Z AUX)
    Role: JKFIT
    Keyword: DF_BASIS_SCF
    atoms 1-2 entry CL         line   772 file /work/zw18965/.conda/envs/p4env/share/psi4/basis/aug-cc-pvdz-jkfit.gbs 

   => Loading Basis Set <=

    Name: AUG-CC-PV(D+D)Z
    Role: ORBITAL
    Keyword: BASIS
    atoms 1-2 entry CL         line   792 file /work/zw18965/.conda/envs/p4env/share/psi4/basis/aug-cc-pv_dpd_z.gbs 

  Reading orbitals from file 180, no projection.

  ==> Pre-Iterations <==

   -------------------------------------------------------
    Irrep   Nso     Nmo     Nalpha   Nbeta   Ndocc  Nsocc
   -------------------------------------------------------
     Ag        15      15       0       0       0       0
     B1g        3       3       0       0       0       0
     B2g        7       7       0       0       0       0
     B3g        7       7       0       0       0       0
     Au         3       3       0       0       0       0
     B1u       15      15       0       0       0       0
     B2u        7       7       0       0       0       0
     B3u        7       7       0       0       0       0
   -------------------------------------------------------
    Total      64      64      17      17      17       0
   -------------------------------------------------------

  ==> Integral Setup <==

  ==> DiskDFJK: Density-Fitted J/K Matrices <==

    J tasked:                  Yes
    K tasked:                  Yes
    wK tasked:                 Yes
    Omega:               3.000E-01
    OpenMP threads:             24
    Integrals threads:          24
    Memory [MiB]:           102810
    Algorithm:                Core
    Integral Cache:           NONE
    Schwarz Cutoff:          1E-12
    Fitting Condition:       1E-10

   => Auxiliary Basis Set <=

  Basis Set: (AUG-CC-PV(D+D)Z AUX)
    Blend: AUG-CC-PVDZ-JKFIT
    Number of shells: 80
    Number of basis function: 256
    Number of Cartesian functions: 300
    Spherical Harmonics?: true
    Max angular momentum: 3

  Cached 100.0% of DFT collocation blocks in 0.182 [GiB].

  Minimum eigenvalue in the overlap matrix is 3.0722879161E-03.
  Using Symmetric Orthogonalization.

  SCF Guess: Orbitals guess was supplied from a previous computation.

  ==> Iterations <==

                           Total Energy        Delta E     RMS |[F,P]|

   @DF-RKS iter   0:  -920.33328647851795   -9.20333e+02   4.93086e-05 
   @DF-RKS iter   1:  -920.33296663365661    3.19845e-04   9.35991e-06 DIIS
   @DF-RKS iter   2:  -920.33296665052001   -1.68634e-08   6.65188e-06 DIIS
   @DF-RKS iter   3:  -920.33296666018555   -9.66554e-09   3.91739e-07 DIIS
   @DF-RKS iter   4:  -920.33296666027275   -8.71978e-11   9.99247e-08 DIIS
   @DF-RKS iter   5:  -920.33296666027752   -4.77485e-12   2.85797e-08 DIIS
   @DF-RKS iter   6:  -920.33296666027775   -2.27374e-13   1.51777e-09 DIIS
  Energy and wave function converged.


  ==> Post-Iterations <==

    Orbital Energies [Eh]
    ---------------------

    Doubly Occupied:                                                      

       1B1u -101.941984     1Ag  -101.941983     2B1u   -9.704883  
       2Ag    -9.704818     3Ag    -7.412849     3B1u   -7.412725  
       1B3g   -7.398782     1B2g   -7.398782     1B2u   -7.398780  
       1B3u   -7.398780     4Ag    -1.064255     4B1u   -0.893533  
       5Ag    -0.570149     2B2u   -0.516699     2B3u   -0.516699  
       2B2g   -0.406726     2B3g   -0.406726  

    Virtual:                                                              

       5B1u   -0.043111     6B1u    0.079697     6Ag     0.090348  
       3B3u    0.100749     3B2u    0.100749     7Ag     0.118026  
       3B3g    0.132256     3B2g    0.132256     7B1u    0.259604  
       4B3u    0.305953     4B2u    0.305953     8Ag     0.318899  
       1B1g    0.318902     9Ag     0.419446     8B1u    0.441812  
       1Au     0.441816     4B2g    0.573364     4B3g    0.573364  
       9B1u    0.598070     5B2u    0.754696     5B3u    0.754696  
      10B1u    0.841425     5B3g    0.864179     5B2g    0.864179  
      10Ag     0.885088    11Ag     0.990765     2B1g    1.070945  
      12Ag     1.070968     6B2u    1.092173     6B3u    1.092173  
       2Au     1.121640    11B1u    1.121661    13Ag     1.151704  
       6B2g    1.167667     6B3g    1.167667    12B1u    1.221996  
      13B1u    1.674437    14Ag     5.416356     7B2u    5.471485  
       7B3u    5.471485     3B1g    5.513336    15Ag     5.513370  
       3Au     5.541958    14B1u    5.541992     7B2g    5.592913  
       7B3g    5.592913    15B1u    5.723035  

    Final Occupation by Irrep:
             Ag   B1g   B2g   B3g    Au   B1u   B2u   B3u 
    DOCC [     5,    0,    2,    2,    0,    4,    2,    2 ]

  @DF-RKS Final Energy:  -920.33296666027775

   => Energetics <=

    Nuclear Repulsion Energy =             76.4779166376094679
    One-Electron Energy =               -1422.1479355979115553
    Two-Electron Energy =                 468.8512989553056514
    DFT Exchange-Correlation Energy =     -43.6565767011741883
    Empirical Dispersion Energy =           0.0000000000000000
    VV10 Nonlocal Energy =                  0.1423300458929023
    Total Energy =                       -920.3329666602777479

Computation Completed


Properties will be evaluated at   0.000000,   0.000000,   0.000000 [a0]

Properties computed using the SCF density matrix

  Nuclear Dipole Moment: [e a0]
     X:     0.0000      Y:     0.0000      Z:     0.0000

  Electronic Dipole Moment: [e a0]
     X:     0.0000      Y:     0.0000      Z:     0.0000

  Dipole Moment: [e a0]
     X:     0.0000      Y:     0.0000      Z:     0.0000     Total:     0.0000

  Dipole Moment: [D]
     X:     0.0000      Y:     0.0000      Z:     0.0000     Total:     0.0000


*** tstop() called on bp1-compute00107.data.bp.acrc.priv at Tue Apr 27 17:56:19 2021
Module time:
	user time   =      35.29 seconds =       0.59 minutes
	system time =       1.16 seconds =       0.02 minutes
	total time  =          2 seconds =       0.03 minutes
Total time:
	user time   =     253.36 seconds =       4.22 minutes
	system time =       9.51 seconds =       0.16 minutes
	total time  =         12 seconds =       0.20 minutes

         ----------------------------------------------------------
                                   FINDIF
                     R. A. King and Jonathon Misiewicz
         ---------------------------------------------------------

  Computing gradient from energies.
    Using 3-point formula.
    Energy without displacement: -920.3329679183
    Check energies below for precision!
    Forces are for mass-weighted, symmetry-adapted cartesians (in au).

     Coord      Energy(-1)        Energy(+1)            Force
        0   -920.3329688658   -920.3329666603      0.0002205475


-------------------------------------------------------------
  ## New Matrix (Symmetry 0) ##
  Irrep: 1 Size: 2 x 3

                 1                   2                   3

    1     0.00000000000000     0.00000000000000     0.00092220580096
    2     0.00000000000000     0.00000000000000    -0.00092220580096




			-----------------------------------------
			 OPTKING 2.0: for geometry optimizations 
			  - R.A. King,  Bethel University        
			-----------------------------------------
	At level 1: Red. Int., RFO, no backsteps, dynamic trust

	Previous internal coordinate definitions found.
	---Fragment 1 Geometry and Gradient---
	 CL          0.0000000000        0.0000000000       -1.8900321949
	 CL          0.0000000000        0.0000000000        1.8900321949
	             0.0000000000        0.0000000000        0.0009222058
	             0.0000000000        0.0000000000       -0.0009222058

	---Fragment 1 Intrafragment Coordinates---
	 - Coordinate -           - BOHR/RAD -       - ANG/DEG -
	 R(1,2)           =         3.780064	       2.000324

	Current energy   :      -920.3329679183

	Energy change for the previous step:
		Projected    :         0.0000075299
		Actual       :        -0.0000120238

	Performing BFGS update.
	Previous computed or guess Hessian on step 1.
	Steps to be used in Hessian update: 1
	Taking RFO optimization step.
	Going to follow RFO solution 1.
	Using RFO vector 1.
	Norm of target step-size    0.00420
	Projected energy change by RFO approximation:         0.0000049408

	Back-transformation to cartesian coordinates...
	Successfully converged to displaced geometry.

	--- Internal Coordinate Step in ANG or DEG, aJ/ANG or AJ/DEG ---
	 ---------------------------------------------------------------------------
	   Coordinate                Previous        Force       Change         New 
	   ----------                --------       ------       ------       ------
	    1 R(1,2)          =      2.000324     0.007598     0.002222     2.002546
	 ---------------------------------------------------------------------------
	Successfully symmetrized geometry.

  ==> Convergence Check <==

  Measures of convergence in internal coordinates in au.
  Criteria marked as inactive (o), active & met (*), and active & unmet ( ).
  ---------------------------------------------------------------------------------------------
   Step     Total Energy     Delta E     MAX Force     RMS Force      MAX Disp      RMS Disp   
  ---------------------------------------------------------------------------------------------
    Convergence Criteria    1.00e-06 *    3.00e-04 *             o    1.20e-03 *             o
  ---------------------------------------------------------------------------------------------
      2    -920.33296792   -1.20e-05      9.22e-04      9.22e-04 o    4.20e-03      4.20e-03 o  ~
  ---------------------------------------------------------------------------------------------

	Writing optimization data to binary file.
	Structure for next step:
	Cartesian Geometry (in Angstrom)
	   CL     0.0000000000   0.0000000000  -1.0012727640
	   CL     0.0000000000   0.0000000000   1.0012727640
			--------------------------
			 OPTKING Finished Execution 
			--------------------------

    Structure for next step:
    Molecular point group: d2h
    Full point group: D_inf_h

    Geometry (in Angstrom), charge = 0, multiplicity = 1:

    CL           0.000000000000     0.000000000000    -1.001272767902
    CL           0.000000000000     0.000000000000     1.001272767902

gradient() will perform gradient computation by finite difference of analytic energies.

         ----------------------------------------------------------
                                   FINDIF
                     R. A. King and Jonathon Misiewicz
         ---------------------------------------------------------

  Using finite-differences of energies to determine gradients.
    Generating geometries for use with 3-point formula.
    Displacement size will be 5.00e-03.
    Number of atoms is 2.
    Number of symmetric SALCs is 1.
    Translations projected? 1. Rotations projected? 1.
    Number of geometries (including reference) is 3.

  //>>>>>>>>>>>>>>>>>>>>>>>>>>>>>>>>>>>//
  //    Loading displacement 1 of 3    //
  //<<<<<<<<<<<<<<<<<<<<<<<<<<<<<<<<<<<//

*** tstart() called on bp1-compute00107.data.bp.acrc.priv
*** at Tue Apr 27 17:56:19 2021

   => Loading Basis Set <=

    Name: AUG-CC-PV(D+D)Z
    Role: ORBITAL
    Keyword: BASIS
    atoms 1-2 entry CL         line   792 file /work/zw18965/.conda/envs/p4env/share/psi4/basis/aug-cc-pv_dpd_z.gbs 


         ---------------------------------------------------------
                                   SCF
               by Justin Turney, Rob Parrish, Andy Simmonett
                          and Daniel G. A. Smith
                              RKS Reference
                       24 Threads, 137329 MiB Core
         ---------------------------------------------------------

  ==> Geometry <==

    Molecular point group: d2h
    Full point group: D_inf_h

    Geometry (in Angstrom), charge = 0, multiplicity = 1:

       Center              X                  Y                   Z               Mass       
    ------------   -----------------  -----------------  -----------------  -----------------
         CL           0.000000000000     0.000000000000    -1.001272767902    34.968852682000
         CL           0.000000000000     0.000000000000     1.001272767902    34.968852682000

  Running in d2h symmetry.

  Rotational constants: A = ************  B =      0.24043  C =      0.24043 [cm^-1]
  Rotational constants: A = ************  B =   7207.77151  C =   7207.77151 [MHz]
  Nuclear repulsion =   76.368907048219583

  Charge       = 0
  Multiplicity = 1
  Electrons    = 34
  Nalpha       = 17
  Nbeta        = 17

  ==> Algorithm <==

  SCF Algorithm Type is DF.
  DIIS enabled.
  MOM disabled.
  Fractional occupation disabled.
  Guess Type is READ.
  Energy threshold   = 1.00e-08
  Density threshold  = 1.00e-08
  Integral threshold = 0.00e+00

  ==> Primary Basis <==

  Basis Set: AUG-CC-PV(D+D)Z
    Blend: AUG-CC-PV(D+D)Z
    Number of shells: 24
    Number of basis function: 64
    Number of Cartesian functions: 70
    Spherical Harmonics?: true
    Max angular momentum: 2

  ==> DFT Potential <==

   => Composite Functional: WB97M-V <= 

    wB97M-V Hyb-GGA Exchange-Correlation Functional

    N. Mardirossian and M. Head-Gordon, J. Chem. Phys. 144, 214110 (2016)

    Deriv               =              1
    GGA                 =           TRUE
    Meta                =           TRUE

    Exchange Hybrid     =           TRUE
    MP2 Hybrid          =          FALSE

   => Exchange-Correlation Functionals <=

    1.0000   wB97M-V exchange-correlation functional

   => Exact (HF) Exchange <=

    0.8500            HF,LR [omega = 0.3000]
    0.1500               HF 

   => VV10 Non-Local Parameters <=

    VV10 B              =     6.0000E+00
    VV10 C              =     1.0000E-02

   => Molecular Quadrature <=

    Radial Scheme          =       TREUTLER
    Pruning Scheme         =           FLAT
    Nuclear Scheme         =       TREUTLER

    BS radius alpha        =              1
    Pruning alpha          =              1
    Radial Points          =             75
    Spherical Points       =            302
    Total Points           =          44714
    Total Blocks           =            426
    Max Points             =            254
    Max Functions          =             64

   => Loading Basis Set <=

    Name: (AUG-CC-PV(D+D)Z AUX)
    Role: JKFIT
    Keyword: DF_BASIS_SCF
    atoms 1-2 entry CL         line   772 file /work/zw18965/.conda/envs/p4env/share/psi4/basis/aug-cc-pvdz-jkfit.gbs 

   => Loading Basis Set <=

    Name: AUG-CC-PV(D+D)Z
    Role: ORBITAL
    Keyword: BASIS
    atoms 1-2 entry CL         line   792 file /work/zw18965/.conda/envs/p4env/share/psi4/basis/aug-cc-pv_dpd_z.gbs 

  Reading orbitals from file 180, no projection.

  ==> Pre-Iterations <==

   -------------------------------------------------------
    Irrep   Nso     Nmo     Nalpha   Nbeta   Ndocc  Nsocc
   -------------------------------------------------------
     Ag        15      15       0       0       0       0
     B1g        3       3       0       0       0       0
     B2g        7       7       0       0       0       0
     B3g        7       7       0       0       0       0
     Au         3       3       0       0       0       0
     B1u       15      15       0       0       0       0
     B2u        7       7       0       0       0       0
     B3u        7       7       0       0       0       0
   -------------------------------------------------------
    Total      64      64      17      17      17       0
   -------------------------------------------------------

  ==> Integral Setup <==

  ==> DiskDFJK: Density-Fitted J/K Matrices <==

    J tasked:                  Yes
    K tasked:                  Yes
    wK tasked:                 Yes
    Omega:               3.000E-01
    OpenMP threads:             24
    Integrals threads:          24
    Memory [MiB]:           102810
    Algorithm:                Core
    Integral Cache:           NONE
    Schwarz Cutoff:          1E-12
    Fitting Condition:       1E-10

   => Auxiliary Basis Set <=

  Basis Set: (AUG-CC-PV(D+D)Z AUX)
    Blend: AUG-CC-PVDZ-JKFIT
    Number of shells: 80
    Number of basis function: 256
    Number of Cartesian functions: 300
    Spherical Harmonics?: true
    Max angular momentum: 3

  Cached 100.0% of DFT collocation blocks in 0.182 [GiB].

  Minimum eigenvalue in the overlap matrix is 3.1003292298E-03.
  Using Symmetric Orthogonalization.

  SCF Guess: Orbitals guess was supplied from a previous computation.

  ==> Iterations <==

                           Total Energy        Delta E     RMS |[F,P]|

   @DF-RKS iter   0:  -920.33185214315620   -9.20332e+02   1.72579e-04 
   @DF-RKS iter   1:  -920.33296955033904   -1.11741e-03   3.28124e-05 DIIS
   @DF-RKS iter   2:  -920.33296975752376   -2.07185e-07   2.33252e-05 DIIS
   @DF-RKS iter   3:  -920.33296987644678   -1.18923e-07   1.37207e-06 DIIS
   @DF-RKS iter   4:  -920.33296987750623   -1.05945e-09   3.49952e-07 DIIS
   @DF-RKS iter   5:  -920.33296987757501   -6.87805e-11   1.00271e-07 DIIS
   @DF-RKS iter   6:  -920.33296987757944   -4.43379e-12   5.33092e-09 DIIS
  Energy and wave function converged.


  ==> Post-Iterations <==

    Orbital Energies [Eh]
    ---------------------

    Doubly Occupied:                                                      

       1B1u -101.942141     1Ag  -101.942140     2B1u   -9.704981  
       2Ag    -9.704916     3Ag    -7.412955     3B1u   -7.412833  
       1B3g   -7.398883     1B2g   -7.398883     1B2u   -7.398881  
       1B3u   -7.398881     4Ag    -1.063527     4B1u   -0.893836  
       5Ag    -0.569815     2B2u   -0.516357     2B3u   -0.516357  
       2B3g   -0.406981     2B2g   -0.406981  

    Virtual:                                                              

       5B1u   -0.043958     6B1u    0.079566     6Ag     0.090336  
       3B3u    0.100788     3B2u    0.100788     7Ag     0.118109  
       3B2g    0.132236     3B3g    0.132236     7B1u    0.259550  
       4B2u    0.305859     4B3u    0.305859     8Ag     0.319077  
       1B1g    0.319080     9Ag     0.419483     8B1u    0.441595  
       1Au     0.441599     4B3g    0.572863     4B2g    0.572863  
       9B1u    0.597321     5B3u    0.754635     5B2u    0.754635  
      10B1u    0.842131     5B2g    0.863995     5B3g    0.863995  
      10Ag     0.884791    11Ag     0.990170     2B1g    1.070952  
      12Ag     1.070975     6B3u    1.092659     6B2u    1.092659  
       2Au     1.121595    11B1u    1.121616    13Ag     1.152687  
       6B2g    1.167336     6B3g    1.167336    12B1u    1.220970  
      13B1u    1.672564    14Ag     5.416608     7B3u    5.472096  
       7B2u    5.472096     3B1g    5.513349    15Ag     5.513384  
       3Au     5.541813    14B1u    5.541848     7B2g    5.592079  
       7B3g    5.592079    15B1u    5.721751  

    Final Occupation by Irrep:
             Ag   B1g   B2g   B3g    Au   B1u   B2u   B3u 
    DOCC [     5,    0,    2,    2,    0,    4,    2,    2 ]

  @DF-RKS Final Energy:  -920.33296987757944

   => Energetics <=

    Nuclear Repulsion Energy =             76.3689070482195831
    One-Electron Energy =               -1421.9300580711183102
    Two-Electron Energy =                 468.7415378701912800
    DFT Exchange-Correlation Energy =     -43.6556921347651468
    Empirical Dispersion Energy =           0.0000000000000000
    VV10 Nonlocal Energy =                  0.1423354098931448
    Total Energy =                       -920.3329698775794441

Computation Completed


Properties will be evaluated at   0.000000,   0.000000,   0.000000 [a0]

Properties computed using the SCF density matrix

  Nuclear Dipole Moment: [e a0]
     X:     0.0000      Y:     0.0000      Z:     0.0000

  Electronic Dipole Moment: [e a0]
     X:     0.0000      Y:     0.0000      Z:     0.0000

  Dipole Moment: [e a0]
     X:     0.0000      Y:     0.0000      Z:     0.0000     Total:     0.0000

  Dipole Moment: [D]
     X:     0.0000      Y:     0.0000      Z:     0.0000     Total:     0.0000


*** tstop() called on bp1-compute00107.data.bp.acrc.priv at Tue Apr 27 17:56:20 2021
Module time:
	user time   =      36.61 seconds =       0.61 minutes
	system time =       1.13 seconds =       0.02 minutes
	total time  =          1 seconds =       0.02 minutes
Total time:
	user time   =     290.27 seconds =       4.84 minutes
	system time =      10.66 seconds =       0.18 minutes
	total time  =         13 seconds =       0.22 minutes

  //>>>>>>>>>>>>>>>>>>>>>>>>>>>>>>>>>>>//
  //    Loading displacement 2 of 3    //
  //<<<<<<<<<<<<<<<<<<<<<<<<<<<<<<<<<<<//

*** tstart() called on bp1-compute00107.data.bp.acrc.priv
*** at Tue Apr 27 17:56:20 2021

   => Loading Basis Set <=

    Name: AUG-CC-PV(D+D)Z
    Role: ORBITAL
    Keyword: BASIS
    atoms 1-2 entry CL         line   792 file /work/zw18965/.conda/envs/p4env/share/psi4/basis/aug-cc-pv_dpd_z.gbs 


         ---------------------------------------------------------
                                   SCF
               by Justin Turney, Rob Parrish, Andy Simmonett
                          and Daniel G. A. Smith
                              RKS Reference
[...]

       1B1u -101.942176     1Ag  -101.942175     2B1u   -9.705003  
       2Ag    -9.704938     3Ag    -7.412978     3B1u   -7.412857  
       1B3g   -7.398905     1B2g   -7.398905     1B2u   -7.398903  
       1B3u   -7.398903     4Ag    -1.063366     4B1u   -0.893903  
       5Ag    -0.569740     2B3u   -0.516281     2B2u   -0.516281  
       2B2g   -0.407038     2B3g   -0.407038  

    Virtual:                                                              

       5B1u   -0.044146     6B1u    0.079538     6Ag     0.090333  
       3B2u    0.100796     3B3u    0.100796     7Ag     0.118127  
       3B3g    0.132232     3B2g    0.132232     7B1u    0.259538  
       4B2u    0.305838     4B3u    0.305838     8Ag     0.319116  
       1B1g    0.319119     9Ag     0.419491     8B1u    0.441548  
       1Au     0.441552     4B2g    0.572752     4B3g    0.572752  
       9B1u    0.597156     5B3u    0.754621     5B2u    0.754621  
      10B1u    0.842288     5B3g    0.863954     5B2g    0.863954  
      10Ag     0.884724    11Ag     0.990039     2B1g    1.070953  
      12Ag     1.070977     6B2u    1.092766     6B3u    1.092766  
       2Au     1.121585    11B1u    1.121606    13Ag     1.152905  
       6B2g    1.167263     6B3g    1.167263    12B1u    1.220744  
      13B1u    1.672150    14Ag     5.416667     7B3u    5.472231  
       7B2u    5.472231     3B1g    5.513352    15Ag     5.513387  
       3Au     5.541781    14B1u    5.541816     7B2g    5.591896  
       7B3g    5.591896    15B1u    5.721465  

    Final Occupation by Irrep:
             Ag   B1g   B2g   B3g    Au   B1u   B2u   B3u 
    DOCC [     5,    0,    2,    2,    0,    4,    2,    2 ]

  @DF-RKS Final Energy:  -920.33296973852316

   => Energetics <=

    Nuclear Repulsion Energy =             76.3447834320167971
    One-Electron Energy =               -1421.8818404242706492
    Two-Electron Energy =                 468.7172474062768401
    DFT Exchange-Correlation Energy =     -43.6554967520670729
    Empirical Dispersion Energy =           0.0000000000000000
    VV10 Nonlocal Energy =                  0.1423365995208319
    Total Energy =                       -920.3329697385232748

Computation Completed


Properties will be evaluated at   0.000000,   0.000000,   0.000000 [a0]

Properties computed using the SCF density matrix

  Nuclear Dipole Moment: [e a0]
     X:     0.0000      Y:     0.0000      Z:     0.0000

  Electronic Dipole Moment: [e a0]
     X:     0.0000      Y:     0.0000      Z:     0.0000

  Dipole Moment: [e a0]
     X:     0.0000      Y:     0.0000      Z:     0.0000     Total:     0.0000

  Dipole Moment: [D]
     X:     0.0000      Y:     0.0000      Z:     0.0000     Total:     0.0000


*** tstop() called on bp1-compute00107.data.bp.acrc.priv at Tue Apr 27 17:56:34 2021
Module time:
	user time   =      50.43 seconds =       0.84 minutes
	system time =       1.77 seconds =       0.03 minutes
	total time  =          2 seconds =       0.03 minutes
Total time:
	user time   =     603.82 seconds =      10.06 minutes
	system time =      20.77 seconds =       0.35 minutes
	total time  =         27 seconds =       0.45 minutes

  //>>>>>>>>>>>>>>>>>>>>>>>>>>>>>>>>>>>//
  //    Loading displacement 3 of 3    //
  //<<<<<<<<<<<<<<<<<<<<<<<<<<<<<<<<<<<//

*** tstart() called on bp1-compute00107.data.bp.acrc.priv
*** at Tue Apr 27 17:56:34 2021

   => Loading Basis Set <=

    Name: AUG-CC-PV(D+D)Z
    Role: ORBITAL
    Keyword: BASIS
    atoms 1-2 entry CL         line   792 file /work/zw18965/.conda/envs/p4env/share/psi4/basis/aug-cc-pv_dpd_z.gbs 


         ---------------------------------------------------------
                                   SCF
               by Justin Turney, Rob Parrish, Andy Simmonett
                          and Daniel G. A. Smith
                              RKS Reference
                       24 Threads, 137329 MiB Core
         ---------------------------------------------------------

  ==> Geometry <==

    Molecular point group: d2h
    Full point group: D_inf_h

    Geometry (in Angstrom), charge = 0, multiplicity = 1:

       Center              X                  Y                   Z               Mass       
    ------------   -----------------  -----------------  -----------------  -----------------
         CL           0.000000000000     0.000000000000    -1.000956383221    34.968852682000
         CL           0.000000000000     0.000000000000     1.000956383221    34.968852682000

  Running in d2h symmetry.

  Rotational constants: A = ************  B =      0.24058  C =      0.24058 [cm^-1]
  Rotational constants: A = ************  B =   7212.32873  C =   7212.32873 [MHz]
  Nuclear repulsion =   76.393045914522602

  Charge       = 0
  Multiplicity = 1
  Electrons    = 34
  Nalpha       = 17
  Nbeta        = 17

  ==> Algorithm <==

  SCF Algorithm Type is DF.
  DIIS enabled.
  MOM disabled.
  Fractional occupation disabled.
  Guess Type is SAD.
  Energy threshold   = 1.00e-10
  Density threshold  = 1.00e-10
  Integral threshold = 0.00e+00

  ==> Primary Basis <==

  Basis Set: AUG-CC-PV(D+D)Z
    Blend: AUG-CC-PV(D+D)Z
    Number of shells: 24
    Number of basis function: 64
    Number of Cartesian functions: 70
    Spherical Harmonics?: true
    Max angular momentum: 2

  ==> DFT Potential <==

   => Composite Functional: WB97M-V <= 

    wB97M-V Hyb-GGA Exchange-Correlation Functional

    N. Mardirossian and M. Head-Gordon, J. Chem. Phys. 144, 214110 (2016)

    Deriv               =              1
    GGA                 =           TRUE
    Meta                =           TRUE

    Exchange Hybrid     =           TRUE
    MP2 Hybrid          =          FALSE

   => Exchange-Correlation Functionals <=

    1.0000   wB97M-V exchange-correlation functional

   => Exact (HF) Exchange <=

    0.8500            HF,LR [omega = 0.3000]
    0.1500               HF 

   => VV10 Non-Local Parameters <=

    VV10 B              =     6.0000E+00
    VV10 C              =     1.0000E-02

   => Molecular Quadrature <=

    Radial Scheme          =       TREUTLER
    Pruning Scheme         =           FLAT
    Nuclear Scheme         =       TREUTLER

    BS radius alpha        =              1
    Pruning alpha          =              1
    Radial Points          =             75
    Spherical Points       =            302
    Total Points           =          44714
    Total Blocks           =            426
    Max Points             =            254
    Max Functions          =             64

   => Loading Basis Set <=

    Name: (AUG-CC-PV(D+D)Z AUX)
    Role: JKFIT
    Keyword: DF_BASIS_SCF
    atoms 1-2 entry CL         line   772 file /work/zw18965/.conda/envs/p4env/share/psi4/basis/aug-cc-pvdz-jkfit.gbs 

  ==> Pre-Iterations <==

   -------------------------------------------------------
    Irrep   Nso     Nmo     Nalpha   Nbeta   Ndocc  Nsocc
   -------------------------------------------------------
     Ag        15      15       0       0       0       0
     B1g        3       3       0       0       0       0
     B2g        7       7       0       0       0       0
     B3g        7       7       0       0       0       0
     Au         3       3       0       0       0       0
     B1u       15      15       0       0       0       0
     B2u        7       7       0       0       0       0
     B3u        7       7       0       0       0       0
   -------------------------------------------------------
    Total      64      64      17      17      17       0
   -------------------------------------------------------

  ==> Integral Setup <==

  ==> DiskDFJK: Density-Fitted J/K Matrices <==

    J tasked:                  Yes
    K tasked:                  Yes
    wK tasked:                 Yes
    Omega:               3.000E-01
    OpenMP threads:             24
    Integrals threads:          24
    Memory [MiB]:           102810
    Algorithm:                Core
    Integral Cache:           NONE
    Schwarz Cutoff:          1E-12
    Fitting Condition:       1E-10

   => Auxiliary Basis Set <=

  Basis Set: (AUG-CC-PV(D+D)Z AUX)
    Blend: AUG-CC-PVDZ-JKFIT
    Number of shells: 80
    Number of basis function: 256
    Number of Cartesian functions: 300
    Spherical Harmonics?: true
    Max angular momentum: 3

  Cached 100.0% of DFT collocation blocks in 0.182 [GiB].

  Minimum eigenvalue in the overlap matrix is 3.0940969781E-03.
  Using Symmetric Orthogonalization.

  SCF Guess: Superposition of Atomic Densities via on-the-fly atomic UHF.

  ==> Iterations <==

                           Total Energy        Delta E     RMS |[F,P]|

   @DF-RKS iter SAD:  -920.22956917596923   -9.20230e+02   0.00000e+00 
   @DF-RKS iter   1:  -920.31906719311337   -8.94980e-02   6.58407e-03 DIIS
   @DF-RKS iter   2:  -920.32960230561093   -1.05351e-02   4.00259e-03 DIIS
   @DF-RKS iter   3:  -920.33288613961895   -3.28383e-03   3.67826e-04 DIIS
   @DF-RKS iter   4:  -920.33296079298998   -7.46534e-05   1.29177e-04 DIIS
   @DF-RKS iter   5:  -920.33296935105341   -8.55806e-06   2.13673e-05 DIIS
   @DF-RKS iter   6:  -920.33296970437812   -3.53325e-07   2.33603e-06 DIIS
   @DF-RKS iter   7:  -920.33296970767549   -3.29737e-09   2.05706e-07 DIIS
   @DF-RKS iter   8:  -920.33296970770300   -2.75122e-11   2.93425e-08 DIIS
   @DF-RKS iter   9:  -920.33296970770436   -1.36424e-12   1.78211e-09 DIIS
   @DF-RKS iter  10:  -920.33296970770380    5.68434e-13   1.61310e-10 DIIS
   @DF-RKS iter  11:  -920.33296970770425   -4.54747e-13   1.45565e-11 DIIS
  Energy and wave function converged.


  ==> Post-Iterations <==

    Orbital Energies [Eh]
    ---------------------

    Doubly Occupied:                                                      

       1B1u -101.942106     1Ag  -101.942105     2B1u   -9.704960  
       2Ag    -9.704894     3Ag    -7.412931     3B1u   -7.412809  
       1B3g   -7.398860     1B2g   -7.398860     1B2u   -7.398858  
       1B3u   -7.398858     4Ag    -1.063688     4B1u   -0.893769  
       5Ag    -0.569889     2B2u   -0.516432     2B3u   -0.516432  
       2B2g   -0.406925     2B3g   -0.406925  

    Virtual:                                                              

       5B1u   -0.043771     6B1u    0.079595     6Ag     0.090339  
       3B2u    0.100779     3B3u    0.100779     7Ag     0.118090  
       3B3g    0.132241     3B2g    0.132241     7B1u    0.259562  
       4B2u    0.305880     4B3u    0.305880     8Ag     0.319038  
       1B1g    0.319041     9Ag     0.419475     8B1u    0.441643  
       1Au     0.441647     4B3g    0.572974     4B2g    0.572974  
       9B1u    0.597487     5B2u    0.754648     5B3u    0.754648  
      10B1u    0.841975     5B3g    0.864036     5B2g    0.864036  
      10Ag     0.884857    11Ag     0.990302     2B1g    1.070950  
      12Ag     1.070974     6B3u    1.092552     6B2u    1.092552  
       2Au     1.121605    11B1u    1.121626    13Ag     1.152469  
       6B2g    1.167409     6B3g    1.167409    12B1u    1.221197  
      13B1u    1.672979    14Ag     5.416551     7B3u    5.471961  
       7B2u    5.471961     3B1g    5.513347    15Ag     5.513381  
       3Au     5.541845    14B1u    5.541880     7B2g    5.592264  
       7B3g    5.592264    15B1u    5.722036  

    Final Occupation by Irrep:
             Ag   B1g   B2g   B3g    Au   B1u   B2u   B3u 
    DOCC [     5,    0,    2,    2,    0,    4,    2,    2 ]

  @DF-RKS Final Energy:  -920.33296970770425

   => Energetics <=

    Nuclear Repulsion Energy =             76.3930459145226024
    One-Electron Energy =               -1421.9783066657137169
    Two-Electron Energy =                 468.7658446506255245
    DFT Exchange-Correlation Energy =     -43.6558878276187414
    Empirical Dispersion Energy =           0.0000000000000000
    VV10 Nonlocal Energy =                  0.1423342204800684
    Total Energy =                       -920.3329697077042511

Computation Completed


Properties will be evaluated at   0.000000,   0.000000,   0.000000 [a0]

Properties computed using the SCF density matrix

  Nuclear Dipole Moment: [e a0]
     X:     0.0000      Y:     0.0000      Z:    -0.0000

  Electronic Dipole Moment: [e a0]
     X:     0.0000      Y:     0.0000      Z:     0.0000

  Dipole Moment: [e a0]
     X:     0.0000      Y:     0.0000      Z:    -0.0000     Total:     0.0000

  Dipole Moment: [D]
     X:     0.0000      Y:     0.0000      Z:    -0.0000     Total:     0.0000


*** tstop() called on bp1-compute00107.data.bp.acrc.priv at Tue Apr 27 17:56:36 2021
Module time:
	user time   =      49.24 seconds =       0.82 minutes
	system time =       1.54 seconds =       0.03 minutes
	total time  =          2 seconds =       0.03 minutes
Total time:
	user time   =     653.20 seconds =      10.89 minutes
	system time =      22.32 seconds =       0.37 minutes
	total time  =         29 seconds =       0.48 minutes

         ----------------------------------------------------------
                                   FINDIF
                     R. A. King and Jonathon Misiewicz
         ---------------------------------------------------------

  Computing second-derivative from energies using projected, 
  symmetry-adapted, cartesian coordinates.

  3 energies passed in, including the reference geometry.
    Using 3-point formula.
    Energy without displacement: -920.3329698776
    Check energies below for precision!
    0: -1 :      -920.3329697385
    0: 1  :      -920.3329697077

-------------------------------------------------------------


  ==> Harmonic Vibrational Analysis <==

  non-mass-weighted Hessian:       Symmetric? True   Hermitian? True   Lin Dep Dim?  5 (0)
  projection of translations (True) and rotations (True) removed 5 degrees of freedom (5)
  total projector:                 Symmetric? True   Hermitian? True   Lin Dep Dim?  5 (5)
  mass-weighted Hessian:           Symmetric? True   Hermitian? True   Lin Dep Dim?  5 (0)
  pre-proj  low-frequency mode:    0.0000  [cm^-1]
  pre-proj  low-frequency mode:    0.0000  [cm^-1]
  pre-proj  low-frequency mode:    0.0000  [cm^-1]
  pre-proj  low-frequency mode:    0.0000  [cm^-1]
  pre-proj  low-frequency mode:    0.0000  [cm^-1]
  pre-proj  all modes:['0.0000' '0.0000' '0.0000' '0.0000' '0.0000' '571.4335']
  projected mass-weighted Hessian: Symmetric? True   Hermitian? True   Lin Dep Dim?  5 (5)
  post-proj low-frequency mode:    0.0000  [cm^-1] (TR)
  post-proj low-frequency mode:    0.0000  [cm^-1] (TR)
  post-proj low-frequency mode:    0.0000  [cm^-1] (TR)
  post-proj low-frequency mode:    0.0000  [cm^-1] (TR)
  post-proj low-frequency mode:    0.0000  [cm^-1] (TR)
  post-proj  all modes:['0.0000' '0.0000' '0.0000' '0.0000' '0.0000' '571.4335']

  Vibration                       6           
  Freq [cm^-1]                 571.4335       
  Irrep                           Ag          
  Reduced mass [u]             34.9689        
  Force const [mDyne/A]         6.7276        
  Turning point v=0 [a0]        0.0776        
  RMS dev v=0 [a0 u^1/2]        0.3246        
  Char temp [K]                822.1655       
  ----------------------------------------------------------------------------------
      1   CL               0.00  0.00  0.71   
      2   CL               0.00  0.00 -0.71   

  ==> Thermochemistry Components <==

  Entropy, S
    Electronic S            0.000 [cal/(mol K)]        0.000 [J/(mol K)]       0.00000000 [mEh/K] (multiplicity = 1)
    Translational S        38.652 [cal/(mol K)]      161.721 [J/(mol K)]       0.06159614 [mEh/K] (mol. weight = 69.9377 [u], P = 101325.00 [Pa])
    Rotational S           14.042 [cal/(mol K)]       58.750 [J/(mol K)]       0.02237669 [mEh/K] (symmetry no. = 2)
    Vibrational S           0.501 [cal/(mol K)]        2.098 [J/(mol K)]       0.00079917 [mEh/K]
  Total S                  53.195 [cal/(mol K)]      222.569 [J/(mol K)]       0.08477200 [mEh/K]
  Correction S              0.000 [cal/(mol K)]        0.000 [J/(mol K)]       0.00000000 [mEh/K]

  Constant volume heat capacity, Cv
    Electronic Cv           0.000 [cal/(mol K)]        0.000 [J/(mol K)]       0.00000000 [mEh/K]
    Translational Cv        2.981 [cal/(mol K)]       12.472 [J/(mol K)]       0.00475022 [mEh/K]
    Rotational Cv           1.987 [cal/(mol K)]        8.314 [J/(mol K)]       0.00316681 [mEh/K]
    Vibrational Cv          1.093 [cal/(mol K)]        4.573 [J/(mol K)]       0.00174186 [mEh/K]
  Total Cv                  6.061 [cal/(mol K)]       25.359 [J/(mol K)]       0.00965889 [mEh/K]
  Correction Cv             0.000 [cal/(mol K)]        0.000 [J/(mol K)]       0.00000000 [mEh/K]

  Constant pressure heat capacity, Cp
    Electronic Cp           0.000 [cal/(mol K)]        0.000 [J/(mol K)]       0.00000000 [mEh/K]
    Translational Cp        4.968 [cal/(mol K)]       20.786 [J/(mol K)]       0.00791703 [mEh/K]
    Rotational Cp           1.987 [cal/(mol K)]        8.314 [J/(mol K)]       0.00316681 [mEh/K]
    Vibrational Cp          1.093 [cal/(mol K)]        4.573 [J/(mol K)]       0.00174186 [mEh/K]
  Total Cp                  8.048 [cal/(mol K)]       33.674 [J/(mol K)]       0.01282570 [mEh/K]
  Correction Cp             0.000 [cal/(mol K)]        0.000 [J/(mol K)]       0.00000000 [mEh/K]

  ==> Thermochemistry Energy Analysis <==

  Raw electronic energy, E0
  Total E0, Electronic energy at well bottom at 0 [K]                 -920.33296988 [Eh]

  Zero-point energy, ZPE_vib = Sum_i nu_i / 2
    Electronic ZPE          0.000 [kcal/mol]        0.000 [kJ/mol]       0.00000000 [Eh]
    Translational ZPE       0.000 [kcal/mol]        0.000 [kJ/mol]       0.00000000 [Eh]
    Rotational ZPE          0.000 [kcal/mol]        0.000 [kJ/mol]       0.00000000 [Eh]
    Vibrational ZPE         0.817 [kcal/mol]        3.418 [kJ/mol]       0.00130182 [Eh]         285.717 [cm^-1]
  Correction ZPE            0.817 [kcal/mol]        3.418 [kJ/mol]       0.00130182 [Eh]         285.717 [cm^-1]
  Total ZPE, Electronic energy at 0 [K]                               -920.33166806 [Eh]

  Thermal Energy, E (includes ZPE)
    Electronic E            0.000 [kcal/mol]        0.000 [kJ/mol]       0.00000000 [Eh]
    Translational E         0.889 [kcal/mol]        3.718 [kJ/mol]       0.00141628 [Eh]
    Rotational E            0.592 [kcal/mol]        2.479 [kJ/mol]       0.00094418 [Eh]
    Vibrational E           0.928 [kcal/mol]        3.881 [kJ/mol]       0.00147820 [Eh]
  Correction E              2.409 [kcal/mol]       10.078 [kJ/mol]       0.00383867 [Eh]
  Total E, Electronic energy at  298.15 [K]                           -920.32913121 [Eh]

  Enthalpy, H_trans = E_trans + k_B * T
    Electronic H            0.000 [kcal/mol]        0.000 [kJ/mol]       0.00000000 [Eh]
    Translational H         1.481 [kcal/mol]        6.197 [kJ/mol]       0.00236046 [Eh]
    Rotational H            0.592 [kcal/mol]        2.479 [kJ/mol]       0.00094418 [Eh]
    Vibrational H           0.928 [kcal/mol]        3.881 [kJ/mol]       0.00147820 [Eh]
  Correction H              3.001 [kcal/mol]       12.557 [kJ/mol]       0.00478285 [Eh]
  Total H, Enthalpy at  298.15 [K]                                    -920.32818703 [Eh]

  Gibbs free energy, G = H - T * S
    Electronic G            0.000 [kcal/mol]        0.000 [kJ/mol]       0.00000000 [Eh]
    Translational G       -10.043 [kcal/mol]      -42.020 [kJ/mol]      -0.01600443 [Eh]
    Rotational G           -3.594 [kcal/mol]      -15.037 [kJ/mol]      -0.00572742 [Eh]
    Vibrational G           0.778 [kcal/mol]        3.255 [kJ/mol]       0.00123993 [Eh]
  Correction G            -12.859 [kcal/mol]      -53.802 [kJ/mol]      -0.02049192 [Eh]
  Total G, Free enthalpy at  298.15 [K]                               -920.35346180 [Eh]

    Psi4 stopped on: Tuesday, 27 April 2021 05:56PM
    Psi4 wall time for execution: 0:00:29.34

*** Psi4 exiting successfully. Buy a developer a beer!
