
    -----------------------------------------------------------------------
          Psi4: An Open-Source Ab Initio Electronic Structure Package
                               Psi4 1.3.2 release

                         Git: Rev {HEAD} ecbda83 


    R. M. Parrish, L. A. Burns, D. G. A. Smith, A. C. Simmonett,
    A. E. DePrince III, E. G. Hohenstein, U. Bozkaya, A. Yu. Sokolov,
    R. Di Remigio, R. M. Richard, J. F. Gonthier, A. M. James,
    H. R. McAlexander, A. Kumar, M. Saitow, X. Wang, B. P. Pritchard,
    P. Verma, H. F. Schaefer III, K. Patkowski, R. A. King, E. F. Valeev,
    F. A. Evangelista, J. M. Turney, T. D. Crawford, and C. D. Sherrill,
    J. Chem. Theory Comput. 13(7) pp 3185--3197 (2017).
    (doi: 10.1021/acs.jctc.7b00174)


                         Additional Contributions by
    P. Kraus, H. Kruse, M. H. Lechner, M. C. Schieber, R. A. Shaw,
    A. Alenaizan, R. Galvelis, Z. L. Glick, S. Lehtola, and J. P. Misiewicz

    -----------------------------------------------------------------------


    Psi4 started on: Tuesday, 27 April 2021 05:57PM

    Process ID: 213546
    Host:       bp1-compute00099.data.bp.acrc.priv
    PSIDATADIR: /work/zw18965/.conda/envs/p4env/share/psi4
    Memory:     500.0 MiB
    Threads:    24
    
  ==> Input File <==

--------------------------------------------------------------------------
memory 144 GB

molecule {
0 1
Cl 0.0000000000 0.0000000000 0.0000000000
C 0.0000000000 0.0000000000 1.6357056100
N 0.0000000000 0.0000000000 2.7976884200
}

set dynamic_level 1
set basis aug-cc-pV(D+d)Z
 
optimize("wB97M-V")
frequencies("wB97M-V")
--------------------------------------------------------------------------

  Memory set to 134.110 GiB by Python driver.
gradient() will perform gradient computation by finite difference of analytic energies.

         ----------------------------------------------------------
                                   FINDIF
                     R. A. King and Jonathon Misiewicz
         ---------------------------------------------------------

  Using finite-differences of energies to determine gradients.
    Generating geometries for use with 3-point formula.
    Displacement size will be 5.00e-03.
    Number of atoms is 3.
    Number of symmetric SALCs is 2.
    Translations projected? 1. Rotations projected? 1.
    Number of geometries (including reference) is 5.

  //>>>>>>>>>>>>>>>>>>>>>>>>>>>>>>>>>>>//
  //    Loading displacement 1 of 5    //
  //<<<<<<<<<<<<<<<<<<<<<<<<<<<<<<<<<<<//

*** tstart() called on bp1-compute00099.data.bp.acrc.priv
*** at Tue Apr 27 17:57:11 2021

   => Loading Basis Set <=

    Name: AUG-CC-PV(D+D)Z
    Role: ORBITAL
    Keyword: BASIS
    atoms 1 entry CL         line   792 file /work/zw18965/.conda/envs/p4env/share/psi4/basis/aug-cc-pv_dpd_z.gbs 
    atoms 2 entry C          line   198 file /work/zw18965/.conda/envs/p4env/share/psi4/basis/aug-cc-pv_dpd_z.gbs 
    atoms 3 entry N          line   234 file /work/zw18965/.conda/envs/p4env/share/psi4/basis/aug-cc-pv_dpd_z.gbs 


         ---------------------------------------------------------
                                   SCF
               by Justin Turney, Rob Parrish, Andy Simmonett
                          and Daniel G. A. Smith
                              RKS Reference
                       24 Threads, 137329 MiB Core
         ---------------------------------------------------------

  ==> Geometry <==

    Molecular point group: c2v
    Full point group: C_inf_v

    Geometry (in Angstrom), charge = 0, multiplicity = 1:

       Center              X                  Y                   Z               Mass       
    ------------   -----------------  -----------------  -----------------  -----------------
         CL           0.000000000000     0.000000000000    -0.964455422395    34.968852682000
         C            0.000000000000     0.000000000000     0.671250187605    12.000000000000
         N            0.000000000000     0.000000000000     1.833232997605    14.003074004430

  Running in c2v symmetry.

  Rotational constants: A = ************  B =      0.19834  C =      0.19834 [cm^-1]
  Rotational constants: A = ************  B =   5946.00023  C =   5946.00023 [MHz]
  Nuclear repulsion =   74.634432970989252

  Charge       = 0
  Multiplicity = 1
  Electrons    = 30
  Nalpha       = 15
  Nbeta        = 15

  ==> Algorithm <==

  SCF Algorithm Type is DF.
  DIIS enabled.
  MOM disabled.
  Fractional occupation disabled.
  Guess Type is SAD.
  Energy threshold   = 1.00e-08
  Density threshold  = 1.00e-08
  Integral threshold = 0.00e+00

  ==> Primary Basis <==

  Basis Set: AUG-CC-PV(D+D)Z
    Blend: AUG-CC-PV(D+D)Z
    Number of shells: 30
    Number of basis function: 78
    Number of Cartesian functions: 85
    Spherical Harmonics?: true
    Max angular momentum: 2

  ==> DFT Potential <==

   => Composite Functional: WB97M-V <= 

    wB97M-V Hyb-GGA Exchange-Correlation Functional

    N. Mardirossian and M. Head-Gordon, J. Chem. Phys. 144, 214110 (2016)

    Deriv               =              1
    GGA                 =           TRUE
    Meta                =           TRUE

    Exchange Hybrid     =           TRUE
    MP2 Hybrid          =          FALSE

   => Exchange-Correlation Functionals <=

    1.0000   wB97M-V exchange-correlation functional

   => Exact (HF) Exchange <=

    0.8500            HF,LR [omega = 0.3000]
    0.1500               HF 

   => VV10 Non-Local Parameters <=

    VV10 B              =     6.0000E+00
    VV10 C              =     1.0000E-02

   => Molecular Quadrature <=

    Radial Scheme          =       TREUTLER
    Pruning Scheme         =           FLAT
    Nuclear Scheme         =       TREUTLER

    BS radius alpha        =              1
    Pruning alpha          =              1
    Radial Points          =             75
    Spherical Points       =            302
    Total Points           =          67729
    Total Blocks           =            599
    Max Points             =            253
    Max Functions          =             78

   => Loading Basis Set <=

    Name: (AUG-CC-PV(D+D)Z AUX)
    Role: JKFIT
    Keyword: DF_BASIS_SCF
    atoms 1 entry CL         line   772 file /work/zw18965/.conda/envs/p4env/share/psi4/basis/aug-cc-pvdz-jkfit.gbs 
    atoms 2 entry C          line   154 file /work/zw18965/.conda/envs/p4env/share/psi4/basis/aug-cc-pvdz-jkfit.gbs 
    atoms 3 entry N          line   212 file /work/zw18965/.conda/envs/p4env/share/psi4/basis/aug-cc-pvdz-jkfit.gbs 

  ==> Pre-Iterations <==

   -------------------------------------------------------
    Irrep   Nso     Nmo     Nalpha   Nbeta   Ndocc  Nsocc
   -------------------------------------------------------
     A1        37      37       0       0       0       0
     A2         7       7       0       0       0       0
     B1        17      17       0       0       0       0
     B2        17      17       0       0       0       0
   -------------------------------------------------------
    Total      78      78      15      15      15       0
   -------------------------------------------------------

  ==> Integral Setup <==

  ==> DiskDFJK: Density-Fitted J/K Matrices <==

    J tasked:                  Yes
    K tasked:                  Yes
    wK tasked:                 Yes
    Omega:               3.000E-01
    OpenMP threads:             24
    Integrals threads:          24
    Memory [MiB]:           102638
    Algorithm:                Core
    Integral Cache:           NONE
    Schwarz Cutoff:          1E-12
    Fitting Condition:       1E-10

   => Auxiliary Basis Set <=

  Basis Set: (AUG-CC-PV(D+D)Z AUX)
    Blend: AUG-CC-PVDZ-JKFIT
    Number of shells: 96
    Number of basis function: 300
    Number of Cartesian functions: 352
    Spherical Harmonics?: true
    Max angular momentum: 3

  Cached 100.0% of DFT collocation blocks in 0.350 [GiB].

  Minimum eigenvalue in the overlap matrix is 7.7106276439E-04.
  Using Symmetric Orthogonalization.

  SCF Guess: Superposition of Atomic Densities via on-the-fly atomic UHF.

  ==> Iterations <==

                           Total Energy        Delta E     RMS |[F,P]|

   @DF-RKS iter SAD:  -552.45978067296369   -5.52460e+02   0.00000e+00 
   @DF-RKS iter   1:  -552.79796036279186   -3.38180e-01   1.40638e-02 DIIS
   @DF-RKS iter   2:  -552.58228297431253    2.15677e-01   2.07351e-02 DIIS
   @DF-RKS iter   3:  -552.98741188333349   -4.05129e-01   1.54771e-03 DIIS
   @DF-RKS iter   4:  -552.98976323808108   -2.35135e-03   7.97713e-04 DIIS
   @DF-RKS iter   5:  -552.99043930726793   -6.76069e-04   1.57819e-04 DIIS
   @DF-RKS iter   6:  -552.99048514760250   -4.58403e-05   3.99768e-05 DIIS
   @DF-RKS iter   7:  -552.99048945686241   -4.30926e-06   6.35223e-06 DIIS
   @DF-RKS iter   8:  -552.99048954441685   -8.75544e-08   1.83292e-06 DIIS
   @DF-RKS iter   9:  -552.99048955086187   -6.44502e-09   3.00607e-07 DIIS
   @DF-RKS iter  10:  -552.99048955109720   -2.35332e-10   8.61691e-08 DIIS
   @DF-RKS iter  11:  -552.99048955110970   -1.25056e-11   8.50287e-09 DIIS
  Energy and wave function converged.


  ==> Post-Iterations <==

    Orbital Energies [Eh]
    ---------------------

    Doubly Occupied:                                                      

       1A1  -101.976725     2A1   -14.559975     3A1   -10.468770  
       4A1    -9.740108     5A1    -7.445916     1B1    -7.435073  
       1B2    -7.435073     6A1    -1.095632     7A1    -1.035050  
       8A1    -0.690114     2B1    -0.551964     2B2    -0.551964  
       9A1    -0.505143     3B1    -0.436103     3B2    -0.436103  

    Virtual:                                                              

      10A1     0.016994    11A1     0.060010    12A1     0.077678  
       4B1     0.078335     4B2     0.078335     5B1     0.085229  
       5B2     0.085229     6B2     0.123227     6B1     0.123227  
      13A1     0.124105    14A1     0.192754     7B2     0.222115  
       7B1     0.222115    15A1     0.244386    16A1     0.292607  
       1A2     0.294619    17A1     0.294621    18A1     0.451590  
       8B1     0.457127     8B2     0.457127     2A2     0.457842  
      19A1     0.457844     9B2     0.580890     9B1     0.580890  
      20A1     0.582043    21A1     0.662569    10B1     0.694748  
      10B2     0.694748     3A2     0.774600    22A1     0.774601  
      23A1     0.800647    11B2     0.880322    11B1     0.880322  
      24A1     0.889433    12B1     0.942569    12B2     0.942569  
      25A1     1.084625     4A2     1.084631    26A1     1.090981  
      13B1     1.128264    13B2     1.128264    27A1     1.166781  
      28A1     1.249512    29A1     1.457418     5A2     1.457421  
      14B2     1.517616    14B1     1.517616    15B2     1.694747  
      15B1     1.694747    30A1     1.789531    31A1     1.868277  
      32A1     2.123275    33A1     2.370836     6A2     2.370836  
      16B2     2.621983    16B1     2.621983    34A1     2.956388  
      35A1     3.154527    36A1     5.500472     7A2     5.500500  
      17B1     5.572352    17B2     5.572352    37A1     5.641862  

    Final Occupation by Irrep:
             A1    A2    B1    B2 
    DOCC [     9,    0,    3,    3 ]

  @DF-RKS Final Energy:  -552.99048955110970

   => Energetics <=

    Nuclear Repulsion Energy =             74.6344329709892520
    One-Electron Energy =                -907.3628211842874407
    Two-Electron Energy =                 310.2249536814287012
    DFT Exchange-Correlation Energy =     -30.6114575688934814
    Empirical Dispersion Energy =           0.0000000000000000
    VV10 Nonlocal Energy =                  0.1244025496533058
    Total Energy =                       -552.9904895511097038

Computation Completed


Properties will be evaluated at   0.000000,   0.000000,   0.000000 [a0]

Properties computed using the SCF density matrix

  Nuclear Dipole Moment: [e a0]
     X:     0.0000      Y:     0.0000      Z:     0.8776

  Electronic Dipole Moment: [e a0]
     X:     0.0000      Y:     0.0000      Z:    -2.0513

  Dipole Moment: [e a0]
     X:     0.0000      Y:     0.0000      Z:    -1.1738     Total:     1.1738

  Dipole Moment: [D]
     X:     0.0000      Y:     0.0000      Z:    -2.9834     Total:     2.9834


*** tstop() called on bp1-compute00099.data.bp.acrc.priv at Tue Apr 27 17:57:15 2021
Module time:
	user time   =      78.41 seconds =       1.31 minutes
	system time =       4.17 seconds =       0.07 minutes
	total time  =          4 seconds =       0.07 minutes
Total time:
	user time   =      78.41 seconds =       1.31 minutes
	system time =       4.17 seconds =       0.07 minutes
	total time  =          4 seconds =       0.07 minutes

  //>>>>>>>>>>>>>>>>>>>>>>>>>>>>>>>>>>>//
  //    Loading displacement 2 of 5    //
  //<<<<<<<<<<<<<<<<<<<<<<<<<<<<<<<<<<<//

*** tstart() called on bp1-compute00099.data.bp.acrc.priv
*** at Tue Apr 27 17:57:15 2021

   => Loading Basis Set <=

    Name: AUG-CC-PV(D+D)Z
    Role: ORBITAL
    Keyword: BASIS
    atoms 1 entry CL         line   792 file /work/zw18965/.conda/envs/p4env/share/psi4/basis/aug-cc-pv_dpd_z.gbs 
    atoms 2 entry C          line   198 file /work/zw18965/.conda/envs/p4env/share/psi4/basis/aug-cc-pv_dpd_z.gbs 
    atoms 3 entry N          line   234 file /work/zw18965/.conda/envs/p4env/share/psi4/basis/aug-cc-pv_dpd_z.gbs 


         ---------------------------------------------------------
                                   SCF
               by Justin Turney, Rob Parrish, Andy Simmonett
                          and Daniel G. A. Smith
                              RKS Reference
                       24 Threads, 137329 MiB Core
         ---------------------------------------------------------

  ==> Geometry <==

    Molecular point group: c2v
    Full point group: C_inf_v

    Geometry (in Angstrom), charge = 0, multiplicity = 1:

       Center              X                  Y                   Z               Mass       
    ------------   -----------------  -----------------  -----------------  -----------------
         CL           0.000000000000     0.000000000000    -0.964747620794    34.968852682000
         C            0.000000000000     0.000000000000     0.671643135099    12.000000000000
         N            0.000000000000     0.000000000000     1.833625945099    14.003074004430

  Running in c2v symmetry.

  Rotational constants: A = ************  B =      0.19823  C =      0.19823 [cm^-1]
  Rotational constants: A = ************  B =   5942.76847  C =   5942.76847 [MHz]
  Nuclear repulsion =   74.615105711215932

  Charge       = 0
  Multiplicity = 1
  Electrons    = 30
  Nalpha       = 15
  Nbeta        = 15

  ==> Algorithm <==

  SCF Algorithm Type is DF.
  DIIS enabled.
  MOM disabled.
  Fractional occupation disabled.
  Guess Type is SAD.
  Energy threshold   = 1.00e-08
  Density threshold  = 1.00e-08
  Integral threshold = 0.00e+00

  ==> Primary Basis <==

  Basis Set: AUG-CC-PV(D+D)Z
    Blend: AUG-CC-PV(D+D)Z
    Number of shells: 30
    Number of basis function: 78
    Number of Cartesian functions: 85
    Spherical Harmonics?: true
    Max angular momentum: 2

  ==> DFT Potential <==

   => Composite Functional: WB97M-V <= 

    wB97M-V Hyb-GGA Exchange-Correlation Functional

    N. Mardirossian and M. Head-Gordon, J. Chem. Phys. 144, 214110 (2016)

    Deriv               =              1
    GGA                 =           TRUE
    Meta                =           TRUE

    Exchange Hybrid     =           TRUE
    MP2 Hybrid          =          FALSE

   => Exchange-Correlation Functionals <=

    1.0000   wB97M-V exchange-correlation functional

   => Exact (HF) Exchange <=

    0.8500            HF,LR [omega = 0.3000]
    0.1500               HF 

   => VV10 Non-Local Parameters <=

    VV10 B              =     6.0000E+00
    VV10 C              =     1.0000E-02

   => Molecular Quadrature <=

    Radial Scheme          =       TREUTLER
    Pruning Scheme         =           FLAT
    Nuclear Scheme         =       TREUTLER

    BS radius alpha        =              1
    Pruning alpha          =              1
    Radial Points          =             75
    Spherical Points       =            302
    Total Points           =          67729
    Total Blocks           =            599
    Max Points             =            250
    Max Functions          =             78

   => Loading Basis Set <=

    Name: (AUG-CC-PV(D+D)Z AUX)
    Role: JKFIT
    Keyword: DF_BASIS_SCF
    atoms 1 entry CL         line   772 file /work/zw18965/.conda/envs/p4env/share/psi4/basis/aug-cc-pvdz-jkfit.gbs 
    atoms 2 entry C          line   154 file /work/zw18965/.conda/envs/p4env/share/psi4/basis/aug-cc-pvdz-jkfit.gbs 
    atoms 3 entry N          line   212 file /work/zw18965/.conda/envs/p4env/share/psi4/basis/aug-cc-pvdz-jkfit.gbs 

  ==> Pre-Iterations <==

   -------------------------------------------------------
    Irrep   Nso     Nmo     Nalpha   Nbeta   Ndocc  Nsocc
   -------------------------------------------------------
     A1        37      37       0       0       0       0
     A2         7       7       0       0       0       0
     B1        17      17       0       0       0       0
     B2        17      17       0       0       0       0
   -------------------------------------------------------
    Total      78      78      15      15      15       0
   -------------------------------------------------------

  ==> Integral Setup <==

  ==> DiskDFJK: Density-Fitted J/K Matrices <==

    J tasked:                  Yes
    K tasked:                  Yes
    wK tasked:                 Yes
    Omega:               3.000E-01
    OpenMP threads:             24
    Integrals threads:          24
    Memory [MiB]:           102638
    Algorithm:                Core
    Integral Cache:           NONE
    Schwarz Cutoff:          1E-12
    Fitting Condition:       1E-10

   => Auxiliary Basis Set <=

  Basis Set: (AUG-CC-PV(D+D)Z AUX)
    Blend: AUG-CC-PVDZ-JKFIT
    Number of shells: 96
    Number of basis function: 300
    Number of Cartesian functions: 352
    Spherical Harmonics?: true
    Max angular momentum: 3

  Cached 100.0% of DFT collocation blocks in 0.350 [GiB].

  Minimum eigenvalue in the overlap matrix is 7.7262277164E-04.
  Using Symmetric Orthogonalization.

  SCF Guess: Superposition of Atomic Densities via on-the-fly atomic UHF.

  ==> Iterations <==

                           Total Energy        Delta E     RMS |[F,P]|

   @DF-RKS iter SAD:  -552.45879261136986   -5.52459e+02   0.00000e+00 
   @DF-RKS iter   1:  -552.79809542287092   -3.39303e-01   1.40600e-02 DIIS
   @DF-RKS iter   2:  -552.58246715375742    2.15628e-01   2.07319e-02 DIIS
   @DF-RKS iter   3:  -552.98741727019251   -4.04950e-01   1.54671e-03 DIIS
   @DF-RKS iter   4:  -552.98976690713994   -2.34964e-03   7.97152e-04 DIIS
   @DF-RKS iter   5:  -552.99044233573284   -6.75429e-04   1.57828e-04 DIIS
   @DF-RKS iter   6:  -552.99048821413771   -4.58784e-05   3.99932e-05 DIIS
   @DF-RKS iter   7:  -552.99049253171904   -4.31758e-06   6.35358e-06 DIIS
   @DF-RKS iter   8:  -552.99049261940081   -8.76818e-08   1.83534e-06 DIIS
   @DF-RKS iter   9:  -552.99049262586436   -6.46355e-09   3.00976e-07 DIIS
   @DF-RKS iter  10:  -552.99049262610106   -2.36696e-10   8.62854e-08 DIIS
   @DF-RKS iter  11:  -552.99049262611300   -1.19371e-11   8.51343e-09 DIIS
  Energy and wave function converged.


  ==> Post-Iterations <==

    Orbital Energies [Eh]
    ---------------------

    Doubly Occupied:                                                      

       1A1  -101.976735     2A1   -14.560031     3A1   -10.468831  
       4A1    -9.740101     5A1    -7.445913     1B1    -7.435064  
       1B2    -7.435064     6A1    -1.095511     7A1    -1.035025  
       8A1    -0.690029     2B1    -0.551865     2B2    -0.551865  
       9A1    -0.505177     3B2    -0.436165     3B1    -0.436165  

    Virtual:                                                              

      10A1     0.016944    11A1     0.060008    12A1     0.077545  
       4B2     0.078343     4B1     0.078343     5B2     0.085220  
       5B1     0.085220     6B1     0.123216     6B2     0.123216  
      13A1     0.123992    14A1     0.192727     7B1     0.222097  
       7B2     0.222097    15A1     0.244422    16A1     0.292602  
       1A2     0.294654    17A1     0.294655    18A1     0.451605  
       8B2     0.456994     8B1     0.456994     2A2     0.457796  
      19A1     0.457798     9B2     0.580897     9B1     0.580897  
      20A1     0.581930    21A1     0.662483    10B2     0.694746  
      10B1     0.694746     3A2     0.774546    22A1     0.774547  
      23A1     0.800575    11B1     0.880309    11B2     0.880309  
      24A1     0.889554    12B2     0.942478    12B1     0.942478  
      25A1     1.084650     4A2     1.084657    26A1     1.091028  
      13B2     1.128303    13B1     1.128303    27A1     1.166573  
      28A1     1.249224    29A1     1.457424     5A2     1.457427  
      14B2     1.517546    14B1     1.517546    15B2     1.694469  
      15B1     1.694469    30A1     1.789215    31A1     1.867996  
      32A1     2.123102    33A1     2.370790     6A2     2.370790  
      16B1     2.621821    16B2     2.621821    34A1     2.955635  
      35A1     3.154536    36A1     5.500479     7A2     5.500508  
      17B2     5.572208    17B1     5.572208    37A1     5.641895  

    Final Occupation by Irrep:
             A1    A2    B1    B2 
    DOCC [     9,    0,    3,    3 ]

  @DF-RKS Final Energy:  -552.99049262611300

   => Energetics <=

    Nuclear Repulsion Energy =             74.6151057112159322
    One-Electron Energy =                -907.3246748799525676
    Two-Electron Energy =                 310.2058639708628789
    DFT Exchange-Correlation Energy =     -30.6111908919419378
    Empirical Dispersion Energy =           0.0000000000000000
    VV10 Nonlocal Energy =                  0.1244034637027764
    Total Energy =                       -552.9904926261129958

Computation Completed


Properties will be evaluated at   0.000000,   0.000000,   0.000000 [a0]

Properties computed using the SCF density matrix

  Nuclear Dipole Moment: [e a0]
     X:     0.0000      Y:     0.0000      Z:     0.8778

  Electronic Dipole Moment: [e a0]
     X:     0.0000      Y:     0.0000      Z:    -2.0511

  Dipole Moment: [e a0]
     X:     0.0000      Y:     0.0000      Z:    -1.1733     Total:     1.1733

  Dipole Moment: [D]
     X:     0.0000      Y:     0.0000      Z:    -2.9821     Total:     2.9821


*** tstop() called on bp1-compute00099.data.bp.acrc.priv at Tue Apr 27 17:57:18 2021
Module time:
	user time   =      78.19 seconds =       1.30 minutes
	system time =       3.23 seconds =       0.05 minutes
	total time  =          3 seconds =       0.05 minutes
Total time:
	user time   =     156.73 seconds =       2.61 minutes
	system time =       7.41 seconds =       0.12 minutes
	total time  =          7 seconds =       0.12 minutes

  //>>>>>>>>>>>>>>>>>>>>>>>>>>>>>>>>>>>//
  //    Loading displacement 3 of 5    //
  //<<<<<<<<<<<<<<<<<<<<<<<<<<<<<<<<<<<//

*** tstart() called on bp1-compute00099.data.bp.acrc.priv
*** at Tue Apr 27 17:57:18 2021

   => Loading Basis Set <=

    Name: AUG-CC-PV(D+D)Z
    Role: ORBITAL
    Keyword: BASIS
    atoms 1 entry CL         line   792 file /work/zw18965/.conda/envs/p4env/share/psi4/basis/aug-cc-pv_dpd_z.gbs 
    atoms 2 entry C          line   198 file /work/zw18965/.conda/envs/p4env/share/psi4/basis/aug-cc-pv_dpd_z.gbs 
    atoms 3 entry N          line   234 file /work/zw18965/.conda/envs/p4env/share/psi4/basis/aug-cc-pv_dpd_z.gbs 


         ---------------------------------------------------------
                                   SCF
               by Justin Turney, Rob Parrish, Andy Simmonett
                          and Daniel G. A. Smith
                              RKS Reference
                       24 Threads, 137329 MiB Core
         ---------------------------------------------------------

  ==> Geometry <==

    Molecular point group: c2v
    Full point group: C_inf_v

    Geometry (in Angstrom), charge = 0, multiplicity = 1:

       Center              X                  Y                   Z               Mass       
    ------------   -----------------  -----------------  -----------------  -----------------
         CL           0.000000000000     0.000000000000    -0.964163223996    34.968852682000
         C            0.000000000000     0.000000000000     0.670857240111    12.000000000000
         N            0.000000000000     0.000000000000     1.832840050111    14.003074004430

  Running in c2v symmetry.

  Rotational constants: A = ************  B =      0.19845  C =      0.19845 [cm^-1]
  Rotational constants: A = ************  B =   5949.23453  C =   5949.23453 [MHz]
  Nuclear repulsion =   74.653774509946956

  Charge       = 0
  Multiplicity = 1
  Electrons    = 30
  Nalpha       = 15
  Nbeta        = 15

  ==> Algorithm <==

  SCF Algorithm Type is DF.
  DIIS enabled.
  MOM disabled.
  Fractional occupation disabled.
  Guess Type is SAD.
  Energy threshold   = 1.00e-08
  Density threshold  = 1.00e-08
  Integral threshold = 0.00e+00

  ==> Primary Basis <==

  Basis Set: AUG-CC-PV(D+D)Z
    Blend: AUG-CC-PV(D+D)Z
    Number of shells: 30
    Number of basis function: 78
    Number of Cartesian functions: 85
    Spherical Harmonics?: true
    Max angular momentum: 2

  ==> DFT Potential <==

   => Composite Functional: WB97M-V <= 

    wB97M-V Hyb-GGA Exchange-Correlation Functional

    N. Mardirossian and M. Head-Gordon, J. Chem. Phys. 144, 214110 (2016)

    Deriv               =              1
    GGA                 =           TRUE
    Meta                =           TRUE

    Exchange Hybrid     =           TRUE
    MP2 Hybrid          =          FALSE

   => Exchange-Correlation Functionals <=

    1.0000   wB97M-V exchange-correlation functional

   => Exact (HF) Exchange <=

    0.8500            HF,LR [omega = 0.3000]
    0.1500               HF 

   => VV10 Non-Local Parameters <=

    VV10 B              =     6.0000E+00
    VV10 C              =     1.0000E-02

   => Molecular Quadrature <=

    Radial Scheme          =       TREUTLER
    Pruning Scheme         =           FLAT
    Nuclear Scheme         =       TREUTLER

    BS radius alpha        =              1
    Pruning alpha          =              1
    Radial Points          =             75
    Spherical Points       =            302
    Total Points           =          67729
    Total Blocks           =            599
    Max Points             =            254
    Max Functions          =             78

   => Loading Basis Set <=

    Name: (AUG-CC-PV(D+D)Z AUX)
    Role: JKFIT
    Keyword: DF_BASIS_SCF
    atoms 1 entry CL         line   772 file /work/zw18965/.conda/envs/p4env/share/psi4/basis/aug-cc-pvdz-jkfit.gbs 
    atoms 2 entry C          line   154 file /work/zw18965/.conda/envs/p4env/share/psi4/basis/aug-cc-pvdz-jkfit.gbs 
    atoms 3 entry N          line   212 file /work/zw18965/.conda/envs/p4env/share/psi4/basis/aug-cc-pvdz-jkfit.gbs 

  ==> Pre-Iterations <==

   -------------------------------------------------------
    Irrep   Nso     Nmo     Nalpha   Nbeta   Ndocc  Nsocc
   -------------------------------------------------------
     A1        37      37       0       0       0       0
     A2         7       7       0       0       0       0
     B1        17      17       0       0       0       0
     B2        17      17       0       0       0       0
   -------------------------------------------------------
    Total      78      78      15      15      15       0
   -------------------------------------------------------

  ==> Integral Setup <==

  ==> DiskDFJK: Density-Fitted J/K Matrices <==

    J tasked:                  Yes
    K tasked:                  Yes
    wK tasked:                 Yes
    Omega:               3.000E-01
    OpenMP threads:             24
    Integrals threads:          24
    Memory [MiB]:           102638
    Algorithm:                Core
    Integral Cache:           NONE
    Schwarz Cutoff:          1E-12
    Fitting Condition:       1E-10

   => Auxiliary Basis Set <=

  Basis Set: (AUG-CC-PV(D+D)Z AUX)
    Blend: AUG-CC-PVDZ-JKFIT
    Number of shells: 96
    Number of basis function: 300
    Number of Cartesian functions: 352
    Spherical Harmonics?: true
    Max angular momentum: 3

  Cached 100.0% of DFT collocation blocks in 0.350 [GiB].

  Minimum eigenvalue in the overlap matrix is 7.6950424761E-04.
  Using Symmetric Orthogonalization.

  SCF Guess: Superposition of Atomic Densities via on-the-fly atomic UHF.

  ==> Iterations <==

                           Total Energy        Delta E     RMS |[F,P]|

   @DF-RKS iter SAD:  -552.46077054590705   -5.52461e+02   0.00000e+00 
   @DF-RKS iter   1:  -552.79782454675228   -3.37054e-01   1.40676e-02 DIIS
   @DF-RKS iter   2:  -552.58209758686746    2.15727e-01   2.07383e-02 DIIS
   @DF-RKS iter   3:  -552.98740589319618   -4.05308e-01   1.54872e-03 DIIS
   @DF-RKS iter   4:  -552.98975896495028   -2.35307e-03   7.98275e-04 DIIS
   @DF-RKS iter   5:  -552.99043567513718   -6.76710e-04   1.57809e-04 DIIS
   @DF-RKS iter   6:  -552.99048147739245   -4.58023e-05   3.99605e-05 DIIS
   @DF-RKS iter   7:  -552.99048577834924   -4.30096e-06   6.35089e-06 DIIS
   @DF-RKS iter   8:  -552.99048586577499   -8.74257e-08   1.83050e-06 DIIS
   @DF-RKS iter   9:  -552.99048587220307   -6.42808e-09   3.00238e-07 DIIS
   @DF-RKS iter  10:  -552.99048587243806   -2.34991e-10   8.60529e-08 DIIS
   @DF-RKS iter  11:  -552.99048587245034   -1.22782e-11   8.49235e-09 DIIS
  Energy and wave function converged.


  ==> Post-Iterations <==

    Orbital Energies [Eh]
    ---------------------

    Doubly Occupied:                                                      

       1A1  -101.976715     2A1   -14.559919     3A1   -10.468709  
       4A1    -9.740116     5A1    -7.445919     1B2    -7.435081  
       1B1    -7.435081     6A1    -1.095754     7A1    -1.035076  
       8A1    -0.690199     2B2    -0.552064     2B1    -0.552064  
       9A1    -0.505109     3B2    -0.436040     3B1    -0.436040  

    Virtual:                                                              

      10A1     0.017044    11A1     0.060013    12A1     0.077811  
       4B1     0.078327     4B2     0.078327     5B1     0.085238  
       5B2     0.085238     6B2     0.123238     6B1     0.123238  
      13A1     0.124219    14A1     0.192781     7B1     0.222132  
       7B2     0.222132    15A1     0.244351    16A1     0.292611  
       1A2     0.294585    17A1     0.294586    18A1     0.451574  
       8B2     0.457260     8B1     0.457260     2A2     0.457888  
      19A1     0.457890     9B1     0.580884     9B2     0.580884  
      20A1     0.582155    21A1     0.662654    10B2     0.694749  
      10B1     0.694749     3A2     0.774654    22A1     0.774655  
      23A1     0.800718    11B1     0.880335    11B2     0.880335  
      24A1     0.889312    12B2     0.942661    12B1     0.942661  
      25A1     1.084599     4A2     1.084606    26A1     1.090933  
      13B2     1.128225    13B1     1.128225    27A1     1.166988  
      28A1     1.249801    29A1     1.457412     5A2     1.457415  
      14B2     1.517686    14B1     1.517686    15B1     1.695025  
      15B2     1.695025    30A1     1.789847    31A1     1.868559  
      32A1     2.123447    33A1     2.370882     6A2     2.370882  
      16B2     2.622146    16B1     2.622146    34A1     2.957142  
      35A1     3.154519    36A1     5.500464     7A2     5.500493  
      17B1     5.572497    17B2     5.572497    37A1     5.641829  

    Final Occupation by Irrep:
             A1    A2    B1    B2 
    DOCC [     9,    0,    3,    3 ]

  @DF-RKS Final Energy:  -552.99048587245034

   => Energetics <=

    Nuclear Repulsion Energy =             74.6537745099469561
    One-Electron Energy =                -907.4009942213551767
    Two-Electron Energy =                 310.2440568338341222
    DFT Exchange-Correlation Energy =     -30.6117246308787685
    Empirical Dispersion Energy =           0.0000000000000000
    VV10 Nonlocal Energy =                  0.1244016360025685
    Total Energy =                       -552.9904858724504493

Computation Completed


Properties will be evaluated at   0.000000,   0.000000,   0.000000 [a0]

Properties computed using the SCF density matrix

  Nuclear Dipole Moment: [e a0]
     X:     0.0000      Y:     0.0000      Z:     0.8773

  Electronic Dipole Moment: [e a0]
     X:     0.0000      Y:     0.0000      Z:    -2.0516

  Dipole Moment: [e a0]
     X:     0.0000      Y:     0.0000      Z:    -1.1743     Total:     1.1743

  Dipole Moment: [D]
     X:     0.0000      Y:     0.0000      Z:    -2.9848     Total:     2.9848


*** tstop() called on bp1-compute00099.data.bp.acrc.priv at Tue Apr 27 17:57:21 2021
Module time:
	user time   =      74.69 seconds =       1.24 minutes
	system time =       2.36 seconds =       0.04 minutes
	total time  =          3 seconds =       0.05 minutes
Total time:
	user time   =     231.56 seconds =       3.86 minutes
	system time =       9.78 seconds =       0.16 minutes
	total time  =         10 seconds =       0.17 minutes

  //>>>>>>>>>>>>>>>>>>>>>>>>>>>>>>>>>>>//
  //    Loading displacement 4 of 5    //
  //<<<<<<<<<<<<<<<<<<<<<<<<<<<<<<<<<<<//

*** tstart() called on bp1-compute00099.data.bp.acrc.priv
*** at Tue Apr 27 17:57:21 2021

   => Loading Basis Set <=

    Name: AUG-CC-PV(D+D)Z
    Role: ORBITAL
    Keyword: BASIS
    atoms 1 entry CL         line   792 file /work/zw18965/.conda/envs/p4env/share/psi4/basis/aug-cc-pv_dpd_z.gbs 
    atoms 2 entry C          line   198 file /work/zw18965/.conda/envs/p4env/share/psi4/basis/aug-cc-pv_dpd_z.gbs 
    atoms 3 entry N          line   234 file /work/zw18965/.conda/envs/p4env/share/psi4/basis/aug-cc-pv_dpd_z.gbs 


         ---------------------------------------------------------
                                   SCF
               by Justin Turney, Rob Parrish, Andy Simmonett
                          and Daniel G. A. Smith
                              RKS Reference
                       24 Threads, 137329 MiB Core
         ---------------------------------------------------------

  ==> Geometry <==

    Molecular point group: c2v
    Full point group: C_inf_v

    Geometry (in Angstrom), charge = 0, multiplicity = 1:

       Center              X                  Y                   Z               Mass       
    ------------   -----------------  -----------------  -----------------  -----------------
         CL           0.000000000000     0.000000000000    -0.964455422395    34.968852682000
         C            0.000000000000     0.000000000000     0.670689682129    12.000000000000
         N            0.000000000000     0.000000000000     1.833713325404    14.003074004430

  Running in c2v symmetry.

  Rotational constants: A = ************  B =      0.19830  C =      0.19830 [cm^-1]
  Rotational constants: A = ************  B =   5944.90643  C =   5944.90643 [MHz]
  Nuclear repulsion =   74.624763058425231

  Charge       = 0
  Multiplicity = 1
  Electrons    = 30
  Nalpha       = 15
  Nbeta        = 15

  ==> Algorithm <==

  SCF Algorithm Type is DF.
  DIIS enabled.
  MOM disabled.
  Fractional occupation disabled.
  Guess Type is SAD.
  Energy threshold   = 1.00e-08
  Density threshold  = 1.00e-08
  Integral threshold = 0.00e+00

  ==> Primary Basis <==

  Basis Set: AUG-CC-PV(D+D)Z
    Blend: AUG-CC-PV(D+D)Z
    Number of shells: 30
    Number of basis function: 78
    Number of Cartesian functions: 85
    Spherical Harmonics?: true
    Max angular momentum: 2

  ==> DFT Potential <==

   => Composite Functional: WB97M-V <= 

    wB97M-V Hyb-GGA Exchange-Correlation Functional

    N. Mardirossian and M. Head-Gordon, J. Chem. Phys. 144, 214110 (2016)

    Deriv               =              1
    GGA                 =           TRUE
    Meta                =           TRUE

    Exchange Hybrid     =           TRUE
    MP2 Hybrid          =          FALSE

   => Exchange-Correlation Functionals <=

    1.0000   wB97M-V exchange-correlation functional

   => Exact (HF) Exchange <=

    0.8500            HF,LR [omega = 0.3000]
    0.1500               HF 

   => VV10 Non-Local Parameters <=

    VV10 B              =     6.0000E+00
    VV10 C              =     1.0000E-02

   => Molecular Quadrature <=

    Radial Scheme          =       TREUTLER
    Pruning Scheme         =           FLAT
    Nuclear Scheme         =       TREUTLER

    BS radius alpha        =              1
    Pruning alpha          =              1
    Radial Points          =             75
    Spherical Points       =            302
    Total Points           =          67729
    Total Blocks           =            599
    Max Points             =            253
    Max Functions          =             78

   => Loading Basis Set <=

    Name: (AUG-CC-PV(D+D)Z AUX)
    Role: JKFIT
    Keyword: DF_BASIS_SCF
    atoms 1 entry CL         line   772 file /work/zw18965/.conda/envs/p4env/share/psi4/basis/aug-cc-pvdz-jkfit.gbs 
    atoms 2 entry C          line   154 file /work/zw18965/.conda/envs/p4env/share/psi4/basis/aug-cc-pvdz-jkfit.gbs 
    atoms 3 entry N          line   212 file /work/zw18965/.conda/envs/p4env/share/psi4/basis/aug-cc-pvdz-jkfit.gbs 

  ==> Pre-Iterations <==

   -------------------------------------------------------
    Irrep   Nso     Nmo     Nalpha   Nbeta   Ndocc  Nsocc
   -------------------------------------------------------
     A1        37      37       0       0       0       0
     A2         7       7       0       0       0       0
     B1        17      17       0       0       0       0
     B2        17      17       0       0       0       0
   -------------------------------------------------------
    Total      78      78      15      15      15       0
   -------------------------------------------------------

  ==> Integral Setup <==

  ==> DiskDFJK: Density-Fitted J/K Matrices <==

    J tasked:                  Yes
    K tasked:                  Yes
    wK tasked:                 Yes
    Omega:               3.000E-01
    OpenMP threads:             24
    Integrals threads:          24
    Memory [MiB]:           102638
    Algorithm:                Core
    Integral Cache:           NONE
    Schwarz Cutoff:          1E-12
    Fitting Condition:       1E-10

   => Auxiliary Basis Set <=

  Basis Set: (AUG-CC-PV(D+D)Z AUX)
    Blend: AUG-CC-PVDZ-JKFIT
    Number of shells: 96
    Number of basis function: 300
    Number of Cartesian functions: 352
    Spherical Harmonics?: true
    Max angular momentum: 3

  Cached 100.0% of DFT collocation blocks in 0.350 [GiB].

  Minimum eigenvalue in the overlap matrix is 7.7037693930E-04.
  Using Symmetric Orthogonalization.

  SCF Guess: Superposition of Atomic Densities via on-the-fly atomic UHF.

  ==> Iterations <==

                           Total Energy        Delta E     RMS |[F,P]|

   @DF-RKS iter SAD:  -552.45914822017960   -5.52459e+02   0.00000e+00 
   @DF-RKS iter   1:  -552.79778948223588   -3.38641e-01   1.40652e-02 DIIS
   @DF-RKS iter   2:  -552.58051701642717    2.17272e-01   2.07730e-02 DIIS
   @DF-RKS iter   3:  -552.98738741153534   -4.06870e-01   1.54955e-03 DIIS
   @DF-RKS iter   4:  -552.98974360572697   -2.35619e-03   7.99044e-04 DIIS
   @DF-RKS iter   5:  -552.99042193175080   -6.78326e-04   1.58205e-04 DIIS
   @DF-RKS iter   6:  -552.99046796003415   -4.60283e-05   4.01161e-05 DIIS
   @DF-RKS iter   7:  -552.99047228822894   -4.32819e-06   6.37434e-06 DIIS
   @DF-RKS iter   8:  -552.99047237633863   -8.81097e-08   1.83641e-06 DIIS
   @DF-RKS iter   9:  -552.99047238280912   -6.47049e-09   3.01169e-07 DIIS
   @DF-RKS iter  10:  -552.99047238304524   -2.36128e-10   8.66591e-08 DIIS
   @DF-RKS iter  11:  -552.99047238305820   -1.29603e-11   8.56396e-09 DIIS
  Energy and wave function converged.


  ==> Post-Iterations <==

    Orbital Energies [Eh]
    ---------------------

    Doubly Occupied:                                                      

       1A1  -101.976769     2A1   -14.560195     3A1   -10.468968  
       4A1    -9.740166     5A1    -7.445969     1B2    -7.435131  
       1B1    -7.435131     6A1    -1.095589     7A1    -1.034835  
       8A1    -0.690265     2B2    -0.551975     2B1    -0.551975  
       9A1    -0.505183     3B2    -0.435897     3B1    -0.435897  

    Virtual:                                                              

      10A1     0.017012    11A1     0.060009    12A1     0.077738  
       4B1     0.078348     4B2     0.078348     5B1     0.084940  
       5B2     0.084940     6B1     0.123215     6B2     0.123215  
      13A1     0.124168    14A1     0.192732     7B2     0.222077  
       7B1     0.222077    15A1     0.244360    16A1     0.292609  
       1A2     0.294579    17A1     0.294580    18A1     0.451448  
       8B1     0.457086     8B2     0.457086     2A2     0.457861  
      19A1     0.457862     9B1     0.581121     9B2     0.581121  
      20A1     0.581959    21A1     0.662610    10B1     0.694660  
      10B2     0.694660     3A2     0.774500    22A1     0.774502  
      23A1     0.800101    11B1     0.880096    11B2     0.880096  
      24A1     0.889301    12B2     0.942499    12B1     0.942499  
      25A1     1.084552     4A2     1.084558    26A1     1.090695  
      13B1     1.128165    13B2     1.128165    27A1     1.167068  
      28A1     1.248926    29A1     1.457449     5A2     1.457452  
      14B1     1.517380    14B2     1.517380    15B2     1.694677  
      15B1     1.694677    30A1     1.788738    31A1     1.868321  
      32A1     2.123648    33A1     2.370639     6A2     2.370639  
      16B1     2.621466    16B2     2.621466    34A1     2.954854  
      35A1     3.152002    36A1     5.500413     7A2     5.500441  
      17B1     5.572367    17B2     5.572367    37A1     5.641725  

    Final Occupation by Irrep:
             A1    A2    B1    B2 
    DOCC [     9,    0,    3,    3 ]

  @DF-RKS Final Energy:  -552.99047238305820

   => Energetics <=

    Nuclear Repulsion Energy =             74.6247630584252306
    One-Electron Energy =                -907.3433846137418186
    Two-Electron Energy =                 310.2145226142032470
    DFT Exchange-Correlation Energy =     -30.6107746471666360
    Empirical Dispersion Energy =           0.0000000000000000
    VV10 Nonlocal Energy =                  0.1244012052217769
    Total Energy =                       -552.9904723830580906

Computation Completed


Properties will be evaluated at   0.000000,   0.000000,   0.000000 [a0]

Properties computed using the SCF density matrix

  Nuclear Dipole Moment: [e a0]
     X:     0.0000      Y:     0.0000      Z:     0.8776

  Electronic Dipole Moment: [e a0]
     X:     0.0000      Y:     0.0000      Z:    -2.0524

  Dipole Moment: [e a0]
     X:     0.0000      Y:     0.0000      Z:    -1.1748     Total:     1.1748

  Dipole Moment: [D]
     X:     0.0000      Y:     0.0000      Z:    -2.9861     Total:     2.9861


*** tstop() called on bp1-compute00099.data.bp.acrc.priv at Tue Apr 27 17:57:25 2021
Module time:
	user time   =      73.28 seconds =       1.22 minutes
	system time =       2.39 seconds =       0.04 minutes
	total time  =          4 seconds =       0.07 minutes
Total time:
	user time   =     304.98 seconds =       5.08 minutes
	system time =      12.17 seconds =       0.20 minutes
	total time  =         14 seconds =       0.23 minutes

  //>>>>>>>>>>>>>>>>>>>>>>>>>>>>>>>>>>>//
  //    Loading displacement 5 of 5    //
  //<<<<<<<<<<<<<<<<<<<<<<<<<<<<<<<<<<<//

*** tstart() called on bp1-compute00099.data.bp.acrc.priv
*** at Tue Apr 27 17:57:25 2021

   => Loading Basis Set <=

    Name: AUG-CC-PV(D+D)Z
    Role: ORBITAL
    Keyword: BASIS
    atoms 1 entry CL         line   792 file /work/zw18965/.conda/envs/p4env/share/psi4/basis/aug-cc-pv_dpd_z.gbs 
    atoms 2 entry C          line   198 file /work/zw18965/.conda/envs/p4env/share/psi4/basis/aug-cc-pv_dpd_z.gbs 
    atoms 3 entry N          line   234 file /work/zw18965/.conda/envs/p4env/share/psi4/basis/aug-cc-pv_dpd_z.gbs 


         ---------------------------------------------------------
                                   SCF
               by Justin Turney, Rob Parrish, Andy Simmonett
                          and Daniel G. A. Smith
                              RKS Reference
                       24 Threads, 137329 MiB Core
         ---------------------------------------------------------

  ==> Geometry <==

    Molecular point group: c2v
    Full point group: C_inf_v

    Geometry (in Angstrom), charge = 0, multiplicity = 1:

       Center              X                  Y                   Z               Mass       
    ------------   -----------------  -----------------  -----------------  -----------------
         CL           0.000000000000     0.000000000000    -0.964455422395    34.968852682000
         C            0.000000000000     0.000000000000     0.671810693081    12.000000000000
         N            0.000000000000     0.000000000000     1.832752669806    14.003074004430

  Running in c2v symmetry.

  Rotational constants: A = ************  B =      0.19837  C =      0.19837 [cm^-1]
  Rotational constants: A = ************  B =   5947.09346  C =   5947.09346 [MHz]
  Nuclear repulsion =   74.644142653370096

  Charge       = 0
  Multiplicity = 1
  Electrons    = 30
  Nalpha       = 15
  Nbeta        = 15

  ==> Algorithm <==

  SCF Algorithm Type is DF.
  DIIS enabled.
  MOM disabled.
  Fractional occupation disabled.
  Guess Type is SAD.
  Energy threshold   = 1.00e-08
  Density threshold  = 1.00e-08
  Integral threshold = 0.00e+00

  ==> Primary Basis <==

  Basis Set: AUG-CC-PV(D+D)Z
    Blend: AUG-CC-PV(D+D)Z
    Number of shells: 30
    Number of basis function: 78
    Number of Cartesian functions: 85
    Spherical Harmonics?: true
    Max angular momentum: 2

  ==> DFT Potential <==

   => Composite Functional: WB97M-V <= 

    wB97M-V Hyb-GGA Exchange-Correlation Functional

    N. Mardirossian and M. Head-Gordon, J. Chem. Phys. 144, 214110 (2016)

    Deriv               =              1
    GGA                 =           TRUE
    Meta                =           TRUE

    Exchange Hybrid     =           TRUE
    MP2 Hybrid          =          FALSE

   => Exchange-Correlation Functionals <=

    1.0000   wB97M-V exchange-correlation functional

   => Exact (HF) Exchange <=

    0.8500            HF,LR [omega = 0.3000]
    0.1500               HF 

   => VV10 Non-Local Parameters <=

    VV10 B              =     6.0000E+00
    VV10 C              =     1.0000E-02

   => Molecular Quadrature <=

    Radial Scheme          =       TREUTLER
    Pruning Scheme         =           FLAT
    Nuclear Scheme         =       TREUTLER

    BS radius alpha        =              1
    Pruning alpha          =              1
    Radial Points          =             75
    Spherical Points       =            302
    Total Points           =          67729
    Total Blocks           =            599
    Max Points             =            250
    Max Functions          =             78

   => Loading Basis Set <=

    Name: (AUG-CC-PV(D+D)Z AUX)
    Role: JKFIT
    Keyword: DF_BASIS_SCF
    atoms 1 entry CL         line   772 file /work/zw18965/.conda/envs/p4env/share/psi4/basis/aug-cc-pvdz-jkfit.gbs 
    atoms 2 entry C          line   154 file /work/zw18965/.conda/envs/p4env/share/psi4/basis/aug-cc-pvdz-jkfit.gbs 
    atoms 3 entry N          line   212 file /work/zw18965/.conda/envs/p4env/share/psi4/basis/aug-cc-pvdz-jkfit.gbs 

  ==> Pre-Iterations <==

   -------------------------------------------------------
    Irrep   Nso     Nmo     Nalpha   Nbeta   Ndocc  Nsocc
   -------------------------------------------------------
     A1        37      37       0       0       0       0
     A2         7       7       0       0       0       0
     B1        17      17       0       0       0       0
     B2        17      17       0       0       0       0
   -------------------------------------------------------
    Total      78      78      15      15      15       0
   -------------------------------------------------------

  ==> Integral Setup <==

  ==> DiskDFJK: Density-Fitted J/K Matrices <==

    J tasked:                  Yes
    K tasked:                  Yes
    wK tasked:                 Yes
    Omega:               3.000E-01
    OpenMP threads:             24
    Integrals threads:          24
    Memory [MiB]:           102638
    Algorithm:                Core
    Integral Cache:           NONE
    Schwarz Cutoff:          1E-12
    Fitting Condition:       1E-10

   => Auxiliary Basis Set <=

  Basis Set: (AUG-CC-PV(D+D)Z AUX)
    Blend: AUG-CC-PVDZ-JKFIT
    Number of shells: 96
    Number of basis function: 300
    Number of Cartesian functions: 352
    Spherical Harmonics?: true
    Max angular momentum: 3

  Cached 100.0% of DFT collocation blocks in 0.350 [GiB].

  Minimum eigenvalue in the overlap matrix is 7.7174464955E-04.
  Using Symmetric Orthogonalization.

  SCF Guess: Superposition of Atomic Densities via on-the-fly atomic UHF.

  ==> Iterations <==

                           Total Energy        Delta E     RMS |[F,P]|

   @DF-RKS iter SAD:  -552.46042147082017   -5.52460e+02   0.00000e+00 
   @DF-RKS iter   1:  -552.79812573086485   -3.37704e-01   1.40624e-02 DIIS
   @DF-RKS iter   2:  -552.58403749848958    2.14088e-01   2.06972e-02 DIIS
   @DF-RKS iter   3:  -552.98743122555095   -4.03394e-01   1.54588e-03 DIIS
   @DF-RKS iter   4:  -552.98977773782087   -2.34651e-03   7.96379e-04 DIIS
   @DF-RKS iter   5:  -552.99045154304304   -6.73805e-04   1.57433e-04 DIIS
   @DF-RKS iter   6:  -552.99049719500249   -4.56520e-05   3.98382e-05 DIIS
   @DF-RKS iter   7:  -552.99050148537697   -4.29037e-06   6.33033e-06 DIIS
   @DF-RKS iter   8:  -552.99050157238173   -8.70048e-08   1.82945e-06 DIIS
   @DF-RKS iter   9:  -552.99050157880276   -6.42103e-09   3.00048e-07 DIIS
   @DF-RKS iter  10:  -552.99050157903753   -2.34763e-10   8.56840e-08 DIIS
   @DF-RKS iter  11:  -552.99050157904958   -1.20508e-11   8.44311e-09 DIIS
  Energy and wave function converged.


  ==> Post-Iterations <==

    Orbital Energies [Eh]
    ---------------------

    Doubly Occupied:                                                      

       1A1  -101.976681     2A1   -14.559755     3A1   -10.468572  
       4A1    -9.740052     5A1    -7.445864     1B1    -7.435015  
       1B2    -7.435015     6A1    -1.095679     7A1    -1.035262  
       8A1    -0.689964     2B1    -0.551954     2B2    -0.551954  
       9A1    -0.505103     3B1    -0.436308     3B2    -0.436308  

    Virtual:                                                              

      10A1     0.016976    11A1     0.060012    12A1     0.077618  
       4B1     0.078322     4B2     0.078322     5B1     0.085518  
       5B2     0.085518     6B2     0.123239     6B1     0.123239  
      13A1     0.124042    14A1     0.192776     7B2     0.222153  
       7B1     0.222153    15A1     0.244413    16A1     0.292605  
       1A2     0.294660    17A1     0.294661    18A1     0.451730  
       8B1     0.457168     8B2     0.457168     2A2     0.457824  
      19A1     0.457825     9B2     0.580660     9B1     0.580660  
      20A1     0.582125    21A1     0.662528    10B1     0.694836  
      10B2     0.694836     3A2     0.774699    22A1     0.774701  
      23A1     0.801191    11B2     0.880549    11B1     0.880549  
      24A1     0.889565    12B2     0.942640    12B1     0.942640  
      25A1     1.084698     4A2     1.084704    26A1     1.091264  
      13B1     1.128364    13B2     1.128364    27A1     1.166494  
      28A1     1.250103    29A1     1.457388     5A2     1.457391  
      14B2     1.517850    14B1     1.517850    15B2     1.694819  
      15B1     1.694819    30A1     1.790326    31A1     1.868234  
      32A1     2.122901    33A1     2.371034     6A2     2.371034  
      16B2     2.622502    16B1     2.622502    34A1     2.957932  
      35A1     3.157064    36A1     5.500531     7A2     5.500559  
      17B1     5.572338    17B2     5.572338    37A1     5.641999  

    Final Occupation by Irrep:
             A1    A2    B1    B2 
    DOCC [     9,    0,    3,    3 ]

  @DF-RKS Final Energy:  -552.99050157904958

   => Energetics <=

    Nuclear Repulsion Energy =             74.6441426533700962
    One-Electron Energy =                -907.3823239913003817
    Two-Electron Energy =                 310.2354186673739491
    DFT Exchange-Correlation Energy =     -30.6121428063491514
    Empirical Dispersion Energy =           0.0000000000000000
    VV10 Nonlocal Energy =                  0.1244038978559599
    Total Energy =                       -552.9905015790496918

Computation Completed


Properties will be evaluated at   0.000000,   0.000000,   0.000000 [a0]

Properties computed using the SCF density matrix

  Nuclear Dipole Moment: [e a0]
     X:     0.0000      Y:     0.0000      Z:     0.8776

  Electronic Dipole Moment: [e a0]
     X:     0.0000      Y:     0.0000      Z:    -2.0503

  Dipole Moment: [e a0]
     X:     0.0000      Y:     0.0000      Z:    -1.1727     Total:     1.1727

  Dipole Moment: [D]
     X:     0.0000      Y:     0.0000      Z:    -2.9808     Total:     2.9808


*** tstop() called on bp1-compute00099.data.bp.acrc.priv at Tue Apr 27 17:57:28 2021
Module time:
	user time   =      73.93 seconds =       1.23 minutes
	system time =       2.67 seconds =       0.04 minutes
	total time  =          3 seconds =       0.05 minutes
Total time:
	user time   =     379.04 seconds =       6.32 minutes
	system time =      14.86 seconds =       0.25 minutes
	total time  =         17 seconds =       0.28 minutes

         ----------------------------------------------------------
                                   FINDIF
                     R. A. King and Jonathon Misiewicz
         ---------------------------------------------------------

  Computing gradient from energies.
    Using 3-point formula.
    Energy without displacement: -552.9904895511
    Check energies below for precision!
    Forces are for mass-weighted, symmetry-adapted cartesians (in au).

     Coord      Energy(-1)        Energy(+1)            Force
        0   -552.9904926261   -552.9904858725      0.0006753663
        1   -552.9904723831   -552.9905015790     -0.0029195991


-------------------------------------------------------------
  ## New Matrix (Symmetry 0) ##
  Irrep: 1 Size: 3 x 3

                 1                   2                   3

    1     0.00000000000000     0.00000000000000     0.00260811923771
    2     0.00000000000000     0.00000000000000    -0.00862547251878
    3     0.00000000000000     0.00000000000000     0.00601735328106




			-----------------------------------------
			 OPTKING 2.0: for geometry optimizations 
			  - R.A. King,  Bethel University        
			-----------------------------------------
	At level 1: Red. Int., RFO, no backsteps, dynamic trust

	Internal coordinates to be generated automatically.
	Detected frag 1 with atoms:  1 2 3
	---Fragment 1 Bond Connectivity---
	 1 : 2
	 2 : 1 3
	 3 : 2

	---Fragment 1 Geometry and Gradient---
	 CL          0.0000000000        0.0000000000       -1.8225566085
	 C           0.0000000000        0.0000000000        1.2684790162
	 N           0.0000000000        0.0000000000        3.4643082896
	             0.0000000000        0.0000000000        0.0026081192
	             0.0000000000        0.0000000000       -0.0086254725
	             0.0000000000        0.0000000000        0.0060173533

	Previous optimization step data not found.  Starting new optimization.

	---Fragment 1 Intrafragment Coordinates---
	 - Coordinate -           - BOHR/RAD -       - ANG/DEG -
	 R(1,2)           =         3.091036	       1.635706
	 R(2,3)           =         2.195829	       1.161983
	 L(1,2,3)         =         3.141593	     180.000000
	 l(1,2,3)         =         3.141593	     180.000000

	Current energy   :      -552.9904895511

	Generating empirical Hessian (Schlegel '84) for each fragment.
	Taking RFO optimization step.
	Going to follow RFO solution 1.
	Using RFO vector 1.
	Norm of target step-size    0.00751
	Projected energy change by RFO approximation:        -0.0000437705

	Back-transformation to cartesian coordinates...
	Successfully converged to displaced geometry.

	--- Internal Coordinate Step in ANG or DEG, aJ/ANG or AJ/DEG ---
	 ---------------------------------------------------------------------------
	   Coordinate                Previous        Force       Change         New 
	   ----------                --------       ------       ------       ------
	    1 R(1,2)          =      1.635706     0.021488     0.003074     1.638780
	    2 R(2,3)          =      1.161983    -0.049575    -0.002517     1.159466
	    3 L(1,2,3)        =    180.000000     0.000000     0.000000   180.000000
	    4 l(1,2,3)        =    180.000000     0.000000     0.000000   180.000000
	 ---------------------------------------------------------------------------
	Successfully symmetrized geometry.

  ==> Convergence Check <==

  Measures of convergence in internal coordinates in au.
  Criteria marked as inactive (o), active & met (*), and active & unmet ( ).
  --------------------------------------------------------------------------------------------- ~
   Step     Total Energy     Delta E     MAX Force     RMS Force      MAX Disp      RMS Disp    ~
  --------------------------------------------------------------------------------------------- ~
    Convergence Criteria    1.00e-06 *    3.00e-04 *             o    1.20e-03 *             o  ~
  --------------------------------------------------------------------------------------------- ~
      1    -552.99048955   -5.53e+02      6.02e-03      3.28e-03 o    5.81e-03      3.75e-03 o  ~
  ---------------------------------------------------------------------------------------------

	Writing optimization data to binary file.
	Structure for next step:
	Cartesian Geometry (in Angstrom)
	   CL    -0.0000000000   0.0000000000  -0.9656658990
	    C     0.0000000000   0.0000000000   0.6731139288
	    N    -0.0000000000   0.0000000000   1.8325797270
			--------------------------
			 OPTKING Finished Execution 
			--------------------------

    Structure for next step:
    Molecular point group: c2v
    Full point group: C_inf_v

    Geometry (in Angstrom), charge = 0, multiplicity = 1:

    CL           0.000000000000     0.000000000000    -0.965188439126
    C            0.000000000000    -0.000000000000     0.673591395156
    N            0.000000000000     0.000000000000     1.833057197882

gradient() will perform gradient computation by finite difference of analytic energies.

         ----------------------------------------------------------
                                   FINDIF
                     R. A. King and Jonathon Misiewicz
         ---------------------------------------------------------

  Using finite-differences of energies to determine gradients.
    Generating geometries for use with 3-point formula.
    Displacement size will be 5.00e-03.
    Number of atoms is 3.
    Number of symmetric SALCs is 2.
    Translations projected? 1. Rotations projected? 1.
    Number of geometries (including reference) is 5.

  //>>>>>>>>>>>>>>>>>>>>>>>>>>>>>>>>>>>//
  //    Loading displacement 1 of 5    //
  //<<<<<<<<<<<<<<<<<<<<<<<<<<<<<<<<<<<//

*** tstart() called on bp1-compute00099.data.bp.acrc.priv
*** at Tue Apr 27 17:57:28 2021

   => Loading Basis Set <=

    Name: AUG-CC-PV(D+D)Z
    Role: ORBITAL
    Keyword: BASIS
    atoms 1 entry CL         line   792 file /work/zw18965/.conda/envs/p4env/share/psi4/basis/aug-cc-pv_dpd_z.gbs 
    atoms 2 entry C          line   198 file /work/zw18965/.conda/envs/p4env/share/psi4/basis/aug-cc-pv_dpd_z.gbs 
    atoms 3 entry N          line   234 file /work/zw18965/.conda/envs/p4env/share/psi4/basis/aug-cc-pv_dpd_z.gbs 


         ---------------------------------------------------------
                                   SCF
               by Justin Turney, Rob Parrish, Andy Simmonett
                          and Daniel G. A. Smith
                              RKS Reference
                       24 Threads, 137329 MiB Core
         ---------------------------------------------------------

  ==> Geometry <==

    Molecular point group: c2v
    Full point group: C_inf_v

    Geometry (in Angstrom), charge = 0, multiplicity = 1:

       Center              X                  Y                   Z               Mass       
    ------------   -----------------  -----------------  -----------------  -----------------
         CL           0.000000000000    -0.000000000000    -0.965188439126    34.968852682000
         C            0.000000000000     0.000000000000     0.673591395156    12.000000000000
         N            0.000000000000    -0.000000000000     1.833057197882    14.003074004430

  Running in c2v symmetry.

  Rotational constants: A = ************  B =      0.19815  C =      0.19815 [cm^-1]
  Rotational constants: A = ************  B =   5940.53326  C =   5940.53326 [MHz]
  Nuclear repulsion =   74.609569799735510

  Charge       = 0
  Multiplicity = 1
  Electrons    = 30
  Nalpha       = 15
  Nbeta        = 15

  ==> Algorithm <==

  SCF Algorithm Type is DF.
  DIIS enabled.
  MOM disabled.
  Fractional occupation disabled.
  Guess Type is READ.
  Energy threshold   = 1.00e-08
  Density threshold  = 1.00e-08
  Integral threshold = 0.00e+00

  ==> Primary Basis <==

  Basis Set: AUG-CC-PV(D+D)Z
    Blend: AUG-CC-PV(D+D)Z
    Number of shells: 30
    Number of basis function: 78
    Number of Cartesian functions: 85
    Spherical Harmonics?: true
    Max angular momentum: 2

  ==> DFT Potential <==

   => Composite Functional: WB97M-V <= 

    wB97M-V Hyb-GGA Exchange-Correlation Functional

    N. Mardirossian and M. Head-Gordon, J. Chem. Phys. 144, 214110 (2016)

    Deriv               =              1
    GGA                 =           TRUE
    Meta                =           TRUE

    Exchange Hybrid     =           TRUE
    MP2 Hybrid          =          FALSE

   => Exchange-Correlation Functionals <=

    1.0000   wB97M-V exchange-correlation functional

   => Exact (HF) Exchange <=

    0.8500            HF,LR [omega = 0.3000]
    0.1500               HF 

   => VV10 Non-Local Parameters <=

    VV10 B              =     6.0000E+00
    VV10 C              =     1.0000E-02

   => Molecular Quadrature <=

    Radial Scheme          =       TREUTLER
    Pruning Scheme         =           FLAT
    Nuclear Scheme         =       TREUTLER

    BS radius alpha        =              1
    Pruning alpha          =              1
    Radial Points          =             75
    Spherical Points       =            302
    Total Points           =          67729
    Total Blocks           =            598
    Max Points             =            251
    Max Functions          =             78

   => Loading Basis Set <=

    Name: (AUG-CC-PV(D+D)Z AUX)
    Role: JKFIT
    Keyword: DF_BASIS_SCF
    atoms 1 entry CL         line   772 file /work/zw18965/.conda/envs/p4env/share/psi4/basis/aug-cc-pvdz-jkfit.gbs 
    atoms 2 entry C          line   154 file /work/zw18965/.conda/envs/p4env/share/psi4/basis/aug-cc-pvdz-jkfit.gbs 
    atoms 3 entry N          line   212 file /work/zw18965/.conda/envs/p4env/share/psi4/basis/aug-cc-pvdz-jkfit.gbs 

   => Loading Basis Set <=

    Name: AUG-CC-PV(D+D)Z
    Role: ORBITAL
    Keyword: BASIS
    atoms 1 entry CL         line   792 file /work/zw18965/.conda/envs/p4env/share/psi4/basis/aug-cc-pv_dpd_z.gbs 
    atoms 2 entry C          line   198 file /work/zw18965/.conda/envs/p4env/share/psi4/basis/aug-cc-pv_dpd_z.gbs 
    atoms 3 entry N          line   234 file /work/zw18965/.conda/envs/p4env/share/psi4/basis/aug-cc-pv_dpd_z.gbs 

  Reading orbitals from file 180, no projection.

  ==> Pre-Iterations <==

   -------------------------------------------------------
    Irrep   Nso     Nmo     Nalpha   Nbeta   Ndocc  Nsocc
   -------------------------------------------------------
     A1        37      37       0       0       0       0
     A2         7       7       0       0       0       0
     B1        17      17       0       0       0       0
     B2        17      17       0       0       0       0
   -------------------------------------------------------
    Total      78      78      15      15      15       0
   -------------------------------------------------------

  ==> Integral Setup <==

  ==> DiskDFJK: Density-Fitted J/K Matrices <==

    J tasked:                  Yes
    K tasked:                  Yes
    wK tasked:                 Yes
    Omega:               3.000E-01
    OpenMP threads:             24
    Integrals threads:          24
    Memory [MiB]:           102638
    Algorithm:                Core
    Integral Cache:           NONE
    Schwarz Cutoff:          1E-12
    Fitting Condition:       1E-10

   => Auxiliary Basis Set <=

  Basis Set: (AUG-CC-PV(D+D)Z AUX)
    Blend: AUG-CC-PVDZ-JKFIT
    Number of shells: 96
    Number of basis function: 300
    Number of Cartesian functions: 352
    Spherical Harmonics?: true
    Max angular momentum: 3

  Cached 100.0% of DFT collocation blocks in 0.350 [GiB].

  Minimum eigenvalue in the overlap matrix is 7.7661321313E-04.
  Using Symmetric Orthogonalization.

  SCF Guess: Orbitals guess was supplied from a previous computation.

  ==> Iterations <==

                           Total Energy        Delta E     RMS |[F,P]|

   @DF-RKS iter   0:  -552.99129884106844   -5.52991e+02   3.02030e-04 
   @DF-RKS iter   1:  -552.99050933808371    7.89503e-04   6.25221e-05 DIIS
   @DF-RKS iter   2:  -552.99050985812926   -5.20046e-07   6.45380e-05 DIIS
   @DF-RKS iter   3:  -552.99051339014125   -3.53201e-06   1.57004e-05 DIIS
   @DF-RKS iter   4:  -552.99051358938380   -1.99243e-07   3.13653e-06 DIIS
   @DF-RKS iter   5:  -552.99051359995099   -1.05672e-08   8.20000e-07 DIIS
   @DF-RKS iter   6:  -552.99051360131909   -1.36811e-09   1.81299e-07 DIIS
   @DF-RKS iter   7:  -552.99051360138697   -6.78710e-11   4.30504e-08 DIIS
   @DF-RKS iter   8:  -552.99051360139219   -5.22959e-12   8.57987e-09 DIIS
  Energy and wave function converged.


  ==> Post-Iterations <==

    Orbital Energies [Eh]
    ---------------------

    Doubly Occupied:                                                      

       1A1  -101.976644     2A1   -14.559581     3A1   -10.468443  
       4A1    -9.739952     5A1    -7.445783     1B1    -7.434913  
       1B2    -7.434913     6A1    -1.095456     7A1    -1.035486  
       8A1    -0.689536     2B2    -0.551694     2B1    -0.551694  
       9A1    -0.505131     3B2    -0.436755     3B1    -0.436755  

    Virtual:                                                              

      10A1     0.016823    11A1     0.060008    12A1     0.077196  
       4B1     0.078321     4B2     0.078321     5B1     0.085908  
       5B2     0.085908     6B2     0.123229     6B1     0.123229  
      13A1     0.123673    14A1     0.192738     7B1     0.222163  
       7B2     0.222163    15A1     0.244540    16A1     0.292591  
       1A2     0.294803    17A1     0.294805    18A1     0.451969  
       8B1     0.456893     8B2     0.456893     2A2     0.457683  
      19A1     0.457684     9B2     0.580351     9B1     0.580351  
      20A1     0.581953    21A1     0.662259    10B2     0.694955  
      10B1     0.694955     3A2     0.774705    22A1     0.774707  
      23A1     0.801785    11B1     0.880839    11B2     0.880839  
      24A1     0.890059    12B2     0.942511    12B1     0.942511  
      25A1     1.084864     4A2     1.084870    26A1     1.091781  
      13B2     1.128603    13B1     1.128603    27A1     1.165575  
      28A1     1.250227    29A1     1.457360     5A2     1.457364  
      14B2     1.518005    14B1     1.518005    15B1     1.694232  
      15B2     1.694232    30A1     1.790650    31A1     1.867483  
      32A1     2.121936    33A1     2.371200     6A2     2.371201  
      16B1     2.622835    16B2     2.622835    34A1     2.958247  
      35A1     3.160698    36A1     5.500633     7A2     5.500661  
      17B1     5.571954    17B2     5.571954    37A1     5.642275  

    Final Occupation by Irrep:
             A1    A2    B1    B2 
    DOCC [     9,    0,    3,    3 ]

  @DF-RKS Final Energy:  -552.99051360139219

   => Energetics <=

    Nuclear Repulsion Energy =             74.6095697997355103
    One-Electron Energy =                -907.3145285098621571
    Two-Electron Energy =                 310.2024890438304965
    DFT Exchange-Correlation Energy =     -30.6124520491445402
    Empirical Dispersion Energy =           0.0000000000000000
    VV10 Nonlocal Energy =                  0.1244081140486142
    Total Energy =                       -552.9905136013920810

Computation Completed


Properties will be evaluated at   0.000000,   0.000000,   0.000000 [a0]

Properties computed using the SCF density matrix

  Nuclear Dipole Moment: [e a0]
     X:     0.0000      Y:     0.0000      Z:     0.8782

  Electronic Dipole Moment: [e a0]
     X:     0.0000      Y:     0.0000      Z:    -2.0482

  Dipole Moment: [e a0]
     X:     0.0000      Y:     0.0000      Z:    -1.1700     Total:     1.1700

  Dipole Moment: [D]
     X:     0.0000      Y:     0.0000      Z:    -2.9738     Total:     2.9738


*** tstop() called on bp1-compute00099.data.bp.acrc.priv at Tue Apr 27 17:57:30 2021
Module time:
	user time   =      52.42 seconds =       0.87 minutes
	system time =       1.42 seconds =       0.02 minutes
	total time  =          2 seconds =       0.03 minutes
Total time:
	user time   =     431.83 seconds =       7.20 minutes
	system time =      16.30 seconds =       0.27 minutes
	total time  =         19 seconds =       0.32 minutes

  //>>>>>>>>>>>>>>>>>>>>>>>>>>>>>>>>>>>//
  //    Loading displacement 2 of 5    //
  //<<<<<<<<<<<<<<<<<<<<<<<<<<<<<<<<<<<//

*** tstart() called on bp1-compute00099.data.bp.acrc.priv
*** at Tue Apr 27 17:57:30 2021

   => Loading Basis Set <=

    Name: AUG-CC-PV(D+D)Z
    Role: ORBITAL
    Keyword: BASIS
    atoms 1 entry CL         line   792 file /work/zw18965/.conda/envs/p4env/share/psi4/basis/aug-cc-pv_dpd_z.gbs 
    atoms 2 entry C          line   198 file /work/zw18965/.conda/envs/p4env/share/psi4/basis/aug-cc-pv_dpd_z.gbs 
    atoms 3 entry N          line   234 file /work/zw18965/.conda/envs/p4env/share/psi4/basis/aug-cc-pv_dpd_z.gbs 


         ---------------------------------------------------------
                                   SCF
               by Justin Turney, Rob Parrish, Andy Simmonett
                          and Daniel G. A. Smith
                              RKS Reference
                       24 Threads, 137329 MiB Core
         ---------------------------------------------------------

  ==> Geometry <==

    Molecular point group: c2v
    Full point group: C_inf_v

    Geometry (in Angstrom), charge = 0, multiplicity = 1:

       Center              X                  Y                   Z               Mass       
    ------------   -----------------  -----------------  -----------------  -----------------
         CL           0.000000000000    -0.000000000000    -0.965480637525    34.968852682000
         C            0.000000000000     0.000000000000     0.673984342650    12.000000000000
         N            0.000000000000    -0.000000000000     1.833450145376    14.003074004430

  Running in c2v symmetry.

  Rotational constants: A = ************  B =      0.19805  C =      0.19805 [cm^-1]
  Rotational constants: A = ************  B =   5937.30499  C =   5937.30499 [MHz]
  Nuclear repulsion =   74.590296511516428

  Charge       = 0
  Multiplicity = 1
  Electrons    = 30
  Nalpha       = 15
  Nbeta        = 15

  ==> Algorithm <==

  SCF Algorithm Type is DF.
  DIIS enabled.
  MOM disabled.
  Fractional occupation disabled.
  Guess Type is READ.
  Energy threshold   = 1.00e-08
  Density threshold  = 1.00e-08
  Integral threshold = 0.00e+00

  ==> Primary Basis <==

  Basis Set: AUG-CC-PV(D+D)Z
    Blend: AUG-CC-PV(D+D)Z
    Number of shells: 30
    Number of basis function: 78
    Number of Cartesian functions: 85
    Spherical Harmonics?: true
    Max angular momentum: 2

  ==> DFT Potential <==

   => Composite Functional: WB97M-V <= 

    wB97M-V Hyb-GGA Exchange-Correlation Functional

    N. Mardirossian and M. Head-Gordon, J. Chem. Phys. 144, 214110 (2016)

    Deriv               =              1
    GGA                 =           TRUE
    Meta                =           TRUE

    Exchange Hybrid     =           TRUE
    MP2 Hybrid          =          FALSE

   => Exchange-Correlation Functionals <=

    1.0000   wB97M-V exchange-correlation functional

   => Exact (HF) Exchange <=

    0.8500            HF,LR [omega = 0.3000]
    0.1500               HF 

   => VV10 Non-Local Parameters <=

    VV10 B              =     6.0000E+00
    VV10 C              =     1.0000E-02

   => Molecular Quadrature <=

    Radial Scheme          =       TREUTLER
    Pruning Scheme         =           FLAT
    Nuclear Scheme         =       TREUTLER

    BS radius alpha        =              1
    Pruning alpha          =              1
    Radial Points          =             75
    Spherical Points       =            302
    Total Points           =          67729
    Total Blocks           =            597
    Max Points             =            254
    Max Functions          =             78

   => Loading Basis Set <=

    Name: (AUG-CC-PV(D+D)Z AUX)
    Role: JKFIT
    Keyword: DF_BASIS_SCF
    atoms 1 entry CL         line   772 file /work/zw18965/.conda/envs/p4env/share/psi4/basis/aug-cc-pvdz-jkfit.gbs 
    atoms 2 entry C          line   154 file /work/zw18965/.conda/envs/p4env/share/psi4/basis/aug-cc-pvdz-jkfit.gbs 
    atoms 3 entry N          line   212 file /work/zw18965/.conda/envs/p4env/share/psi4/basis/aug-cc-pvdz-jkfit.gbs 

   => Loading Basis Set <=

    Name: AUG-CC-PV(D+D)Z
    Role: ORBITAL
    Keyword: BASIS
    atoms 1 entry CL         line   792 file /work/zw18965/.conda/envs/p4env/share/psi4/basis/aug-cc-pv_dpd_z.gbs 
    atoms 2 entry C          line   198 file /work/zw18965/.conda/envs/p4env/share/psi4/basis/aug-cc-pv_dpd_z.gbs 
    atoms 3 entry N          line   234 file /work/zw18965/.conda/envs/p4env/share/psi4/basis/aug-cc-pv_dpd_z.gbs 

  Reading orbitals from file 180, no projection.

  ==> Pre-Iterations <==

   -------------------------------------------------------
    Irrep   Nso     Nmo     Nalpha   Nbeta   Ndocc  Nsocc
   -------------------------------------------------------
     A1        37      37       0       0       0       0
     A2         7       7       0       0       0       0
     B1        17      17       0       0       0       0
     B2        17      17       0       0       0       0
   -------------------------------------------------------
    Total      78      78      15      15      15       0
   -------------------------------------------------------

  ==> Integral Setup <==

  ==> DiskDFJK: Density-Fitted J/K Matrices <==

    J tasked:                  Yes
    K tasked:                  Yes
    wK tasked:                 Yes
    Omega:               3.000E-01
    OpenMP threads:             24
    Integrals threads:          24
    Memory [MiB]:           102638
    Algorithm:                Core
    Integral Cache:           NONE
    Schwarz Cutoff:          1E-12
    Fitting Condition:       1E-10

   => Auxiliary Basis Set <=

  Basis Set: (AUG-CC-PV(D+D)Z AUX)
    Blend: AUG-CC-PVDZ-JKFIT
    Number of shells: 96
    Number of basis function: 300
    Number of Cartesian functions: 352
    Spherical Harmonics?: true
    Max angular momentum: 3

  Cached 100.0% of DFT collocation blocks in 0.350 [GiB].

  Minimum eigenvalue in the overlap matrix is 7.7817312246E-04.
  Using Symmetric Orthogonalization.

  SCF Guess: Orbitals guess was supplied from a previous computation.

  ==> Iterations <==

                           Total Energy        Delta E     RMS |[F,P]|

   @DF-RKS iter   0:  -552.98992516996668   -5.52990e+02   4.16908e-05 
   @DF-RKS iter   1:  -552.99051401462589   -5.88845e-04   8.93646e-06 DIIS
   @DF-RKS iter   2:  -552.99051397473568    3.98902e-08   1.18408e-05 DIIS
   @DF-RKS iter   3:  -552.99051408685921   -1.12124e-07   1.51399e-06 DIIS
   @DF-RKS iter   4:  -552.99051408860953   -1.75032e-09   2.04372e-07 DIIS
   @DF-RKS iter   5:  -552.99051408870218   -9.26548e-11   3.89894e-08 DIIS
   @DF-RKS iter   6:  -552.99051408870571   -3.52429e-12   1.35038e-08 DIIS
   @DF-RKS iter   7:  -552.99051408870616   -4.54747e-13   4.67891e-09 DIIS
  Energy and wave function converged.


  ==> Post-Iterations <==

    Orbital Energies [Eh]
    ---------------------

    Doubly Occupied:                                                      

       1A1  -101.976654     2A1   -14.559636     3A1   -10.468503  
       4A1    -9.739945     5A1    -7.445780     1B2    -7.434905  
       1B1    -7.434905     6A1    -1.095339     7A1    -1.035457  
       8A1    -0.689451     2B2    -0.551596     2B1    -0.551596  
       9A1    -0.505165     3B1    -0.436816     3B2    -0.436816  

    Virtual:                                                              

      10A1     0.016771    11A1     0.060005    12A1     0.077061  
       4B1     0.078328     4B2     0.078328     5B2     0.085900  
       5B1     0.085900     6B2     0.123218     6B1     0.123218  
      13A1     0.123563    14A1     0.192711     7B1     0.222145  
       7B2     0.222145    15A1     0.244576    16A1     0.292587  
       1A2     0.294838    17A1     0.294839    18A1     0.451985  
       8B2     0.456760     8B1     0.456760     2A2     0.457637  
      19A1     0.457638     9B1     0.580358     9B2     0.580358  
      20A1     0.581838    21A1     0.662175    10B1     0.694952  
      10B2     0.694952     3A2     0.774652    22A1     0.774653  
      23A1     0.801714    11B2     0.880826    11B1     0.880826  
      24A1     0.890181    12B2     0.942419    12B1     0.942419  
      25A1     1.084889     4A2     1.084895    26A1     1.091827  
      13B2     1.128643    13B1     1.128643    27A1     1.165369  
      28A1     1.249942    29A1     1.457367     5A2     1.457370  
      14B1     1.517936    14B2     1.517936    15B2     1.693956  
      15B1     1.693956    30A1     1.790329    31A1     1.867207  
      32A1     2.121762    33A1     2.371155     6A2     2.371155  
      16B2     2.622673    16B1     2.622673    34A1     2.957494  
      35A1     3.160705    36A1     5.500640     7A2     5.500668  
      17B1     5.571810    17B2     5.571810    37A1     5.642306  

    Final Occupation by Irrep:
             A1    A2    B1    B2 
    DOCC [     9,    0,    3,    3 ]

  @DF-RKS Final Energy:  -552.99051408870616

   => Energetics <=

    Nuclear Repulsion Energy =             74.5902965115164278
    One-Electron Energy =                -907.2764834748958265
    Two-Electron Energy =                 310.1834510944182739
    DFT Exchange-Correlation Energy =     -30.6121872507754347
    Empirical Dispersion Energy =           0.0000000000000000
    VV10 Nonlocal Energy =                  0.1244090310303675
    Total Energy =                       -552.9905140887062771

Computation Completed


Properties will be evaluated at   0.000000,   0.000000,   0.000000 [a0]

Properties computed using the SCF density matrix

[...]
    VV10 Nonlocal Energy =                  0.1244092786335265
    Total Energy =                       -552.9905140535689725

Computation Completed


Properties will be evaluated at   0.000000,   0.000000,   0.000000 [a0]

Properties computed using the SCF density matrix

  Nuclear Dipole Moment: [e a0]
     X:     0.0001      Y:     0.0000      Z:     0.8785

  Electronic Dipole Moment: [e a0]
     X:     0.0002      Y:     0.0000      Z:    -2.0478

  Dipole Moment: [e a0]
     X:     0.0003      Y:     0.0000      Z:    -1.1693     Total:     1.1693

  Dipole Moment: [D]
     X:     0.0007      Y:     0.0000      Z:    -2.9720     Total:     2.9720


*** tstop() called on bp1-compute00099.data.bp.acrc.priv at Tue Apr 27 17:58:34 2021
Module time:
	user time   =      81.31 seconds =       1.36 minutes
	system time =       2.26 seconds =       0.04 minutes
	total time  =          4 seconds =       0.07 minutes
Total time:
	user time   =    1904.31 seconds =      31.74 minutes
	system time =      57.68 seconds =       0.96 minutes
	total time  =         83 seconds =       1.38 minutes

  //>>>>>>>>>>>>>>>>>>>>>>>>>>>>>>>>>>>//
  //    Loading displacement 9 of 9    //
  //<<<<<<<<<<<<<<<<<<<<<<<<<<<<<<<<<<<//

*** tstart() called on bp1-compute00099.data.bp.acrc.priv
*** at Tue Apr 27 17:58:34 2021

   => Loading Basis Set <=

    Name: AUG-CC-PV(D+D)Z
    Role: ORBITAL
    Keyword: BASIS
    atoms 1 entry CL         line   792 file /work/zw18965/.conda/envs/p4env/share/psi4/basis/aug-cc-pv_dpd_z.gbs 
    atoms 2 entry C          line   198 file /work/zw18965/.conda/envs/p4env/share/psi4/basis/aug-cc-pv_dpd_z.gbs 
    atoms 3 entry N          line   234 file /work/zw18965/.conda/envs/p4env/share/psi4/basis/aug-cc-pv_dpd_z.gbs 


         ---------------------------------------------------------
                                   SCF
               by Justin Turney, Rob Parrish, Andy Simmonett
                          and Daniel G. A. Smith
                              RKS Reference
                       24 Threads, 137329 MiB Core
         ---------------------------------------------------------

  ==> Geometry <==

    Molecular point group: cs
    Full point group: Cs

    Geometry (in Angstrom), charge = 0, multiplicity = 1:

       Center              X                  Y                   Z               Mass       
    ------------   -----------------  -----------------  -----------------  -----------------
         CL           0.000000000000    -0.000093338885    -0.965517025727    34.968852682000
         C            0.000000000000     0.000656661104     0.674088545682    12.000000000000
         N            0.000000000000    -0.000329640445     1.833451717694    14.003074004430

  Running in cs symmetry.

  Rotational constants: A = 2407987.46702  B =      0.19804  C =      0.19804 [cm^-1]
  Rotational constants: A = 72189648157.17372  B =   5937.01040  C =   5937.00991 [MHz]
  Nuclear repulsion =   74.588854746937812

  Charge       = 0
  Multiplicity = 1
  Electrons    = 30
  Nalpha       = 15
  Nbeta        = 15

  ==> Algorithm <==

  SCF Algorithm Type is DF.
  DIIS enabled.
  MOM disabled.
  Fractional occupation disabled.
  Guess Type is SAD.
  Energy threshold   = 1.00e-10
  Density threshold  = 1.00e-10
  Integral threshold = 0.00e+00

  ==> Primary Basis <==

  Basis Set: AUG-CC-PV(D+D)Z
    Blend: AUG-CC-PV(D+D)Z
    Number of shells: 30
    Number of basis function: 78
    Number of Cartesian functions: 85
    Spherical Harmonics?: true
    Max angular momentum: 2

  ==> DFT Potential <==

   => Composite Functional: WB97M-V <= 

    wB97M-V Hyb-GGA Exchange-Correlation Functional

    N. Mardirossian and M. Head-Gordon, J. Chem. Phys. 144, 214110 (2016)

    Deriv               =              1
    GGA                 =           TRUE
    Meta                =           TRUE

    Exchange Hybrid     =           TRUE
    MP2 Hybrid          =          FALSE

   => Exchange-Correlation Functionals <=

    1.0000   wB97M-V exchange-correlation functional

   => Exact (HF) Exchange <=

    0.8500            HF,LR [omega = 0.3000]
    0.1500               HF 

   => VV10 Non-Local Parameters <=

    VV10 B              =     6.0000E+00
    VV10 C              =     1.0000E-02

   => Molecular Quadrature <=

    Radial Scheme          =       TREUTLER
    Pruning Scheme         =           FLAT
    Nuclear Scheme         =       TREUTLER

    BS radius alpha        =              1
    Pruning alpha          =              1
    Radial Points          =             75
    Spherical Points       =            302
    Total Points           =          67729
    Total Blocks           =            589
    Max Points             =            255
    Max Functions          =             78

   => Loading Basis Set <=

    Name: (AUG-CC-PV(D+D)Z AUX)
    Role: JKFIT
    Keyword: DF_BASIS_SCF
    atoms 1 entry CL         line   772 file /work/zw18965/.conda/envs/p4env/share/psi4/basis/aug-cc-pvdz-jkfit.gbs 
    atoms 2 entry C          line   154 file /work/zw18965/.conda/envs/p4env/share/psi4/basis/aug-cc-pvdz-jkfit.gbs 
    atoms 3 entry N          line   212 file /work/zw18965/.conda/envs/p4env/share/psi4/basis/aug-cc-pvdz-jkfit.gbs 

  ==> Pre-Iterations <==

   -------------------------------------------------------
    Irrep   Nso     Nmo     Nalpha   Nbeta   Ndocc  Nsocc
   -------------------------------------------------------
     A'        54      54       0       0       0       0
     A"        24      24       0       0       0       0
   -------------------------------------------------------
    Total      78      78      15      15      15       0
   -------------------------------------------------------

  ==> Integral Setup <==

  ==> DiskDFJK: Density-Fitted J/K Matrices <==

    J tasked:                  Yes
    K tasked:                  Yes
    wK tasked:                 Yes
    Omega:               3.000E-01
    OpenMP threads:             24
    Integrals threads:          24
    Memory [MiB]:           102638
    Algorithm:                Core
    Integral Cache:           NONE
    Schwarz Cutoff:          1E-12
    Fitting Condition:       1E-10

   => Auxiliary Basis Set <=

  Basis Set: (AUG-CC-PV(D+D)Z AUX)
    Blend: AUG-CC-PVDZ-JKFIT
    Number of shells: 96
    Number of basis function: 300
    Number of Cartesian functions: 352
    Spherical Harmonics?: true
    Max angular momentum: 3

  Cached 100.0% of DFT collocation blocks in 0.350 [GiB].

  Minimum eigenvalue in the overlap matrix is 7.7843338166E-04.
  Using Symmetric Orthogonalization.

  SCF Guess: Superposition of Atomic Densities via on-the-fly atomic UHF.

  ==> Iterations <==

                           Total Energy        Delta E     RMS |[F,P]|

   @DF-RKS iter SAD:  -552.45783338816398   -5.52458e+02   0.00000e+00 
   @DF-RKS iter   1:  -552.79884584599517   -3.41012e-01   1.06197e-02 DIIS
   @DF-RKS iter   2:  -552.58732564986121    2.11520e-01   1.55959e-02 DIIS
   @DF-RKS iter   3:  -552.98746301341873   -4.00137e-01   1.16394e-03 DIIS
   @DF-RKS iter   4:  -552.98979608923821   -2.33308e-03   5.99032e-04 DIIS
   @DF-RKS iter   5:  -552.99046416333351   -6.68074e-04   1.18612e-04 DIIS
   @DF-RKS iter   6:  -552.99050966719187   -4.55039e-05   3.00080e-05 DIIS
   @DF-RKS iter   7:  -552.99051395923561   -4.29204e-06   4.76515e-06 DIIS
   @DF-RKS iter   8:  -552.99051404589113   -8.66555e-08   1.38588e-06 DIIS
   @DF-RKS iter   9:  -552.99051405234070   -6.44957e-09   2.27232e-07 DIIS
   @DF-RKS iter  10:  -552.99051405257683   -2.36128e-10   6.45510e-08 DIIS
   @DF-RKS iter  11:  -552.99051405258911   -1.22782e-11   6.34926e-09 DIIS
   @DF-RKS iter  12:  -552.99051405258933   -2.27374e-13   1.04198e-09 DIIS
   @DF-RKS iter  13:  -552.99051405258956   -2.27374e-13   1.03036e-10 DIIS
   @DF-RKS iter  14:  -552.99051405258990   -3.41061e-13   4.86690e-11 DIIS
  Energy and wave function converged.


  ==> Post-Iterations <==

    Orbital Energies [Eh]
    ---------------------

    Doubly Occupied:                                                      

       1Ap  -101.976651     2Ap   -14.559622     3Ap   -10.468491  
       4Ap    -9.739938     5Ap    -7.445775     1App   -7.434898  
       6Ap    -7.434898     7Ap    -1.095330     8Ap    -1.035473  
       9Ap    -0.689425     2App   -0.551583    10Ap    -0.551583  
      11Ap    -0.505165     3App   -0.436844    12Ap    -0.436844  

    Virtual:                                                              

      13Ap     0.016763    14Ap     0.060005    15Ap     0.077038  
      16Ap     0.078327     4App    0.078327     5App    0.085927  
      17Ap     0.085928    18Ap     0.123213     6App    0.123218  
      19Ap     0.123548    20Ap     0.192710    21Ap     0.222147  
       7App    0.222147    22Ap     0.244583    23Ap     0.292586  
       8App    0.294846    24Ap     0.294848    25Ap     0.451998  
       9App    0.456736    26Ap     0.456738    10App    0.457641  
      27Ap     0.457642    28Ap     0.580335    11App    0.580336  
      29Ap     0.581833    30Ap     0.662160    12App    0.694960  
      31Ap     0.694961    13App    0.774655    32Ap     0.774656  
      33Ap     0.801759    34Ap     0.880846    14App    0.880846  
      35Ap     0.890210    36Ap     0.942414    15App    0.942414  
      37Ap     1.084899    16App    1.084905    38Ap     1.091860  
      17App    1.128658    39Ap     1.128658    40Ap     1.165316  
      41Ap     1.249965    42Ap     1.457365    18App    1.457368  
      43Ap     1.517950    19App    1.517950    20App    1.693929  
      44Ap     1.693930    45Ap     1.790367    46Ap     1.867170  
      47Ap     2.121704    48Ap     2.371169    21App    2.371169  
      49Ap     2.622704    22App    2.622704    50Ap     2.957553  
      51Ap     3.160957    52Ap     5.500647    23App    5.500675  
      24App    5.571791    53Ap     5.571791    54Ap     5.642323  

    Final Occupation by Irrep:
             Ap   App 
    DOCC [    12,    3 ]

  @DF-RKS Final Energy:  -552.99051405258990

   => Energetics <=

    Nuclear Repulsion Energy =             74.5888547469378125
    One-Electron Energy =                -907.2736669231717315
    Two-Electron Energy =                 310.1821108454187197
    DFT Exchange-Correlation Energy =     -30.6122220004083765
    Empirical Dispersion Energy =           0.0000000000000000
    VV10 Nonlocal Energy =                  0.1244092786336483
    Total Energy =                       -552.9905140525899014

Computation Completed


Properties will be evaluated at   0.000000,   0.000000,   0.000000 [a0]

Properties computed using the SCF density matrix

  Nuclear Dipole Moment: [e a0]
     X:     0.0000      Y:     0.0001      Z:     0.8785

  Electronic Dipole Moment: [e a0]
     X:     0.0000      Y:     0.0002      Z:    -2.0478

  Dipole Moment: [e a0]
     X:     0.0000      Y:     0.0003      Z:    -1.1693     Total:     1.1693

  Dipole Moment: [D]
     X:     0.0000      Y:     0.0007      Z:    -2.9720     Total:     2.9720


*** tstop() called on bp1-compute00099.data.bp.acrc.priv at Tue Apr 27 17:58:37 2021
Module time:
	user time   =      81.48 seconds =       1.36 minutes
	system time =       2.08 seconds =       0.03 minutes
	total time  =          3 seconds =       0.05 minutes
Total time:
	user time   =    1985.92 seconds =      33.10 minutes
	system time =      59.77 seconds =       1.00 minutes
	total time  =         86 seconds =       1.43 minutes

         ----------------------------------------------------------
                                   FINDIF
                     R. A. King and Jonathon Misiewicz
         ---------------------------------------------------------

  Computing second-derivative from energies using projected, 
  symmetry-adapted, cartesian coordinates.

  9 energies passed in, including the reference geometry.
    Using 3-point formula.
    Energy without displacement: -552.9905141250
    Check energies below for precision!
    0: -1        :      -552.9905139028
    0: 1         :      -552.9905137590
    1: -1        :      -552.9905115872
    1: 1         :      -552.9905114529
    0: 1, 1: 1   :      -552.9905115311
    0: -1, 1: -1 :      -552.9905118088
    2: -1        :      -552.9905140536
    3: -1        :      -552.9905140526

-------------------------------------------------------------


  ==> Harmonic Vibrational Analysis <==

  non-mass-weighted Hessian:       Symmetric? True   Hermitian? True   Lin Dep Dim?  5 (0)
  projection of translations (True) and rotations (True) removed 5 degrees of freedom (5)
  total projector:                 Symmetric? True   Hermitian? True   Lin Dep Dim?  5 (5)
  mass-weighted Hessian:           Symmetric? True   Hermitian? True   Lin Dep Dim?  5 (0)
  pre-proj  low-frequency mode:    0.0000i [cm^-1]
  pre-proj  low-frequency mode:    0.0000i [cm^-1]
  pre-proj  low-frequency mode:    0.0000i [cm^-1]
  pre-proj  low-frequency mode:    0.0000  [cm^-1]
  pre-proj  low-frequency mode:    0.0000  [cm^-1]
  pre-proj  all modes:['0.0000i' '0.0000i' '0.0000i' '0.0000' '0.0000' '388.7258' '391.3789'
 '759.7022' '2356.1610']
  projected mass-weighted Hessian: Symmetric? True   Hermitian? True   Lin Dep Dim?  5 (5)
  post-proj low-frequency mode:    0.0000i [cm^-1] (TR)
  post-proj low-frequency mode:    0.0000i [cm^-1] (TR)
  post-proj low-frequency mode:    0.0000i [cm^-1] (TR)
  post-proj low-frequency mode:    0.0000  [cm^-1] (TR)
  post-proj low-frequency mode:    0.0000  [cm^-1] (TR)
  post-proj  all modes:['0.0000i' '0.0000i' '0.0000i' '0.0000' '0.0000' '388.7258' '391.3789'
 '759.7022' '2356.1610']

  Vibration                       6                   7                   8           
  Freq [cm^-1]                 388.7258            391.3789            759.7022       
  Irrep                           B1                  B2                  A1          
  Reduced mass [u]             12.7615             12.7615             17.9688        
  Force const [mDyne/A]         1.1362              1.1517              6.1102        
  Turning point v=0 [a0]        0.1558              0.1553              0.0939        
  RMS dev v=0 [a0 u^1/2]        0.3935              0.3922              0.2815        
  Char temp [K]                559.2899            563.1071           1093.0424       
  ----------------------------------------------------------------------------------
      1   CL              -0.13 -0.00  0.00    0.00 -0.13  0.00    0.00 -0.00  0.47   
      2   C                0.89  0.00 -0.00    0.00  0.89  0.00    0.00  0.00 -0.54   
      3   N               -0.45 -0.00  0.00    0.00 -0.45  0.00   -0.00  0.00 -0.70   

  Vibration                       9           
  Freq [cm^-1]                2356.1610       
  Irrep                           A1          
  Reduced mass [u]             12.7408        
  Force const [mDyne/A]        41.6732        
  Turning point v=0 [a0]        0.0633        
  RMS dev v=0 [a0 u^1/2]        0.1598        
  Char temp [K]               3389.9910       
  ----------------------------------------------------------------------------------
      1   CL               0.00  0.00 -0.04   
      2   C                0.00  0.00  0.80   
      3   N                0.00  0.00 -0.59   

  ==> Thermochemistry Components <==

  Entropy, S
    Electronic S            0.000 [cal/(mol K)]        0.000 [J/(mol K)]       0.00000000 [mEh/K] (multiplicity = 1)
    Translational S        38.243 [cal/(mol K)]      160.010 [J/(mol K)]       0.06094445 [mEh/K] (mol. weight = 60.9719 [u], P = 101325.00 [Pa])
    Rotational S           15.804 [cal/(mol K)]       66.126 [J/(mol K)]       0.02518597 [mEh/K] (symmetry no. = 1)
    Vibrational S           2.243 [cal/(mol K)]        9.384 [J/(mol K)]       0.00357429 [mEh/K]
  Total S                  56.291 [cal/(mol K)]      235.520 [J/(mol K)]       0.08970471 [mEh/K]
  Correction S              0.000 [cal/(mol K)]        0.000 [J/(mol K)]       0.00000000 [mEh/K]

  Constant volume heat capacity, Cv
    Electronic Cv           0.000 [cal/(mol K)]        0.000 [J/(mol K)]       0.00000000 [mEh/K]
    Translational Cv        2.981 [cal/(mol K)]       12.472 [J/(mol K)]       0.00475022 [mEh/K]
    Rotational Cv           1.987 [cal/(mol K)]        8.314 [J/(mol K)]       0.00316681 [mEh/K]
    Vibrational Cv          3.705 [cal/(mol K)]       15.503 [J/(mol K)]       0.00590473 [mEh/K]
  Total Cv                  8.673 [cal/(mol K)]       36.289 [J/(mol K)]       0.01382175 [mEh/K]
  Correction Cv             0.000 [cal/(mol K)]        0.000 [J/(mol K)]       0.00000000 [mEh/K]

  Constant pressure heat capacity, Cp
    Electronic Cp           0.000 [cal/(mol K)]        0.000 [J/(mol K)]       0.00000000 [mEh/K]
    Translational Cp        4.968 [cal/(mol K)]       20.786 [J/(mol K)]       0.00791703 [mEh/K]
    Rotational Cp           1.987 [cal/(mol K)]        8.314 [J/(mol K)]       0.00316681 [mEh/K]
    Vibrational Cp          3.705 [cal/(mol K)]       15.503 [J/(mol K)]       0.00590473 [mEh/K]
  Total Cp                 10.660 [cal/(mol K)]       44.603 [J/(mol K)]       0.01698856 [mEh/K]
  Correction Cp             0.000 [cal/(mol K)]        0.000 [J/(mol K)]       0.00000000 [mEh/K]

  ==> Thermochemistry Energy Analysis <==

  Raw electronic energy, E0
  Total E0, Electronic energy at well bottom at 0 [K]                 -552.99051413 [Eh]

  Zero-point energy, ZPE_vib = Sum_i nu_i / 2
    Electronic ZPE          0.000 [kcal/mol]        0.000 [kJ/mol]       0.00000000 [Eh]
    Translational ZPE       0.000 [kcal/mol]        0.000 [kJ/mol]       0.00000000 [Eh]
    Rotational ZPE          0.000 [kcal/mol]        0.000 [kJ/mol]       0.00000000 [Eh]
    Vibrational ZPE         5.570 [kcal/mol]       23.303 [kJ/mol]       0.00887567 [Eh]        1947.984 [cm^-1]
  Correction ZPE            5.570 [kcal/mol]       23.303 [kJ/mol]       0.00887567 [Eh]        1947.984 [cm^-1]
  Total ZPE, Electronic energy at 0 [K]                               -552.98163846 [Eh]

  Thermal Energy, E (includes ZPE)
    Electronic E            0.000 [kcal/mol]        0.000 [kJ/mol]       0.00000000 [Eh]
    Translational E         0.889 [kcal/mol]        3.718 [kJ/mol]       0.00141628 [Eh]
    Rotational E            0.592 [kcal/mol]        2.479 [kJ/mol]       0.00094418 [Eh]
    Vibrational E           6.027 [kcal/mol]       25.218 [kJ/mol]       0.00960497 [Eh]
  Correction E              7.508 [kcal/mol]       31.415 [kJ/mol]       0.01196543 [Eh]
  Total E, Electronic energy at  298.15 [K]                           -552.97854869 [Eh]

  Enthalpy, H_trans = E_trans + k_B * T
    Electronic H            0.000 [kcal/mol]        0.000 [kJ/mol]       0.00000000 [Eh]
    Translational H         1.481 [kcal/mol]        6.197 [kJ/mol]       0.00236046 [Eh]
    Rotational H            0.592 [kcal/mol]        2.479 [kJ/mol]       0.00094418 [Eh]
    Vibrational H           6.027 [kcal/mol]       25.218 [kJ/mol]       0.00960497 [Eh]
  Correction H              8.101 [kcal/mol]       33.894 [kJ/mol]       0.01290962 [Eh]
  Total H, Enthalpy at  298.15 [K]                                    -552.97760451 [Eh]

  Gibbs free energy, G = H - T * S
    Electronic G            0.000 [kcal/mol]        0.000 [kJ/mol]       0.00000000 [Eh]
    Translational G        -9.921 [kcal/mol]      -41.509 [kJ/mol]      -0.01581013 [Eh]
    Rotational G           -4.120 [kcal/mol]      -17.236 [kJ/mol]      -0.00656501 [Eh]
    Vibrational G           5.358 [kcal/mol]       22.420 [kJ/mol]       0.00853930 [Eh]
  Correction G             -8.682 [kcal/mol]      -36.326 [kJ/mol]      -0.01383584 [Eh]
  Total G, Free enthalpy at  298.15 [K]                               -553.00434997 [Eh]

    Psi4 stopped on: Tuesday, 27 April 2021 05:58PM
    Psi4 wall time for execution: 0:01:26.81

*** Psi4 exiting successfully. Buy a developer a beer!
