
    -----------------------------------------------------------------------
          Psi4: An Open-Source Ab Initio Electronic Structure Package
                               Psi4 1.3.2 release

                         Git: Rev {HEAD} ecbda83 


    R. M. Parrish, L. A. Burns, D. G. A. Smith, A. C. Simmonett,
    A. E. DePrince III, E. G. Hohenstein, U. Bozkaya, A. Yu. Sokolov,
    R. Di Remigio, R. M. Richard, J. F. Gonthier, A. M. James,
    H. R. McAlexander, A. Kumar, M. Saitow, X. Wang, B. P. Pritchard,
    P. Verma, H. F. Schaefer III, K. Patkowski, R. A. King, E. F. Valeev,
    F. A. Evangelista, J. M. Turney, T. D. Crawford, and C. D. Sherrill,
    J. Chem. Theory Comput. 13(7) pp 3185--3197 (2017).
    (doi: 10.1021/acs.jctc.7b00174)


                         Additional Contributions by
    P. Kraus, H. Kruse, M. H. Lechner, M. C. Schieber, R. A. Shaw,
    A. Alenaizan, R. Galvelis, Z. L. Glick, S. Lehtola, and J. P. Misiewicz

    -----------------------------------------------------------------------


    Psi4 started on: Tuesday, 27 April 2021 05:58PM

    Process ID: 189146
    Host:       bp1-compute00090.data.bp.acrc.priv
    PSIDATADIR: /work/zw18965/.conda/envs/p4env/share/psi4
    Memory:     500.0 MiB
    Threads:    24
    
  ==> Input File <==

--------------------------------------------------------------------------
memory 144 GB

molecule {
0 1
C 0.0000000000 0.0000000000 0.0000000000
O 0.0000000000 0.0000000000 1.1314000000
}

set dynamic_level 1
set basis aug-cc-pV(D+d)Z
 
optimize("wB97M-V")
frequencies("wB97M-V")
--------------------------------------------------------------------------

  Memory set to 134.110 GiB by Python driver.
gradient() will perform gradient computation by finite difference of analytic energies.

         ----------------------------------------------------------
                                   FINDIF
                     R. A. King and Jonathon Misiewicz
         ---------------------------------------------------------

  Using finite-differences of energies to determine gradients.
    Generating geometries for use with 3-point formula.
    Displacement size will be 5.00e-03.
    Number of atoms is 2.
    Number of symmetric SALCs is 1.
    Translations projected? 1. Rotations projected? 1.
    Number of geometries (including reference) is 3.

  //>>>>>>>>>>>>>>>>>>>>>>>>>>>>>>>>>>>//
  //    Loading displacement 1 of 3    //
  //<<<<<<<<<<<<<<<<<<<<<<<<<<<<<<<<<<<//

*** tstart() called on bp1-compute00090.data.bp.acrc.priv
*** at Tue Apr 27 17:58:00 2021

   => Loading Basis Set <=

    Name: AUG-CC-PV(D+D)Z
    Role: ORBITAL
    Keyword: BASIS
    atoms 1 entry C          line   198 file /work/zw18965/.conda/envs/p4env/share/psi4/basis/aug-cc-pv_dpd_z.gbs 
    atoms 2 entry O          line   270 file /work/zw18965/.conda/envs/p4env/share/psi4/basis/aug-cc-pv_dpd_z.gbs 


         ---------------------------------------------------------
                                   SCF
               by Justin Turney, Rob Parrish, Andy Simmonett
                          and Daniel G. A. Smith
                              RKS Reference
                       24 Threads, 137329 MiB Core
         ---------------------------------------------------------

  ==> Geometry <==

    Molecular point group: c2v
    Full point group: C_inf_v

    Geometry (in Angstrom), charge = 0, multiplicity = 1:

       Center              X                  Y                   Z               Mass       
    ------------   -----------------  -----------------  -----------------  -----------------
         C            0.000000000000     0.000000000000    -0.646426204420    12.000000000000
         O            0.000000000000     0.000000000000     0.484973795580    15.994914619570

  Running in c2v symmetry.

  Rotational constants: A = ************  B =      1.92079  C =      1.92079 [cm^-1]
  Rotational constants: A = ************  B =  57583.86692  C =  57583.86692 [MHz]
  Nuclear repulsion =   22.450509202899067

  Charge       = 0
  Multiplicity = 1
  Electrons    = 14
  Nalpha       = 7
  Nbeta        = 7

  ==> Algorithm <==

  SCF Algorithm Type is DF.
  DIIS enabled.
  MOM disabled.
  Fractional occupation disabled.
  Guess Type is SAD.
  Energy threshold   = 1.00e-08
  Density threshold  = 1.00e-08
  Integral threshold = 0.00e+00

  ==> Primary Basis <==

  Basis Set: AUG-CC-PV(D+D)Z
    Blend: AUG-CC-PV(D+D)Z
    Number of shells: 18
    Number of basis function: 46
    Number of Cartesian functions: 50
    Spherical Harmonics?: true
    Max angular momentum: 2

  ==> DFT Potential <==

   => Composite Functional: WB97M-V <= 

    wB97M-V Hyb-GGA Exchange-Correlation Functional

    N. Mardirossian and M. Head-Gordon, J. Chem. Phys. 144, 214110 (2016)

    Deriv               =              1
    GGA                 =           TRUE
    Meta                =           TRUE

    Exchange Hybrid     =           TRUE
    MP2 Hybrid          =          FALSE

   => Exchange-Correlation Functionals <=

    1.0000   wB97M-V exchange-correlation functional

   => Exact (HF) Exchange <=

    0.8500            HF,LR [omega = 0.3000]
    0.1500               HF 

   => VV10 Non-Local Parameters <=

    VV10 B              =     6.0000E+00
    VV10 C              =     1.0000E-02

   => Molecular Quadrature <=

    Radial Scheme          =       TREUTLER
    Pruning Scheme         =           FLAT
    Nuclear Scheme         =       TREUTLER

    BS radius alpha        =              1
    Pruning alpha          =              1
    Radial Points          =             75
    Spherical Points       =            302
    Total Points           =          45300
    Total Blocks           =            420
    Max Points             =            256
    Max Functions          =             46

   => Loading Basis Set <=

    Name: (AUG-CC-PV(D+D)Z AUX)
    Role: JKFIT
    Keyword: DF_BASIS_SCF
    atoms 1 entry C          line   154 file /work/zw18965/.conda/envs/p4env/share/psi4/basis/aug-cc-pvdz-jkfit.gbs 
    atoms 2 entry O          line   270 file /work/zw18965/.conda/envs/p4env/share/psi4/basis/aug-cc-pvdz-jkfit.gbs 

  ==> Pre-Iterations <==

   -------------------------------------------------------
    Irrep   Nso     Nmo     Nalpha   Nbeta   Ndocc  Nsocc
   -------------------------------------------------------
     A1        22      22       0       0       0       0
     A2         4       4       0       0       0       0
     B1        10      10       0       0       0       0
     B2        10      10       0       0       0       0
   -------------------------------------------------------
    Total      46      46       7       7       7       0
   -------------------------------------------------------

  ==> Integral Setup <==

  ==> DiskDFJK: Density-Fitted J/K Matrices <==

    J tasked:                  Yes
    K tasked:                  Yes
    wK tasked:                 Yes
    Omega:               3.000E-01
    OpenMP threads:             24
    Integrals threads:          24
    Memory [MiB]:           102847
    Algorithm:                Core
    Integral Cache:           NONE
    Schwarz Cutoff:          1E-12
    Fitting Condition:       1E-10

   => Auxiliary Basis Set <=

  Basis Set: (AUG-CC-PV(D+D)Z AUX)
    Blend: AUG-CC-PVDZ-JKFIT
    Number of shells: 56
    Number of basis function: 172
    Number of Cartesian functions: 202
    Spherical Harmonics?: true
    Max angular momentum: 3

  Cached 100.0% of DFT collocation blocks in 0.146 [GiB].

  Minimum eigenvalue in the overlap matrix is 2.4955211519E-03.
  Using Symmetric Orthogonalization.

  SCF Guess: Superposition of Atomic Densities via on-the-fly atomic UHF.

  ==> Iterations <==

                           Total Energy        Delta E     RMS |[F,P]|

   @DF-RKS iter SAD:  -112.56575999037902   -1.12566e+02   0.00000e+00 
   @DF-RKS iter   1:  -113.27080327527737   -7.05043e-01   1.21644e-02 DIIS
   @DF-RKS iter   2:  -113.25047010408112    2.03332e-02   1.54685e-02 DIIS
   @DF-RKS iter   3:  -113.30738642377955   -5.69163e-02   1.55510e-03 DIIS
   @DF-RKS iter   4:  -113.30814509689027   -7.58673e-04   1.96712e-04 DIIS
   @DF-RKS iter   5:  -113.30816288773337   -1.77908e-05   3.71735e-05 DIIS
   @DF-RKS iter   6:  -113.30816371599776   -8.28264e-07   6.68384e-06 DIIS
   @DF-RKS iter   7:  -113.30816375775159   -4.17538e-08   6.21507e-07 DIIS
   @DF-RKS iter   8:  -113.30816375820906   -4.57476e-10   1.05747e-07 DIIS
   @DF-RKS iter   9:  -113.30816375821365   -4.59011e-12   1.42200e-08 DIIS
   @DF-RKS iter  10:  -113.30816375821350    1.56319e-13   8.81496e-10 DIIS
  Energy and wave function converged.


  ==> Post-Iterations <==

    Orbital Energies [Eh]
    ---------------------

    Doubly Occupied:                                                      

       1A1   -19.464392     2A1   -10.482597     3A1    -1.301237  
       4A1    -0.697388     1B2    -0.586030     1B1    -0.586030  
       5A1    -0.488407  

    Virtual:                                                              

       2B1     0.043222     2B2     0.043222     6A1     0.055067  
       7A1     0.082176     3B1     0.105148     3B2     0.105148  
       8A1     0.189620     4B2     0.206862     4B1     0.206862  
       9A1     0.295477     1A2     0.386371    10A1     0.386371  
      11A1     0.462160     5B2     0.538341     5B1     0.538341  
      12A1     0.631137     6B2     0.645025     6B1     0.645025  
      13A1     0.802452    14A1     0.927637    15A1     0.951845  
       2A2     0.951845     7B2     1.069350     7B1     1.069350  
      16A1     1.268999     8B2     1.468736     8B1     1.468736  
       3A2     1.495645    17A1     1.495646     9B2     1.798279  
       9B1     1.798279    18A1     1.965626    19A1     2.012548  
      20A1     2.754627    21A1     3.271866     4A2     3.271870  
      10B2     3.388112    10B1     3.388112    22A1     3.727946  

    Final Occupation by Irrep:
             A1    A2    B1    B2 
    DOCC [     5,    0,    1,    1 ]

  @DF-RKS Final Energy:  -113.30816375821350

   => Energetics <=

    Nuclear Repulsion Energy =             22.4505092028990667
    One-Electron Energy =                -198.0092188207107995
    Two-Electron Energy =                  72.2230957678774956
    DFT Exchange-Correlation Energy =     -10.0316718060191352
    Empirical Dispersion Energy =           0.0000000000000000
    VV10 Nonlocal Energy =                  0.0591218977398721
    Total Energy =                       -113.3081637582134960

Computation Completed


Properties will be evaluated at   0.000000,   0.000000,   0.000000 [a0]

Properties computed using the SCF density matrix

  Nuclear Dipole Moment: [e a0]
     X:     0.0000      Y:     0.0000      Z:     0.0023

  Electronic Dipole Moment: [e a0]
     X:     0.0000      Y:     0.0000      Z:     0.0136

  Dipole Moment: [e a0]
     X:     0.0000      Y:     0.0000      Z:     0.0159     Total:     0.0159

  Dipole Moment: [D]
     X:     0.0000      Y:     0.0000      Z:     0.0404     Total:     0.0404


*** tstop() called on bp1-compute00090.data.bp.acrc.priv at Tue Apr 27 17:58:03 2021
Module time:
	user time   =      50.90 seconds =       0.85 minutes
	system time =       2.47 seconds =       0.04 minutes
	total time  =          3 seconds =       0.05 minutes
Total time:
	user time   =      50.90 seconds =       0.85 minutes
	system time =       2.47 seconds =       0.04 minutes
	total time  =          3 seconds =       0.05 minutes

  //>>>>>>>>>>>>>>>>>>>>>>>>>>>>>>>>>>>//
  //    Loading displacement 2 of 3    //
  //<<<<<<<<<<<<<<<<<<<<<<<<<<<<<<<<<<<//

*** tstart() called on bp1-compute00090.data.bp.acrc.priv
*** at Tue Apr 27 17:58:03 2021

   => Loading Basis Set <=

    Name: AUG-CC-PV(D+D)Z
    Role: ORBITAL
    Keyword: BASIS
    atoms 1 entry C          line   198 file /work/zw18965/.conda/envs/p4env/share/psi4/basis/aug-cc-pv_dpd_z.gbs 
    atoms 2 entry O          line   270 file /work/zw18965/.conda/envs/p4env/share/psi4/basis/aug-cc-pv_dpd_z.gbs 


         ---------------------------------------------------------
                                   SCF
               by Justin Turney, Rob Parrish, Andy Simmonett
                          and Daniel G. A. Smith
                              RKS Reference
                       24 Threads, 137329 MiB Core
         ---------------------------------------------------------

  ==> Geometry <==

    Molecular point group: c2v
    Full point group: C_inf_v

    Geometry (in Angstrom), charge = 0, multiplicity = 1:

       Center              X                  Y                   Z               Mass       
    ------------   -----------------  -----------------  -----------------  -----------------
         C            0.000000000000     0.000000000000    -0.647003544760    12.000000000000
         O            0.000000000000     0.000000000000     0.485406938504    15.994914619570

  Running in c2v symmetry.

  Rotational constants: A = ************  B =      1.91736  C =      1.91736 [cm^-1]
  Rotational constants: A = ************  B =  57481.14520  C =  57481.14520 [MHz]
  Nuclear repulsion =   22.430475951585748

  Charge       = 0
  Multiplicity = 1
  Electrons    = 14
  Nalpha       = 7
  Nbeta        = 7

  ==> Algorithm <==

  SCF Algorithm Type is DF.
  DIIS enabled.
  MOM disabled.
  Fractional occupation disabled.
  Guess Type is SAD.
  Energy threshold   = 1.00e-08
  Density threshold  = 1.00e-08
  Integral threshold = 0.00e+00

  ==> Primary Basis <==

  Basis Set: AUG-CC-PV(D+D)Z
    Blend: AUG-CC-PV(D+D)Z
    Number of shells: 18
    Number of basis function: 46
    Number of Cartesian functions: 50
    Spherical Harmonics?: true
    Max angular momentum: 2

  ==> DFT Potential <==

   => Composite Functional: WB97M-V <= 

    wB97M-V Hyb-GGA Exchange-Correlation Functional

    N. Mardirossian and M. Head-Gordon, J. Chem. Phys. 144, 214110 (2016)

    Deriv               =              1
    GGA                 =           TRUE
    Meta                =           TRUE

    Exchange Hybrid     =           TRUE
    MP2 Hybrid          =          FALSE

   => Exchange-Correlation Functionals <=

    1.0000   wB97M-V exchange-correlation functional

   => Exact (HF) Exchange <=

    0.8500            HF,LR [omega = 0.3000]
    0.1500               HF 

   => VV10 Non-Local Parameters <=

    VV10 B              =     6.0000E+00
    VV10 C              =     1.0000E-02

   => Molecular Quadrature <=

    Radial Scheme          =       TREUTLER
    Pruning Scheme         =           FLAT
    Nuclear Scheme         =       TREUTLER

    BS radius alpha        =              1
    Pruning alpha          =              1
    Radial Points          =             75
    Spherical Points       =            302
    Total Points           =          45300
    Total Blocks           =            421
    Max Points             =            256
    Max Functions          =             46

   => Loading Basis Set <=

    Name: (AUG-CC-PV(D+D)Z AUX)
    Role: JKFIT
    Keyword: DF_BASIS_SCF
    atoms 1 entry C          line   154 file /work/zw18965/.conda/envs/p4env/share/psi4/basis/aug-cc-pvdz-jkfit.gbs 
    atoms 2 entry O          line   270 file /work/zw18965/.conda/envs/p4env/share/psi4/basis/aug-cc-pvdz-jkfit.gbs 

  ==> Pre-Iterations <==

   -------------------------------------------------------
    Irrep   Nso     Nmo     Nalpha   Nbeta   Ndocc  Nsocc
   -------------------------------------------------------
     A1        22      22       0       0       0       0
     A2         4       4       0       0       0       0
     B1        10      10       0       0       0       0
     B2        10      10       0       0       0       0
   -------------------------------------------------------
    Total      46      46       7       7       7       0
   -------------------------------------------------------

  ==> Integral Setup <==

  ==> DiskDFJK: Density-Fitted J/K Matrices <==

    J tasked:                  Yes
    K tasked:                  Yes
    wK tasked:                 Yes
    Omega:               3.000E-01
    OpenMP threads:             24
    Integrals threads:          24
    Memory [MiB]:           102847
    Algorithm:                Core
    Integral Cache:           NONE
    Schwarz Cutoff:          1E-12
    Fitting Condition:       1E-10

   => Auxiliary Basis Set <=

  Basis Set: (AUG-CC-PV(D+D)Z AUX)
    Blend: AUG-CC-PVDZ-JKFIT
    Number of shells: 56
    Number of basis function: 172
    Number of Cartesian functions: 202
    Spherical Harmonics?: true
    Max angular momentum: 3

  Cached 100.0% of DFT collocation blocks in 0.146 [GiB].

  Minimum eigenvalue in the overlap matrix is 2.4981217878E-03.
  Using Symmetric Orthogonalization.

  SCF Guess: Superposition of Atomic Densities via on-the-fly atomic UHF.

  ==> Iterations <==

                           Total Energy        Delta E     RMS |[F,P]|

   @DF-RKS iter SAD:  -112.56405758126267   -1.12564e+02   0.00000e+00 
   @DF-RKS iter   1:  -113.27077600070723   -7.06718e-01   1.21687e-02 DIIS
   @DF-RKS iter   2:  -113.25009140787321    2.06846e-02   1.55160e-02 DIIS
   @DF-RKS iter   3:  -113.30739428511006   -5.73029e-02   1.55027e-03 DIIS
   @DF-RKS iter   4:  -113.30814923337972   -7.54948e-04   1.96768e-04 DIIS
   @DF-RKS iter   5:  -113.30816701546097   -1.77821e-05   3.72108e-05 DIIS
   @DF-RKS iter   6:  -113.30816784409390   -8.28633e-07   6.69397e-06 DIIS
   @DF-RKS iter   7:  -113.30816788592315   -4.18293e-08   6.23296e-07 DIIS
   @DF-RKS iter   8:  -113.30816788638310   -4.59949e-10   1.06424e-07 DIIS
   @DF-RKS iter   9:  -113.30816788638769   -4.59011e-12   1.42953e-08 DIIS
   @DF-RKS iter  10:  -113.30816788638789   -1.98952e-13   8.88271e-10 DIIS
  Energy and wave function converged.


  ==> Post-Iterations <==

    Orbital Energies [Eh]
    ---------------------

    Doubly Occupied:                                                      

       1A1   -19.464435     2A1   -10.482946     3A1    -1.300654  
       4A1    -0.697374     1B1    -0.585670     1B2    -0.585670  
       5A1    -0.488499  

    Virtual:                                                              

       2B2     0.043024     2B1     0.043024     6A1     0.055079  
       7A1     0.082148     3B1     0.104972     3B2     0.104972  
       8A1     0.189601     4B2     0.206864     4B1     0.206864  
       9A1     0.295463     1A2     0.386350    10A1     0.386350  
      11A1     0.461931     5B2     0.538165     5B1     0.538165  
      12A1     0.631099     6B1     0.645121     6B2     0.645121  
      13A1     0.801220    14A1     0.927455    15A1     0.951783  
       2A2     0.951784     7B2     1.069195     7B1     1.069195  
      16A1     1.269128     8B2     1.468046     8B1     1.468046  
       3A2     1.495490    17A1     1.495491     9B1     1.797939  
       9B2     1.797939    18A1     1.964736    19A1     2.010560  
      20A1     2.753139    21A1     3.271894     4A2     3.271898  
      10B2     3.388068    10B1     3.388068    22A1     3.726497  

    Final Occupation by Irrep:
             A1    A2    B1    B2 
    DOCC [     5,    0,    1,    1 ]

  @DF-RKS Final Energy:  -113.30816788638789

   => Energetics <=

    Nuclear Repulsion Energy =             22.4304759515857484
    One-Electron Energy =                -197.9713245786887228
    Two-Electron Energy =                  72.2043710375646555
    DFT Exchange-Correlation Energy =     -10.0308120487209269
    Empirical Dispersion Energy =           0.0000000000000000
    VV10 Nonlocal Energy =                  0.0591217518713501
    Total Energy =                       -113.3081678863879063

Computation Completed


Properties will be evaluated at   0.000000,   0.000000,   0.000000 [a0]

Properties computed using the SCF density matrix

  Nuclear Dipole Moment: [e a0]
     X:     0.0000      Y:     0.0000      Z:     0.0023

  Electronic Dipole Moment: [e a0]
     X:     0.0000      Y:     0.0000      Z:     0.0120

  Dipole Moment: [e a0]
     X:     0.0000      Y:     0.0000      Z:     0.0144     Total:     0.0144

  Dipole Moment: [D]
     X:     0.0000      Y:     0.0000      Z:     0.0365     Total:     0.0365


*** tstop() called on bp1-compute00090.data.bp.acrc.priv at Tue Apr 27 17:58:05 2021
Module time:
	user time   =      52.03 seconds =       0.87 minutes
	system time =       2.29 seconds =       0.04 minutes
	total time  =          2 seconds =       0.03 minutes
Total time:
	user time   =     103.10 seconds =       1.72 minutes
	system time =       4.77 seconds =       0.08 minutes
	total time  =          5 seconds =       0.08 minutes

  //>>>>>>>>>>>>>>>>>>>>>>>>>>>>>>>>>>>//
  //    Loading displacement 3 of 3    //
  //<<<<<<<<<<<<<<<<<<<<<<<<<<<<<<<<<<<//

*** tstart() called on bp1-compute00090.data.bp.acrc.priv
*** at Tue Apr 27 17:58:05 2021

   => Loading Basis Set <=

    Name: AUG-CC-PV(D+D)Z
    Role: ORBITAL
    Keyword: BASIS
    atoms 1 entry C          line   198 file /work/zw18965/.conda/envs/p4env/share/psi4/basis/aug-cc-pv_dpd_z.gbs 
    atoms 2 entry O          line   270 file /work/zw18965/.conda/envs/p4env/share/psi4/basis/aug-cc-pv_dpd_z.gbs 


         ---------------------------------------------------------
                                   SCF
               by Justin Turney, Rob Parrish, Andy Simmonett
                          and Daniel G. A. Smith
                              RKS Reference
                       24 Threads, 137329 MiB Core
         ---------------------------------------------------------

  ==> Geometry <==

    Molecular point group: c2v
    Full point group: C_inf_v

    Geometry (in Angstrom), charge = 0, multiplicity = 1:

       Center              X                  Y                   Z               Mass       
    ------------   -----------------  -----------------  -----------------  -----------------
         C            0.000000000000     0.000000000000    -0.645848864080    12.000000000000
         O            0.000000000000     0.000000000000     0.484540652657    15.994914619570

  Running in c2v symmetry.

  Rotational constants: A = ************  B =      1.92423  C =      1.92423 [cm^-1]
  Rotational constants: A = ************  B =  57686.86423  C =  57686.86423 [MHz]
  Nuclear repulsion =   22.470578270654173

  Charge       = 0
  Multiplicity = 1
  Electrons    = 14
  Nalpha       = 7
  Nbeta        = 7

  ==> Algorithm <==

  SCF Algorithm Type is DF.
  DIIS enabled.
  MOM disabled.
  Fractional occupation disabled.
  Guess Type is SAD.
  Energy threshold   = 1.00e-08
  Density threshold  = 1.00e-08
  Integral threshold = 0.00e+00

  ==> Primary Basis <==

  Basis Set: AUG-CC-PV(D+D)Z
    Blend: AUG-CC-PV(D+D)Z
    Number of shells: 18
    Number of basis function: 46
    Number of Cartesian functions: 50
    Spherical Harmonics?: true
    Max angular momentum: 2

  ==> DFT Potential <==

   => Composite Functional: WB97M-V <= 

    wB97M-V Hyb-GGA Exchange-Correlation Functional

    N. Mardirossian and M. Head-Gordon, J. Chem. Phys. 144, 214110 (2016)

    Deriv               =              1
    GGA                 =           TRUE
    Meta                =           TRUE

    Exchange Hybrid     =           TRUE
    MP2 Hybrid          =          FALSE

   => Exchange-Correlation Functionals <=

    1.0000   wB97M-V exchange-correlation functional

   => Exact (HF) Exchange <=

    0.8500            HF,LR [omega = 0.3000]
    0.1500               HF 

   => VV10 Non-Local Parameters <=

    VV10 B              =     6.0000E+00
    VV10 C              =     1.0000E-02

   => Molecular Quadrature <=

    Radial Scheme          =       TREUTLER
    Pruning Scheme         =           FLAT
    Nuclear Scheme         =       TREUTLER

    BS radius alpha        =              1
    Pruning alpha          =              1
    Radial Points          =             75
    Spherical Points       =            302
    Total Points           =          45300
    Total Blocks           =            420
    Max Points             =            256
    Max Functions          =             46

   => Loading Basis Set <=

    Name: (AUG-CC-PV(D+D)Z AUX)
    Role: JKFIT
    Keyword: DF_BASIS_SCF
    atoms 1 entry C          line   154 file /work/zw18965/.conda/envs/p4env/share/psi4/basis/aug-cc-pvdz-jkfit.gbs 
    atoms 2 entry O          line   270 file /work/zw18965/.conda/envs/p4env/share/psi4/basis/aug-cc-pvdz-jkfit.gbs 

  ==> Pre-Iterations <==

   -------------------------------------------------------
    Irrep   Nso     Nmo     Nalpha   Nbeta   Ndocc  Nsocc
   -------------------------------------------------------
     A1        22      22       0       0       0       0
     A2         4       4       0       0       0       0
     B1        10      10       0       0       0       0
     B2        10      10       0       0       0       0
   -------------------------------------------------------
    Total      46      46       7       7       7       0
   -------------------------------------------------------

  ==> Integral Setup <==

  ==> DiskDFJK: Density-Fitted J/K Matrices <==

    J tasked:                  Yes
    K tasked:                  Yes
    wK tasked:                 Yes
    Omega:               3.000E-01
    OpenMP threads:             24
    Integrals threads:          24
    Memory [MiB]:           102847
    Algorithm:                Core
    Integral Cache:           NONE
    Schwarz Cutoff:          1E-12
    Fitting Condition:       1E-10

   => Auxiliary Basis Set <=

  Basis Set: (AUG-CC-PV(D+D)Z AUX)
    Blend: AUG-CC-PVDZ-JKFIT
    Number of shells: 56
    Number of basis function: 172
    Number of Cartesian functions: 202
    Spherical Harmonics?: true
    Max angular momentum: 3

  Cached 100.0% of DFT collocation blocks in 0.146 [GiB].

  Minimum eigenvalue in the overlap matrix is 2.4929265231E-03.
  Using Symmetric Orthogonalization.

  SCF Guess: Superposition of Atomic Densities via on-the-fly atomic UHF.

  ==> Iterations <==

                           Total Energy        Delta E     RMS |[F,P]|

   @DF-RKS iter SAD:  -112.56746323966745   -1.12567e+02   0.00000e+00 
   @DF-RKS iter   1:  -113.27082471027539   -7.03361e-01   1.21603e-02 DIIS
   @DF-RKS iter   2:  -113.25084043272854    1.99843e-02   1.54212e-02 DIIS
   @DF-RKS iter   3:  -113.30737386101703   -5.65334e-02   1.55995e-03 DIIS
   @DF-RKS iter   4:  -113.30813627318628   -7.62412e-04   1.96657e-04 DIIS
   @DF-RKS iter   5:  -113.30815407295400   -1.77998e-05   3.71360e-05 DIIS
   @DF-RKS iter   6:  -113.30815490084260   -8.27889e-07   6.67373e-06 DIIS
   @DF-RKS iter   7:  -113.30815494252128   -4.16787e-08   6.19736e-07 DIIS
   @DF-RKS iter   8:  -113.30815494297599   -4.54705e-10   1.05079e-07 DIIS
   @DF-RKS iter   9:  -113.30815494298061   -4.61853e-12   1.41454e-08 DIIS
   @DF-RKS iter  10:  -113.30815494298074   -1.27898e-13   8.74790e-10 DIIS
  Energy and wave function converged.


  ==> Post-Iterations <==

    Orbital Energies [Eh]
    ---------------------

    Doubly Occupied:                                                      

       1A1   -19.464348     2A1   -10.482247     3A1    -1.301819  
       4A1    -0.697401     1B1    -0.586390     1B2    -0.586390  
       5A1    -0.488315  

    Virtual:                                                              

       2B2     0.043420     2B1     0.043420     6A1     0.055055  
       7A1     0.082204     3B1     0.105326     3B2     0.105326  
       8A1     0.189639     4B2     0.206859     4B1     0.206859  
       9A1     0.295490     1A2     0.386391    10A1     0.386391  
      11A1     0.462387     5B2     0.538517     5B1     0.538517  
      12A1     0.631175     6B1     0.644928     6B2     0.644928  
      13A1     0.803683    14A1     0.927824    15A1     0.951906  
       2A2     0.951907     7B2     1.069505     7B1     1.069505  
      16A1     1.268870     8B2     1.469428     8B1     1.469428  
       3A2     1.495801    17A1     1.495802     9B2     1.798619  
       9B1     1.798619    18A1     1.966490    19A1     2.014571  
      20A1     2.756125    21A1     3.271838     4A2     3.271843  
      10B2     3.388158    10B1     3.388158    22A1     3.729398  

    Final Occupation by Irrep:
             A1    A2    B1    B2 
    DOCC [     5,    0,    1,    1 ]

  @DF-RKS Final Energy:  -113.30815494298074

   => Energetics <=

    Nuclear Repulsion Energy =             22.4705782706541726
    One-Electron Energy =                -198.0471727334447678
    Two-Electron Energy =                  72.2418511790263977
    DFT Exchange-Correlation Energy =     -10.0325337048330159
    Empirical Dispersion Energy =           0.0000000000000000
    VV10 Nonlocal Energy =                  0.0591220456164530
    Total Energy =                       -113.3081549429807495

Computation Completed


Properties will be evaluated at   0.000000,   0.000000,   0.000000 [a0]

Properties computed using the SCF density matrix

  Nuclear Dipole Moment: [e a0]
     X:     0.0000      Y:     0.0000      Z:     0.0023

  Electronic Dipole Moment: [e a0]
     X:     0.0000      Y:     0.0000      Z:     0.0151

  Dipole Moment: [e a0]
     X:     0.0000      Y:     0.0000      Z:     0.0174     Total:     0.0174

  Dipole Moment: [D]
     X:     0.0000      Y:     0.0000      Z:     0.0442     Total:     0.0442


*** tstop() called on bp1-compute00090.data.bp.acrc.priv at Tue Apr 27 17:58:07 2021
Module time:
	user time   =      48.74 seconds =       0.81 minutes
	system time =       1.94 seconds =       0.03 minutes
	total time  =          2 seconds =       0.03 minutes
Total time:
	user time   =     151.99 seconds =       2.53 minutes
	system time =       6.73 seconds =       0.11 minutes
	total time  =          7 seconds =       0.12 minutes

         ----------------------------------------------------------
                                   FINDIF
                     R. A. King and Jonathon Misiewicz
         ---------------------------------------------------------

  Computing gradient from energies.
    Using 3-point formula.
    Energy without displacement: -113.3081637582
    Check energies below for precision!
    Forces are for mass-weighted, symmetry-adapted cartesians (in au).

     Coord      Energy(-1)        Energy(+1)            Force
        0   -113.3081678864   -113.3081549430      0.0012943407


-------------------------------------------------------------
  ## New Matrix (Symmetry 0) ##
  Irrep: 1 Size: 2 x 3

                 1                   2                   3

    1     0.00000000000000     0.00000000000000     0.00338914870975
    2     0.00000000000000     0.00000000000000    -0.00338914870975




			-----------------------------------------
			 OPTKING 2.0: for geometry optimizations 
			  - R.A. King,  Bethel University        
			-----------------------------------------
	At level 1: Red. Int., RFO, no backsteps, dynamic trust

	Internal coordinates to be generated automatically.
	Detected frag 1 with atoms:  1 2
	---Fragment 1 Bond Connectivity---
	 1 : 2
	 2 : 1

	---Fragment 1 Geometry and Gradient---
	 C           0.0000000000        0.0000000000       -1.2215684867
	 O           0.0000000000        0.0000000000        0.9164676517
	             0.0000000000        0.0000000000        0.0033891487
	             0.0000000000        0.0000000000       -0.0033891487

	Previous optimization step data not found.  Starting new optimization.

	---Fragment 1 Intrafragment Coordinates---
	 - Coordinate -           - BOHR/RAD -       - ANG/DEG -
	 R(1,2)           =         2.138036	       1.131400

	Current energy   :      -113.3081637582

	Generating empirical Hessian (Schlegel '84) for each fragment.
	Taking RFO optimization step.
	Going to follow RFO solution 1.
	Using RFO vector 1.
	Norm of target step-size    0.00228
	Projected energy change by RFO approximation:        -0.0000051306

	Back-transformation to cartesian coordinates...
	Successfully converged to displaced geometry.

	--- Internal Coordinate Step in ANG or DEG, aJ/ANG or AJ/DEG ---
	 ---------------------------------------------------------------------------
	   Coordinate                Previous        Force       Change         New 
	   ----------                --------       ------       ------       ------
	    1 R(1,2)          =      1.131400     0.027922     0.001208     1.132608
	 ---------------------------------------------------------------------------
	Successfully symmetrized geometry.

  ==> Convergence Check <==

  Measures of convergence in internal coordinates in au.
  Criteria marked as inactive (o), active & met (*), and active & unmet ( ).
  --------------------------------------------------------------------------------------------- ~
   Step     Total Energy     Delta E     MAX Force     RMS Force      MAX Disp      RMS Disp    ~
  --------------------------------------------------------------------------------------------- ~
    Convergence Criteria    1.00e-06 *    3.00e-04 *             o    1.20e-03 *             o  ~
  --------------------------------------------------------------------------------------------- ~
      1    -113.30816376   -1.13e+02      3.39e-03      3.39e-03 o    2.28e-03      2.28e-03 o  ~
  ---------------------------------------------------------------------------------------------

	Writing optimization data to binary file.
	Structure for next step:
	Cartesian Geometry (in Angstrom)
	    C     0.0000000000   0.0000000000  -0.6470300674
	    O     0.0000000000   0.0000000000   0.4855776592
			--------------------------
			 OPTKING Finished Execution 
			--------------------------

    Structure for next step:
    Molecular point group: c2v
    Full point group: C_inf_v

    Geometry (in Angstrom), charge = 0, multiplicity = 1:

    C            0.000000000000     0.000000000000    -0.647116242421
    O            0.000000000000     0.000000000000     0.485491488623

gradient() will perform gradient computation by finite difference of analytic energies.

         ----------------------------------------------------------
                                   FINDIF
                     R. A. King and Jonathon Misiewicz
         ---------------------------------------------------------

  Using finite-differences of energies to determine gradients.
    Generating geometries for use with 3-point formula.
    Displacement size will be 5.00e-03.
    Number of atoms is 2.
    Number of symmetric SALCs is 1.
    Translations projected? 1. Rotations projected? 1.
    Number of geometries (including reference) is 3.

  //>>>>>>>>>>>>>>>>>>>>>>>>>>>>>>>>>>>//
  //    Loading displacement 1 of 3    //
  //<<<<<<<<<<<<<<<<<<<<<<<<<<<<<<<<<<<//

*** tstart() called on bp1-compute00090.data.bp.acrc.priv
*** at Tue Apr 27 17:58:07 2021

   => Loading Basis Set <=

    Name: AUG-CC-PV(D+D)Z
    Role: ORBITAL
    Keyword: BASIS
    atoms 1 entry C          line   198 file /work/zw18965/.conda/envs/p4env/share/psi4/basis/aug-cc-pv_dpd_z.gbs 
    atoms 2 entry O          line   270 file /work/zw18965/.conda/envs/p4env/share/psi4/basis/aug-cc-pv_dpd_z.gbs 


         ---------------------------------------------------------
                                   SCF
               by Justin Turney, Rob Parrish, Andy Simmonett
                          and Daniel G. A. Smith
                              RKS Reference
                       24 Threads, 137329 MiB Core
         ---------------------------------------------------------

  ==> Geometry <==

    Molecular point group: c2v
    Full point group: C_inf_v

    Geometry (in Angstrom), charge = 0, multiplicity = 1:

       Center              X                  Y                   Z               Mass       
    ------------   -----------------  -----------------  -----------------  -----------------
         C            0.000000000000     0.000000000000    -0.647116242421    12.000000000000
         O            0.000000000000     0.000000000000     0.485491488623    15.994914619570

  Running in c2v symmetry.

  Rotational constants: A = ************  B =      1.91670  C =      1.91670 [cm^-1]
  Rotational constants: A = ************  B =  57461.12584  C =  57461.12584 [MHz]
  Nuclear repulsion =   22.426569602119621

  Charge       = 0
  Multiplicity = 1
  Electrons    = 14
  Nalpha       = 7
  Nbeta        = 7

  ==> Algorithm <==

  SCF Algorithm Type is DF.
  DIIS enabled.
  MOM disabled.
  Fractional occupation disabled.
  Guess Type is READ.
  Energy threshold   = 1.00e-08
  Density threshold  = 1.00e-08
  Integral threshold = 0.00e+00

  ==> Primary Basis <==

  Basis Set: AUG-CC-PV(D+D)Z
    Blend: AUG-CC-PV(D+D)Z
    Number of shells: 18
    Number of basis function: 46
    Number of Cartesian functions: 50
    Spherical Harmonics?: true
    Max angular momentum: 2

  ==> DFT Potential <==

   => Composite Functional: WB97M-V <= 

    wB97M-V Hyb-GGA Exchange-Correlation Functional

    N. Mardirossian and M. Head-Gordon, J. Chem. Phys. 144, 214110 (2016)

    Deriv               =              1
    GGA                 =           TRUE
    Meta                =           TRUE

    Exchange Hybrid     =           TRUE
    MP2 Hybrid          =          FALSE

   => Exchange-Correlation Functionals <=

    1.0000   wB97M-V exchange-correlation functional

   => Exact (HF) Exchange <=

    0.8500            HF,LR [omega = 0.3000]
    0.1500               HF 

   => VV10 Non-Local Parameters <=

    VV10 B              =     6.0000E+00
    VV10 C              =     1.0000E-02

   => Molecular Quadrature <=

    Radial Scheme          =       TREUTLER
    Pruning Scheme         =           FLAT
    Nuclear Scheme         =       TREUTLER

    BS radius alpha        =              1
    Pruning alpha          =              1
    Radial Points          =             75
    Spherical Points       =            302
    Total Points           =          45300
    Total Blocks           =            421
    Max Points             =            256
    Max Functions          =             46

   => Loading Basis Set <=

    Name: (AUG-CC-PV(D+D)Z AUX)
    Role: JKFIT
    Keyword: DF_BASIS_SCF
    atoms 1 entry C          line   154 file /work/zw18965/.conda/envs/p4env/share/psi4/basis/aug-cc-pvdz-jkfit.gbs 
    atoms 2 entry O          line   270 file /work/zw18965/.conda/envs/p4env/share/psi4/basis/aug-cc-pvdz-jkfit.gbs 

   => Loading Basis Set <=

    Name: AUG-CC-PV(D+D)Z
    Role: ORBITAL
    Keyword: BASIS
    atoms 1 entry C          line   198 file /work/zw18965/.conda/envs/p4env/share/psi4/basis/aug-cc-pv_dpd_z.gbs 
    atoms 2 entry O          line   270 file /work/zw18965/.conda/envs/p4env/share/psi4/basis/aug-cc-pv_dpd_z.gbs 

  Reading orbitals from file 180, no projection.

  ==> Pre-Iterations <==

   -------------------------------------------------------
    Irrep   Nso     Nmo     Nalpha   Nbeta   Ndocc  Nsocc
   -------------------------------------------------------
     A1        22      22       0       0       0       0
     A2         4       4       0       0       0       0
     B1        10      10       0       0       0       0
     B2        10      10       0       0       0       0
   -------------------------------------------------------
    Total      46      46       7       7       7       0
   -------------------------------------------------------

  ==> Integral Setup <==

  ==> DiskDFJK: Density-Fitted J/K Matrices <==

    J tasked:                  Yes
    K tasked:                  Yes
    wK tasked:                 Yes
    Omega:               3.000E-01
    OpenMP threads:             24
    Integrals threads:          24
    Memory [MiB]:           102847
    Algorithm:                Core
    Integral Cache:           NONE
    Schwarz Cutoff:          1E-12
    Fitting Condition:       1E-10

   => Auxiliary Basis Set <=

  Basis Set: (AUG-CC-PV(D+D)Z AUX)
    Blend: AUG-CC-PVDZ-JKFIT
    Number of shells: 56
    Number of basis function: 172
    Number of Cartesian functions: 202
    Spherical Harmonics?: true
    Max angular momentum: 3

  Cached 100.0% of DFT collocation blocks in 0.146 [GiB].

  Minimum eigenvalue in the overlap matrix is 2.4986301387E-03.
  Using Symmetric Orthogonalization.

  SCF Guess: Orbitals guess was supplied from a previous computation.

  ==> Iterations <==

                           Total Energy        Delta E     RMS |[F,P]|

   @DF-RKS iter   0:  -113.30629724875982   -1.13306e+02   2.06180e-04 
   @DF-RKS iter   1:  -113.30816754087510   -1.87029e-03   4.58499e-05 DIIS
   @DF-RKS iter   2:  -113.30816751121176    2.96633e-08   5.21192e-05 DIIS
   @DF-RKS iter   3:  -113.30816812824543   -6.17034e-07   8.38173e-06 DIIS
   @DF-RKS iter   4:  -113.30816814734024   -1.90948e-08   1.07653e-06 DIIS
   @DF-RKS iter   5:  -113.30816814772786   -3.87615e-10   1.12844e-07 DIIS
   @DF-RKS iter   6:  -113.30816814773532   -7.46070e-12   1.92934e-08 DIIS
   @DF-RKS iter   7:  -113.30816814773571   -3.97904e-13   2.05026e-09 DIIS
  Energy and wave function converged.


  ==> Post-Iterations <==

    Orbital Energies [Eh]
    ---------------------

    Doubly Occupied:                                                      

       1A1   -19.464444     2A1   -10.483014     3A1    -1.300541  
       4A1    -0.697371     1B2    -0.585600     1B1    -0.585600  
       5A1    -0.488517  

    Virtual:                                                              

       2B1     0.042985     2B2     0.042985     6A1     0.055081  
       7A1     0.082143     3B2     0.104938     3B1     0.104938  
       8A1     0.189597     4B1     0.206865     4B2     0.206865  
       9A1     0.295461     1A2     0.386346    10A1     0.386346  
      11A1     0.461886     5B1     0.538131     5B2     0.538131  
      12A1     0.631091     6B2     0.645140     6B1     0.645140  
      13A1     0.800979    14A1     0.927420    15A1     0.951771  
       2A2     0.951772     7B1     1.069165     7B2     1.069165  
      16A1     1.269154     8B1     1.467911     8B2     1.467911  
       3A2     1.495459    17A1     1.495460     9B2     1.797873  
       9B1     1.797873    18A1     1.964559    19A1     2.010175  
      20A1     2.752850    21A1     3.271899     4A2     3.271904  
      10B2     3.388059    10B1     3.388059    22A1     3.726214  

    Final Occupation by Irrep:
             A1    A2    B1    B2 
    DOCC [     5,    0,    1,    1 ]

  @DF-RKS Final Energy:  -113.30816814773571

   => Energetics <=

    Nuclear Repulsion Energy =             22.4265696021196206
    One-Electron Energy =                -197.9639345079402801
    Two-Electron Energy =                  72.2007195061294311
    DFT Exchange-Correlation Energy =     -10.0306444716495733
    Empirical Dispersion Energy =           0.0000000000000000
    VV10 Nonlocal Energy =                  0.0591217236050832
    Total Energy =                       -113.3081681477357137

Computation Completed


Properties will be evaluated at   0.000000,   0.000000,   0.000000 [a0]

Properties computed using the SCF density matrix

  Nuclear Dipole Moment: [e a0]
     X:     0.0000      Y:     0.0000      Z:     0.0023

  Electronic Dipole Moment: [e a0]
     X:     0.0000      Y:     0.0000      Z:     0.0117

  Dipole Moment: [e a0]
     X:     0.0000      Y:     0.0000      Z:     0.0141     Total:     0.0141

  Dipole Moment: [D]
     X:     0.0000      Y:     0.0000      Z:     0.0358     Total:     0.0358


*** tstop() called on bp1-compute00090.data.bp.acrc.priv at Tue Apr 27 17:58:09 2021
Module time:
	user time   =      33.37 seconds =       0.56 minutes
	system time =       1.44 seconds =       0.02 minutes
	total time  =          2 seconds =       0.03 minutes
Total time:
	user time   =     185.84 seconds =       3.10 minutes
	system time =       8.20 seconds =       0.14 minutes
	total time  =          9 seconds =       0.15 minutes

  //>>>>>>>>>>>>>>>>>>>>>>>>>>>>>>>>>>>//
  //    Loading displacement 2 of 3    //
  //<<<<<<<<<<<<<<<<<<<<<<<<<<<<<<<<<<<//

*** tstart() called on bp1-compute00090.data.bp.acrc.priv
*** at Tue Apr 27 17:58:09 2021

   => Loading Basis Set <=

    Name: AUG-CC-PV(D+D)Z
    Role: ORBITAL
    Keyword: BASIS
    atoms 1 entry C          line   198 file /work/zw18965/.conda/envs/p4env/share/psi4/basis/aug-cc-pv_dpd_z.gbs 
    atoms 2 entry O          line   270 file /work/zw18965/.conda/envs/p4env/share/psi4/basis/aug-cc-pv_dpd_z.gbs 


         ---------------------------------------------------------
                                   SCF
               by Justin Turney, Rob Parrish, Andy Simmonett
                          and Daniel G. A. Smith
                              RKS Reference
                       24 Threads, 137329 MiB Core
         ---------------------------------------------------------

  ==> Geometry <==

    Molecular point group: c2v
    Full point group: C_inf_v

    Geometry (in Angstrom), charge = 0, multiplicity = 1:

       Center              X                  Y                   Z               Mass       
    ------------   -----------------  -----------------  -----------------  -----------------
         C            0.000000000000     0.000000000000    -0.647693582761    12.000000000000
         O            0.000000000000     0.000000000000     0.485924631546    15.994914619570

  Running in c2v symmetry.

  Rotational constants: A = ************  B =      1.91328  C =      1.91328 [cm^-1]
  Rotational constants: A = ************  B =  57358.73224  C =  57358.73224 [MHz]
  Nuclear repulsion =   22.406579033029320

  Charge       = 0
  Multiplicity = 1
  Electrons    = 14
  Nalpha       = 7
  Nbeta        = 7

  ==> Algorithm <==

  SCF Algorithm Type is DF.
  DIIS enabled.
  MOM disabled.
  Fractional occupation disabled.
  Guess Type is READ.
  Energy threshold   = 1.00e-08
  Density threshold  = 1.00e-08
  Integral threshold = 0.00e+00

  ==> Primary Basis <==

  Basis Set: AUG-CC-PV(D+D)Z
    Blend: AUG-CC-PV(D+D)Z
    Number of shells: 18
    Number of basis function: 46
    Number of Cartesian functions: 50
    Spherical Harmonics?: true
    Max angular momentum: 2

  ==> DFT Potential <==

   => Composite Functional: WB97M-V <= 

    wB97M-V Hyb-GGA Exchange-Correlation Functional

    N. Mardirossian and M. Head-Gordon, J. Chem. Phys. 144, 214110 (2016)

    Deriv               =              1
    GGA                 =           TRUE
    Meta                =           TRUE

    Exchange Hybrid     =           TRUE
    MP2 Hybrid          =          FALSE

   => Exchange-Correlation Functionals <=

    1.0000   wB97M-V exchange-correlation functional

   => Exact (HF) Exchange <=

    0.8500            HF,LR [omega = 0.3000]
    0.1500               HF 

   => VV10 Non-Local Parameters <=

    VV10 B              =     6.0000E+00
    VV10 C              =     1.0000E-02

   => Molecular Quadrature <=

    Radial Scheme          =       TREUTLER
    Pruning Scheme         =           FLAT
    Nuclear Scheme         =       TREUTLER

    BS radius alpha        =              1
    Pruning alpha          =              1
    Radial Points          =             75
    Spherical Points       =            302
    Total Points           =          45300
    Total Blocks           =            421
    Max Points             =            256
    Max Functions          =             46

   => Loading Basis Set <=

    Name: (AUG-CC-PV(D+D)Z AUX)
    Role: JKFIT
    Keyword: DF_BASIS_SCF
    atoms 1 entry C          line   154 file /work/zw18965/.conda/envs/p4env/share/psi4/basis/aug-cc-pvdz-jkfit.gbs 
    atoms 2 entry O          line   270 file /work/zw18965/.conda/envs/p4env/share/psi4/basis/aug-cc-pvdz-jkfit.gbs 

   => Loading Basis Set <=

    Name: AUG-CC-PV(D+D)Z
    Role: ORBITAL
    Keyword: BASIS
    atoms 1 entry C          line   198 file /work/zw18965/.conda/envs/p4env/share/psi4/basis/aug-cc-pv_dpd_z.gbs 
    atoms 2 entry O          line   270 file /work/zw18965/.conda/envs/p4env/share/psi4/basis/aug-cc-pv_dpd_z.gbs 

  Reading orbitals from file 180, no projection.

  ==> Pre-Iterations <==

   -------------------------------------------------------
    Irrep   Nso     Nmo     Nalpha   Nbeta   Ndocc  Nsocc
   -------------------------------------------------------
     A1        22      22       0       0       0       0
     A2         4       4       0       0       0       0
     B1        10      10       0       0       0       0
     B2        10      10       0       0       0       0
   -------------------------------------------------------
    Total      46      46       7       7       7       0
   -------------------------------------------------------

  ==> Integral Setup <==

  ==> DiskDFJK: Density-Fitted J/K Matrices <==

    J tasked:                  Yes
    K tasked:                  Yes
    wK tasked:                 Yes
    Omega:               3.000E-01
    OpenMP threads:             24
    Integrals threads:          24
    Memory [MiB]:           102847
    Algorithm:                Core
    Integral Cache:           NONE
    Schwarz Cutoff:          1E-12
    Fitting Condition:       1E-10

   => Auxiliary Basis Set <=

  Basis Set: (AUG-CC-PV(D+D)Z AUX)
    Blend: AUG-CC-PVDZ-JKFIT
    Number of shells: 56
    Number of basis function: 172
    Number of Cartesian functions: 202
    Spherical Harmonics?: true
    Max angular momentum: 3

  Cached 100.0% of DFT collocation blocks in 0.146 [GiB].

  Minimum eigenvalue in the overlap matrix is 2.5012379893E-03.
  Using Symmetric Orthogonalization.

  SCF Guess: Orbitals guess was supplied from a previous computation.

  ==> Iterations <==

                           Total Energy        Delta E     RMS |[F,P]|

   @DF-RKS iter   0:  -113.30660361008337   -1.13307e+02   1.72056e-04 
   @DF-RKS iter   1:  -113.30816628977846   -1.56268e-03   3.83680e-05 DIIS
   @DF-RKS iter   2:  -113.30816626725201    2.25265e-08   4.36901e-05 DIIS
   @DF-RKS iter   3:  -113.30816670105850   -4.33806e-07   7.01805e-06 DIIS
   @DF-RKS iter   4:  -113.30816671445174   -1.33932e-08   9.01990e-07 DIIS
   @DF-RKS iter   5:  -113.30816671472388   -2.72138e-10   9.45618e-08 DIIS
   @DF-RKS iter   6:  -113.30816671472911   -5.22959e-12   1.61746e-08 DIIS
   @DF-RKS iter   7:  -113.30816671472925   -1.42109e-13   1.72018e-09 DIIS
  Energy and wave function converged.


  ==> Post-Iterations <==

    Orbital Energies [Eh]
    ---------------------

    Doubly Occupied:                                                      

       1A1   -19.464487     2A1   -10.483364     3A1    -1.299959  
       4A1    -0.697358     1B1    -0.585240     1B2    -0.585240  
       5A1    -0.488608  

    Virtual:                                                              

       2B1     0.042785     2B2     0.042785     6A1     0.055093  
       7A1     0.082115     3B1     0.104764     3B2     0.104764  
       8A1     0.189578     4B1     0.206867     4B2     0.206867  
       9A1     0.295447     1A2     0.386326    10A1     0.386326  
      11A1     0.461656     5B1     0.537955     5B2     0.537955  
      12A1     0.631053     6B1     0.645236     6B2     0.645236  
      13A1     0.799745    14A1     0.927243    15A1     0.951710  
       2A2     0.951710     7B1     1.069011     7B2     1.069011  
      16A1     1.269284     8B1     1.467221     8B2     1.467221  
       3A2     1.495304    17A1     1.495305     9B1     1.797533  
       9B2     1.797533    18A1     1.963637    19A1     2.008228  
      20A1     2.751374    21A1     3.271928     4A2     3.271932  
      10B1     3.388016    10B2     3.388016    22A1     3.724769  

    Final Occupation by Irrep:
             A1    A2    B1    B2 
    DOCC [     5,    0,    1,    1 ]

  @DF-RKS Final Energy:  -113.30816671472925

   => Energetics <=

    Nuclear Repulsion Energy =             22.4065790330293204
    One-Electron Energy =                -197.9261114304778459
    Two-Electron Energy =                  72.1820313693778957
    DFT Exchange-Correlation Energy =     -10.0297872667927326
    Empirical Dispersion Energy =           0.0000000000000000
    VV10 Nonlocal Energy =                  0.0591215801341277
    Total Energy =                       -113.3081667147292393

Computation Completed


Properties will be evaluated at   0.000000,   0.000000,   0.000000 [a0]

Properties computed using the SCF density matrix

  Nuclear Dipole Moment: [e a0]
     X:     0.0000      Y:     0.0000      Z:     0.0023

  Electronic Dipole Moment: [e a0]
     X:     0.0000      Y:     0.0000      Z:     0.0102

  Dipole Moment: [e a0]
     X:     0.0000      Y:     0.0000      Z:     0.0126     Total:     0.0126

  Dipole Moment: [D]
     X:     0.0000      Y:     0.0000      Z:     0.0320     Total:     0.0320


*** tstop() called on bp1-compute00090.data.bp.acrc.priv at Tue Apr 27 17:58:10 2021
Module time:
	user time   =      35.42 seconds =       0.59 minutes
	system time =       1.72 seconds =       0.03 minutes
	total time  =          1 seconds =       0.02 minutes
Total time:
	user time   =     221.39 seconds =       3.69 minutes
	system time =       9.93 seconds =       0.17 minutes
	total time  =         10 seconds =       0.17 minutes

  //>>>>>>>>>>>>>>>>>>>>>>>>>>>>>>>>>>>//
  //    Loading displacement 3 of 3    //
  //<<<<<<<<<<<<<<<<<<<<<<<<<<<<<<<<<<<//

*** tstart() called on bp1-compute00090.data.bp.acrc.priv
*** at Tue Apr 27 17:58:10 2021

   => Loading Basis Set <=

    Name: AUG-CC-PV(D+D)Z
    Role: ORBITAL
    Keyword: BASIS
    atoms 1 entry C          line   198 file /work/zw18965/.conda/envs/p4env/share/psi4/basis/aug-cc-pv_dpd_z.gbs 
    atoms 2 entry O          line   270 file /work/zw18965/.conda/envs/p4env/share/psi4/basis/aug-cc-pv_dpd_z.gbs 


         ---------------------------------------------------------
                                   SCF
               by Justin Turney, Rob Parrish, Andy Simmonett
                          and Daniel G. A. Smith
                              RKS Reference
                       24 Threads, 137329 MiB Core
         ---------------------------------------------------------

  ==> Geometry <==

    Molecular point group: c2v
    Full point group: C_inf_v

    Geometry (in Angstrom), charge = 0, multiplicity = 1:

       Center              X                  Y                   Z               Mass       
    ------------   -----------------  -----------------  -----------------  -----------------
         C            0.000000000000     0.000000000000    -0.646538902081    12.000000000000
         O            0.000000000000     0.000000000000     0.485058345700    15.994914619570

  Running in c2v symmetry.

  Rotational constants: A = ************  B =      1.92012  C =      1.92012 [cm^-1]
  Rotational constants: A = ************  B =  57563.79387  C =  57563.79387 [MHz]
  Nuclear repulsion =   22.446595873197587

  Charge       = 0
  Multiplicity = 1
  Electrons    = 14
  Nalpha       = 7
  Nbeta        = 7

  ==> Algorithm <==

  SCF Algorithm Type is DF.
  DIIS enabled.
  MOM disabled.
  Fractional occupation disabled.
  Guess Type is READ.
  Energy threshold   = 1.00e-08
  Density threshold  = 1.00e-08
  Integral threshold = 0.00e+00

  ==> Primary Basis <==

  Basis Set: AUG-CC-PV(D+D)Z
    Blend: AUG-CC-PV(D+D)Z
    Number of shells: 18
    Number of basis function: 46
    Number of Cartesian functions: 50
    Spherical Harmonics?: true
    Max angular momentum: 2

  ==> DFT Potential <==

   => Composite Functional: WB97M-V <= 

    wB97M-V Hyb-GGA Exchange-Correlation Functional

    N. Mardirossian and M. Head-Gordon, J. Chem. Phys. 144, 214110 (2016)

    Deriv               =              1
    GGA                 =           TRUE
    Meta                =           TRUE

    Exchange Hybrid     =           TRUE
    MP2 Hybrid          =          FALSE

   => Exchange-Correlation Functionals <=

    1.0000   wB97M-V exchange-correlation functional

   => Exact (HF) Exchange <=

    0.8500            HF,LR [omega = 0.3000]
    0.1500               HF 

   => VV10 Non-Local Parameters <=

    VV10 B              =     6.0000E+00
    VV10 C              =     1.0000E-02

   => Molecular Quadrature <=

    Radial Scheme          =       TREUTLER
    Pruning Scheme         =           FLAT
    Nuclear Scheme         =       TREUTLER

    BS radius alpha        =              1
    Pruning alpha          =              1
    Radial Points          =             75
    Spherical Points       =            302
    Total Points           =          45300
    Total Blocks           =            421
    Max Points             =            256
    Max Functions          =             46

   => Loading Basis Set <=

    Name: (AUG-CC-PV(D+D)Z AUX)
    Role: JKFIT
    Keyword: DF_BASIS_SCF
    atoms 1 entry C          line   154 file /work/zw18965/.conda/envs/p4env/share/psi4/basis/aug-cc-pvdz-jkfit.gbs 
    atoms 2 entry O          line   270 file /work/zw18965/.conda/envs/p4env/share/psi4/basis/aug-cc-pvdz-jkfit.gbs 

   => Loading Basis Set <=

    Name: AUG-CC-PV(D+D)Z
    Role: ORBITAL
    Keyword: BASIS
    atoms 1 entry C          line   198 file /work/zw18965/.conda/envs/p4env/share/psi4/basis/aug-cc-pv_dpd_z.gbs 
    atoms 2 entry O          line   270 file /work/zw18965/.conda/envs/p4env/share/psi4/basis/aug-cc-pv_dpd_z.gbs 

  Reading orbitals from file 180, no projection.

  ==> Pre-Iterations <==

   -------------------------------------------------------
    Irrep   Nso     Nmo     Nalpha   Nbeta   Ndocc  Nsocc
   -------------------------------------------------------
     A1        22      22       0       0       0       0
     A2         4       4       0       0       0       0
     B1        10      10       0       0       0       0
     B2        10      10       0       0       0       0
   -------------------------------------------------------
    Total      46      46       7       7       7       0
   -------------------------------------------------------

  ==> Integral Setup <==

  ==> DiskDFJK: Density-Fitted J/K Matrices <==

    J tasked:                  Yes
    K tasked:                  Yes
    wK tasked:                 Yes
    Omega:               3.000E-01
    OpenMP threads:             24
    Integrals threads:          24
    Memory [MiB]:           102847
    Algorithm:                Core
    Integral Cache:           NONE
    Schwarz Cutoff:          1E-12
    Fitting Condition:       1E-10

   => Auxiliary Basis Set <=

  Basis Set: (AUG-CC-PV(D+D)Z AUX)
    Blend: AUG-CC-PVDZ-JKFIT
    Number of shells: 56
    Number of basis function: 172
    Number of Cartesian functions: 202
    Spherical Harmonics?: true
    Max angular momentum: 3

  Cached 100.0% of DFT collocation blocks in 0.146 [GiB].

  Minimum eigenvalue in the overlap matrix is 2.4960283271E-03.
  Using Symmetric Orthogonalization.

  SCF Guess: Orbitals guess was supplied from a previous computation.

  ==> Iterations <==

                           Total Energy        Delta E     RMS |[F,P]|

   @DF-RKS iter   0:  -113.30972995738280   -1.13310e+02   1.72481e-04 
   @DF-RKS iter   1:  -113.30816450852865    1.56545e-03   3.82664e-05 DIIS
   @DF-RKS iter   2:  -113.30816448994823    1.85804e-08   4.34150e-05 DIIS
   @DF-RKS iter   3:  -113.30816491784002   -4.27892e-07   6.98988e-06 DIIS
   @DF-RKS iter   4:  -113.30816493111141   -1.32714e-08   9.01161e-07 DIIS
   @DF-RKS iter   5:  -113.30816493138268   -2.71271e-10   9.42886e-08 DIIS
   @DF-RKS iter   6:  -113.30816493138794   -5.25802e-12   1.60859e-08 DIIS
   @DF-RKS iter   7:  -113.30816493138806   -1.27898e-13   1.70667e-09 DIIS
  Energy and wave function converged.


  ==> Post-Iterations <==

    Orbital Energies [Eh]
    ---------------------

    Doubly Occupied:                                                      

       1A1   -19.464400     2A1   -10.482665     3A1    -1.301123  
       4A1    -0.697385     1B2    -0.585959     1B1    -0.585959  
       5A1    -0.488425  

    Virtual:                                                              

       2B1     0.043184     2B2     0.043184     6A1     0.055069  
       7A1     0.082171     3B1     0.105114     3B2     0.105114  
       8A1     0.189616     4B2     0.206862     4B1     0.206862  
       9A1     0.295474     1A2     0.386367    10A1     0.386367  
      11A1     0.462115     5B1     0.538307     5B2     0.538307  
      12A1     0.631129     6B1     0.645044     6B2     0.645044  
      13A1     0.802212    14A1     0.927601    15A1     0.951833  
       2A2     0.951833     7B2     1.069319     7B1     1.069319  
      16A1     1.269024     8B1     1.468601     8B2     1.468601  
       3A2     1.495615    17A1     1.495616     9B1     1.798213  
       9B2     1.798213    18A1     1.965454    19A1     2.012157  
      20A1     2.754336    21A1     3.271871     4A2     3.271876  
      10B1     3.388103    10B2     3.388103    22A1     3.727663  

    Final Occupation by Irrep:
             A1    A2    B1    B2 
    DOCC [     5,    0,    1,    1 ]

  @DF-RKS Final Energy:  -113.30816493138806

   => Energetics <=

    Nuclear Repulsion Energy =             22.4465958731975874
    One-Electron Energy =                -198.0018171979673980
    Two-Electron Energy =                  72.2194383437199292
    DFT Exchange-Correlation Energy =     -10.0315038194755353
    Empirical Dispersion Energy =           0.0000000000000000
    VV10 Nonlocal Energy =                  0.0591218691373553
    Total Energy =                       -113.3081649313880490

Computation Completed


Properties will be evaluated at   0.000000,   0.000000,   0.000000 [a0]

Properties computed using the SCF density matrix

  Nuclear Dipole Moment: [e a0]
     X:     0.0000      Y:     0.0000      Z:     0.0023

  Electronic Dipole Moment: [e a0]
     X:     0.0000      Y:     0.0000      Z:     0.0133

  Dipole Moment: [e a0]
     X:     0.0000      Y:     0.0000      Z:     0.0156     Total:     0.0156

  Dipole Moment: [D]
     X:     0.0000      Y:     0.0000      Z:     0.0396     Total:     0.0396


*** tstop() called on bp1-compute00090.data.bp.acrc.priv at Tue Apr 27 17:58:12 2021
Module time:
	user time   =      34.80 seconds =       0.58 minutes
	system time =       1.25 seconds =       0.02 minutes
	total time  =          2 seconds =       0.03 minutes
Total time:
	user time   =     256.33 seconds =       4.27 minutes
	system time =      11.19 seconds =       0.19 minutes
	total time  =         12 seconds =       0.20 minutes

         ----------------------------------------------------------
                                   FINDIF
                     R. A. King and Jonathon Misiewicz
         ---------------------------------------------------------

  Computing gradient from energies.
    Using 3-point formula.
    Energy without displacement: -113.3081681477
    Check energies below for precision!
    Forces are for mass-weighted, symmetry-adapted cartesians (in au).

     Coord      Energy(-1)        Energy(+1)            Force
        0   -113.3081667147   -113.3081649314      0.0001783341


-------------------------------------------------------------
  ## New Matrix (Symmetry 0) ##
  Irrep: 1 Size: 2 x 3

                 1                   2                   3

    1     0.00000000000000     0.00000000000000     0.00046695653014
    2     0.00000000000000     0.00000000000000    -0.00046695653014




			-----------------------------------------
			 OPTKING 2.0: for geometry optimizations 
			  - R.A. King,  Bethel University        
			-----------------------------------------
	At level 1: Red. Int., RFO, no backsteps, dynamic trust

	Previous internal coordinate definitions found.
	---Fragment 1 Geometry and Gradient---
	 C           0.0000000000        0.0000000000       -1.2228724695
	 O           0.0000000000        0.0000000000        0.9174459497
	             0.0000000000        0.0000000000        0.0004669565
	             0.0000000000        0.0000000000       -0.0004669565

	---Fragment 1 Intrafragment Coordinates---
	 - Coordinate -           - BOHR/RAD -       - ANG/DEG -
	 R(1,2)           =         2.140318	       1.132608

	Current energy   :      -113.3081681477

	Energy change for the previous step:
		Projected    :        -0.0000051306
		Actual       :        -0.0000043895
	Energy ratio indicates good step: Trust radius increased to 1.000e+00.


	Performing BFGS update.
	Previous computed or guess Hessian on step 1.
	Steps to be used in Hessian update: 1
	Taking RFO optimization step.
	Going to follow RFO solution 1.
	Using RFO vector 1.
	Norm of target step-size    0.00036
	Projected energy change by RFO approximation:        -0.0000001038

	Back-transformation to cartesian coordinates...
	Successfully converged to displaced geometry.

	--- Internal Coordinate Step in ANG or DEG, aJ/ANG or AJ/DEG ---
	 ---------------------------------------------------------------------------
	   Coordinate                Previous        Force       Change         New 
	   ----------                --------       ------       ------       ------
	    1 R(1,2)          =      1.132608     0.003847     0.000193     1.132801
	 ---------------------------------------------------------------------------
	Successfully symmetrized geometry.

  ==> Convergence Check <==

  Measures of convergence in internal coordinates in au.
  Criteria marked as inactive (o), active & met (*), and active & unmet ( ).
  ---------------------------------------------------------------------------------------------
   Step     Total Energy     Delta E     MAX Force     RMS Force      MAX Disp      RMS Disp   
  ---------------------------------------------------------------------------------------------
    Convergence Criteria    1.00e-06 *    3.00e-04 *             o    1.20e-03 *             o
  ---------------------------------------------------------------------------------------------
      2    -113.30816815   -4.39e-06      4.67e-04      4.67e-04 o    3.65e-04 *    3.65e-04 o  ~
  ---------------------------------------------------------------------------------------------

	Writing optimization data to binary file.
	Structure for next step:
	Cartesian Geometry (in Angstrom)
	    C     0.0000000000   0.0000000000  -0.6472127356
	    O     0.0000000000   0.0000000000   0.4855879824
			--------------------------
			 OPTKING Finished Execution 
			--------------------------

    Structure for next step:
    Molecular point group: c2v
    Full point group: C_inf_v

    Geometry (in Angstrom), charge = 0, multiplicity = 1:

    C            0.000000000000     0.000000000000    -0.647226508170
    O            0.000000000000     0.000000000000     0.485574214228

gradient() will perform gradient computation by finite difference of analytic energies.

         ----------------------------------------------------------
                                   FINDIF
                     R. A. King and Jonathon Misiewicz
         ---------------------------------------------------------

  Using finite-differences of energies to determine gradients.
    Generating geometries for use with 3-point formula.
    Displacement size will be 5.00e-03.
    Number of atoms is 2.
    Number of symmetric SALCs is 1.
    Translations projected? 1. Rotations projected? 1.
    Number of geometries (including reference) is 3.

  //>>>>>>>>>>>>>>>>>>>>>>>>>>>>>>>>>>>//
  //    Loading displacement 1 of 3    //
  //<<<<<<<<<<<<<<<<<<<<<<<<<<<<<<<<<<<//

*** tstart() called on bp1-compute00090.data.bp.acrc.priv
*** at Tue Apr 27 17:58:12 2021

   => Loading Basis Set <=

    Name: AUG-CC-PV(D+D)Z
    Role: ORBITAL
    Keyword: BASIS
    atoms 1 entry C          line   198 file /work/zw18965/.conda/envs/p4env/share/psi4/basis/aug-cc-pv_dpd_z.gbs 
    atoms 2 entry O          line   270 file /work/zw18965/.conda/envs/p4env/share/psi4/basis/aug-cc-pv_dpd_z.gbs 


         ---------------------------------------------------------
                                   SCF
               by Justin Turney, Rob Parrish, Andy Simmonett
                          and Daniel G. A. Smith
                              RKS Reference
                       24 Threads, 137329 MiB Core
         ---------------------------------------------------------

  ==> Geometry <==

    Molecular point group: c2v
    Full point group: C_inf_v

    Geometry (in Angstrom), charge = 0, multiplicity = 1:

       Center              X                  Y                   Z               Mass       
    ------------   -----------------  -----------------  -----------------  -----------------
         C            0.000000000000     0.000000000000    -0.647226508170    12.000000000000
         O            0.000000000000     0.000000000000     0.485574214228    15.994914619570

  Running in c2v symmetry.

  Rotational constants: A = ************  B =      1.91604  C =      1.91604 [cm^-1]
  Rotational constants: A = ************  B =  57441.54860  C =  57441.54860 [MHz]
  Nuclear repulsion =   22.422748864785301

  Charge       = 0
  Multiplicity = 1
  Electrons    = 14
  Nalpha       = 7
  Nbeta        = 7

  ==> Algorithm <==

  SCF Algorithm Type is DF.
  DIIS enabled.
  MOM disabled.
  Fractional occupation disabled.
  Guess Type is READ.
  Energy threshold   = 1.00e-08
  Density threshold  = 1.00e-08
  Integral threshold = 0.00e+00

  ==> Primary Basis <==

  Basis Set: AUG-CC-PV(D+D)Z
    Blend: AUG-CC-PV(D+D)Z
    Number of shells: 18
    Number of basis function: 46
    Number of Cartesian functions: 50
    Spherical Harmonics?: true
    Max angular momentum: 2

  ==> DFT Potential <==

   => Composite Functional: WB97M-V <= 

    wB97M-V Hyb-GGA Exchange-Correlation Functional

    N. Mardirossian and M. Head-Gordon, J. Chem. Phys. 144, 214110 (2016)

    Deriv               =              1
    GGA                 =           TRUE
    Meta                =           TRUE

    Exchange Hybrid     =           TRUE
    MP2 Hybrid          =          FALSE

   => Exchange-Correlation Functionals <=

    1.0000   wB97M-V exchange-correlation functional

   => Exact (HF) Exchange <=

    0.8500            HF,LR [omega = 0.3000]
    0.1500               HF 

   => VV10 Non-Local Parameters <=

    VV10 B              =     6.0000E+00
    VV10 C              =     1.0000E-02

   => Molecular Quadrature <=

    Radial Scheme          =       TREUTLER
    Pruning Scheme         =           FLAT
    Nuclear Scheme         =       TREUTLER

    BS radius alpha        =              1
    Pruning alpha          =              1
    Radial Points          =             75
    Spherical Points       =            302
    Total Points           =          45300
    Total Blocks           =            421
    Max Points             =            256
    Max Functions          =             46

   => Loading Basis Set <=

    Name: (AUG-CC-PV(D+D)Z AUX)
    Role: JKFIT
    Keyword: DF_BASIS_SCF
    atoms 1 entry C          line   154 file /work/zw18965/.conda/envs/p4env/share/psi4/basis/aug-cc-pvdz-jkfit.gbs 
    atoms 2 entry O          line   270 file /work/zw18965/.conda/envs/p4env/share/psi4/basis/aug-cc-pvdz-jkfit.gbs 

   => Loading Basis Set <=

    Name: AUG-CC-PV(D+D)Z
    Role: ORBITAL
    Keyword: BASIS
    atoms 1 entry C          line   198 file /work/zw18965/.conda/envs/p4env/share/psi4/basis/aug-cc-pv_dpd_z.gbs 
    atoms 2 entry O          line   270 file /work/zw18965/.conda/envs/p4env/share/psi4/basis/aug-cc-pv_dpd_z.gbs 

  Reading orbitals from file 180, no projection.

  ==> Pre-Iterations <==

   -------------------------------------------------------
    Irrep   Nso     Nmo     Nalpha   Nbeta   Ndocc  Nsocc
   -------------------------------------------------------
     A1        22      22       0       0       0       0
     A2         4       4       0       0       0       0
     B1        10      10       0       0       0       0
     B2        10      10       0       0       0       0
   -------------------------------------------------------
    Total      46      46       7       7       7       0
   -------------------------------------------------------

  ==> Integral Setup <==

  ==> DiskDFJK: Density-Fitted J/K Matrices <==

    J tasked:                  Yes
    K tasked:                  Yes
    wK tasked:                 Yes
    Omega:               3.000E-01
    OpenMP threads:             24
    Integrals threads:          24
    Memory [MiB]:           102847
    Algorithm:                Core
    Integral Cache:           NONE
    Schwarz Cutoff:          1E-12
    Fitting Condition:       1E-10

   => Auxiliary Basis Set <=

  Basis Set: (AUG-CC-PV(D+D)Z AUX)
    Blend: AUG-CC-PVDZ-JKFIT
    Number of shells: 56
    Number of basis function: 172
    Number of Cartesian functions: 202
    Spherical Harmonics?: true
    Max angular momentum: 3

  Cached 100.0% of DFT collocation blocks in 0.146 [GiB].

  Minimum eigenvalue in the overlap matrix is 2.4991277425E-03.
  Using Symmetric Orthogonalization.

  SCF Guess: Orbitals guess was supplied from a previous computation.

  ==> Iterations <==

                           Total Energy        Delta E     RMS |[F,P]|

   @DF-RKS iter   0:  -113.30786954845675   -1.13308e+02   3.28936e-05 
   @DF-RKS iter   1:  -113.30816821705628   -2.98669e-04   7.31991e-06 DIIS
   @DF-RKS iter   2:  -113.30816821629364    7.62640e-10   8.32281e-06 DIIS
   @DF-RKS iter   3:  -113.30816823202883   -1.57352e-08   1.33822e-06 DIIS
   @DF-RKS iter   4:  -113.30816823251570   -4.86864e-10   1.72202e-07 DIIS
   @DF-RKS iter   5:  -113.30816823252549   -9.79128e-12   1.80408e-08 DIIS
   @DF-RKS iter   6:  -113.30816823252567   -1.84741e-13   3.08266e-09 DIIS
  Energy and wave function converged.


  ==> Post-Iterations <==

    Orbital Energies [Eh]
    ---------------------

    Doubly Occupied:                                                      

       1A1   -19.464452     2A1   -10.483081     3A1    -1.300429  
       4A1    -0.697369     1B2    -0.585531     1B1    -0.585531  
       5A1    -0.488535  

    Virtual:                                                              

       2B2     0.042947     2B1     0.042947     6A1     0.055084  
       7A1     0.082137     3B2     0.104905     3B1     0.104905  
       8A1     0.189593     4B2     0.206865     4B1     0.206865  
       9A1     0.295458     1A2     0.386342    10A1     0.386343  
      11A1     0.461842     5B2     0.538097     5B1     0.538097  
      12A1     0.631084     6B1     0.645158     6B2     0.645158  
      13A1     0.800743    14A1     0.927386    15A1     0.951760  
       2A2     0.951760     7B2     1.069135     7B1     1.069135  
      16A1     1.269178     8B1     1.467779     8B2     1.467779  
       3A2     1.495430    17A1     1.495431     9B1     1.797808  
       9B2     1.797808    18A1     1.964385    19A1     2.009801  
      20A1     2.752567    21A1     3.271905     4A2     3.271909  
      10B2     3.388051    10B1     3.388051    22A1     3.725938  

    Final Occupation by Irrep:
             A1    A2    B1    B2 
    DOCC [     5,    0,    1,    1 ]

  @DF-RKS Final Energy:  -113.30816823252567

   => Energetics <=

    Nuclear Repulsion Energy =             22.4227488647853015
    One-Electron Energy =                -197.9567063570958112
    Two-Electron Energy =                  72.1971481783882467
    DFT Exchange-Correlation Energy =     -10.0304806147092407
    Empirical Dispersion Energy =           0.0000000000000000
    VV10 Nonlocal Energy =                  0.0591216961058348
    Total Energy =                       -113.3081682325256878

Computation Completed


Properties will be evaluated at   0.000000,   0.000000,   0.000000 [a0]

Properties computed using the SCF density matrix

  Nuclear Dipole Moment: [e a0]
     X:     0.0000      Y:     0.0000      Z:     0.0023

  Electronic Dipole Moment: [e a0]
     X:     0.0000      Y:     0.0000      Z:     0.0115

  Dipole Moment: [e a0]
     X:     0.0000      Y:     0.0000      Z:     0.0138     Total:     0.0138

  Dipole Moment: [D]
     X:     0.0000      Y:     0.0000      Z:     0.0351     Total:     0.0351


*** tstop() called on bp1-compute00090.data.bp.acrc.priv at Tue Apr 27 17:58:13 2021
Module time:
	user time   =      32.04 seconds =       0.53 minutes
	system time =       1.25 seconds =       0.02 minutes
	total time  =          1 seconds =       0.02 minutes
Total time:
	user time   =     288.67 seconds =       4.81 minutes
	system time =      12.46 seconds =       0.21 minutes
	total time  =         13 seconds =       0.22 minutes

  //>>>>>>>>>>>>>>>>>>>>>>>>>>>>>>>>>>>//
  //    Loading displacement 2 of 3    //
  //<<<<<<<<<<<<<<<<<<<<<<<<<<<<<<<<<<<//

*** tstart() called on bp1-compute00090.data.bp.acrc.priv
*** at Tue Apr 27 17:58:13 2021

   => Loading Basis Set <=

    Name: AUG-CC-PV(D+D)Z
    Role: ORBITAL
    Keyword: BASIS
    atoms 1 entry C          line   198 file /work/zw18965/.conda/envs/p4env/share/psi4/basis/aug-cc-pv_dpd_z.gbs 
    atoms 2 entry O          line   270 file /work/zw18965/.conda/envs/p4env/share/psi4/basis/aug-cc-pv_dpd_z.gbs 


         ---------------------------------------------------------
                                   SCF
               by Justin Turney, Rob Parrish, Andy Simmonett
                          and Daniel G. A. Smith
                              RKS Reference
                       24 Threads, 137329 MiB Core
         ---------------------------------------------------------

  ==> Geometry <==

    Molecular point group: c2v
    Full point group: C_inf_v

    Geometry (in Angstrom), charge = 0, multiplicity = 1:

       Center              X                  Y                   Z               Mass       
    ------------   -----------------  -----------------  -----------------  -----------------
         C            0.000000000000     0.000000000000    -0.647803848509    12.000000000000
         O            0.000000000000     0.000000000000     0.486007357151    15.994914619570

  Running in c2v symmetry.

  Rotational constants: A = ************  B =      1.91263  C =      1.91263 [cm^-1]
  Rotational constants: A = ************  B =  57339.20730  C =  57339.20730 [MHz]
  Nuclear repulsion =   22.402765103528679

  Charge       = 0
  Multiplicity = 1
  Electrons    = 14
  Nalpha       = 7
  Nbeta        = 7

  ==> Algorithm <==

  SCF Algorithm Type is DF.
  DIIS enabled.
  MOM disabled.
  Fractional occupation disabled.
  Guess Type is READ.
  Energy threshold   = 1.00e-08
  Density threshold  = 1.00e-08
  Integral threshold = 0.00e+00

  ==> Primary Basis <==

  Basis Set: AUG-CC-PV(D+D)Z
    Blend: AUG-CC-PV(D+D)Z
    Number of shells: 18
    Number of basis function: 46
    Number of Cartesian functions: 50
    Spherical Harmonics?: true
    Max angular momentum: 2

  ==> DFT Potential <==

   => Composite Functional: WB97M-V <= 

    wB97M-V Hyb-GGA Exchange-Correlation Functional

    N. Mardirossian and M. Head-Gordon, J. Chem. Phys. 144, 214110 (2016)

    Deriv               =              1
    GGA                 =           TRUE
    Meta                =           TRUE

    Exchange Hybrid     =           TRUE
    MP2 Hybrid          =          FALSE

   => Exchange-Correlation Functionals <=

    1.0000   wB97M-V exchange-correlation functional

   => Exact (HF) Exchange <=

    0.8500            HF,LR [omega = 0.3000]
    0.1500               HF 

   => VV10 Non-Local Parameters <=

    VV10 B              =     6.0000E+00
    VV10 C              =     1.0000E-02

[...]
   @DF-RKS iter   4:  -113.30814727345255   -7.49809e-04   1.96848e-04 DIIS
   @DF-RKS iter   5:  -113.30816504366604   -1.77702e-05   3.72620e-05 DIIS
   @DF-RKS iter   6:  -113.30816587279790   -8.29132e-07   6.70805e-06 DIIS
   @DF-RKS iter   7:  -113.30816591473226   -4.19344e-08   6.25808e-07 DIIS
   @DF-RKS iter   8:  -113.30816591519559   -4.63331e-10   1.07376e-07 DIIS
   @DF-RKS iter   9:  -113.30816591520041   -4.81748e-12   1.44006e-08 DIIS
   @DF-RKS iter  10:  -113.30816591520052   -1.13687e-13   8.97778e-10 DIIS
   @DF-RKS iter  11:  -113.30816591520045    7.10543e-14   1.02676e-10 DIIS
   @DF-RKS iter  12:  -113.30816591520045    0.00000e+00   5.45462e-12 DIIS
  Energy and wave function converged.


  ==> Post-Iterations <==

    Orbital Energies [Eh]
    ---------------------

    Doubly Occupied:                                                      

       1A1   -19.464495     2A1   -10.483430     3A1    -1.299848  
       4A1    -0.697356     1B1    -0.585172     1B2    -0.585172  
       5A1    -0.488626  

    Virtual:                                                              

       2B2     0.042747     2B1     0.042747     6A1     0.055096  
       7A1     0.082109     3B1     0.104731     3B2     0.104731  
       8A1     0.189574     4B1     0.206868     4B2     0.206868  
       9A1     0.295444     1A2     0.386322    10A1     0.386322  
      11A1     0.461611     5B2     0.537922     5B1     0.537922  
      12A1     0.631046     6B2     0.645255     6B1     0.645255  
      13A1     0.799509    14A1     0.927210    15A1     0.951698  
       2A2     0.951699     7B2     1.068982     7B1     1.068982  
      16A1     1.269309     8B2     1.467089     8B1     1.467089  
       3A2     1.495274    17A1     1.495275     9B2     1.797469  
       9B1     1.797469    18A1     1.963457    19A1     2.007861  
      20A1     2.751094    21A1     3.271933     4A2     3.271937  
      10B1     3.388008    10B2     3.388008    22A1     3.724493  

    Final Occupation by Irrep:
             A1    A2    B1    B2 
    DOCC [     5,    0,    1,    1 ]

  @DF-RKS Final Energy:  -113.30816591520045

   => Energetics <=

    Nuclear Repulsion Energy =             22.4027651035286794
    One-Electron Energy =                -197.9188944274968094
    Two-Electron Energy =                  72.1784656514035419
    DFT Exchange-Correlation Energy =     -10.0296237956198979
    Empirical Dispersion Energy =           0.0000000000000000
    VV10 Nonlocal Energy =                  0.0591215529840449
    Total Energy =                       -113.3081659152004477

Computation Completed


Properties will be evaluated at   0.000000,   0.000000,   0.000000 [a0]

Properties computed using the SCF density matrix

  Nuclear Dipole Moment: [e a0]
     X:     0.0000      Y:     0.0000      Z:     0.0023

  Electronic Dipole Moment: [e a0]
     X:     0.0000      Y:     0.0000      Z:     0.0099

  Dipole Moment: [e a0]
     X:     0.0000      Y:     0.0000      Z:     0.0123     Total:     0.0123

  Dipole Moment: [D]
     X:     0.0000      Y:     0.0000      Z:     0.0312     Total:     0.0312


*** tstop() called on bp1-compute00090.data.bp.acrc.priv at Tue Apr 27 17:58:27 2021
Module time:
	user time   =      51.86 seconds =       0.86 minutes
	system time =       1.87 seconds =       0.03 minutes
	total time  =          2 seconds =       0.03 minutes
Total time:
	user time   =     610.39 seconds =      10.17 minutes
	system time =      24.75 seconds =       0.41 minutes
	total time  =         27 seconds =       0.45 minutes

  //>>>>>>>>>>>>>>>>>>>>>>>>>>>>>>>>>>>//
  //    Loading displacement 3 of 3    //
  //<<<<<<<<<<<<<<<<<<<<<<<<<<<<<<<<<<<//

*** tstart() called on bp1-compute00090.data.bp.acrc.priv
*** at Tue Apr 27 17:58:27 2021

   => Loading Basis Set <=

    Name: AUG-CC-PV(D+D)Z
    Role: ORBITAL
    Keyword: BASIS
    atoms 1 entry C          line   198 file /work/zw18965/.conda/envs/p4env/share/psi4/basis/aug-cc-pv_dpd_z.gbs 
    atoms 2 entry O          line   270 file /work/zw18965/.conda/envs/p4env/share/psi4/basis/aug-cc-pv_dpd_z.gbs 


         ---------------------------------------------------------
                                   SCF
               by Justin Turney, Rob Parrish, Andy Simmonett
                          and Daniel G. A. Smith
                              RKS Reference
                       24 Threads, 137329 MiB Core
         ---------------------------------------------------------

  ==> Geometry <==

    Molecular point group: c2v
    Full point group: C_inf_v

    Geometry (in Angstrom), charge = 0, multiplicity = 1:

       Center              X                  Y                   Z               Mass       
    ------------   -----------------  -----------------  -----------------  -----------------
         C            0.000000000000     0.000000000000    -0.646649167830    12.000000000000
         O            0.000000000000     0.000000000000     0.485141071304    15.994914619570

  Running in c2v symmetry.

  Rotational constants: A = ************  B =      1.91947  C =      1.91947 [cm^-1]
  Rotational constants: A = ************  B =  57544.16415  C =  57544.16415 [MHz]
  Nuclear repulsion =   22.442768309785418

  Charge       = 0
  Multiplicity = 1
  Electrons    = 14
  Nalpha       = 7
  Nbeta        = 7

  ==> Algorithm <==

  SCF Algorithm Type is DF.
  DIIS enabled.
  MOM disabled.
  Fractional occupation disabled.
  Guess Type is SAD.
  Energy threshold   = 1.00e-10
  Density threshold  = 1.00e-10
  Integral threshold = 0.00e+00

  ==> Primary Basis <==

  Basis Set: AUG-CC-PV(D+D)Z
    Blend: AUG-CC-PV(D+D)Z
    Number of shells: 18
    Number of basis function: 46
    Number of Cartesian functions: 50
    Spherical Harmonics?: true
    Max angular momentum: 2

  ==> DFT Potential <==

   => Composite Functional: WB97M-V <= 

    wB97M-V Hyb-GGA Exchange-Correlation Functional

    N. Mardirossian and M. Head-Gordon, J. Chem. Phys. 144, 214110 (2016)

    Deriv               =              1
    GGA                 =           TRUE
    Meta                =           TRUE

    Exchange Hybrid     =           TRUE
    MP2 Hybrid          =          FALSE

   => Exchange-Correlation Functionals <=

    1.0000   wB97M-V exchange-correlation functional

   => Exact (HF) Exchange <=

    0.8500            HF,LR [omega = 0.3000]
    0.1500               HF 

   => VV10 Non-Local Parameters <=

    VV10 B              =     6.0000E+00
    VV10 C              =     1.0000E-02

   => Molecular Quadrature <=

    Radial Scheme          =       TREUTLER
    Pruning Scheme         =           FLAT
    Nuclear Scheme         =       TREUTLER

    BS radius alpha        =              1
    Pruning alpha          =              1
    Radial Points          =             75
    Spherical Points       =            302
    Total Points           =          45300
    Total Blocks           =            421
    Max Points             =            256
    Max Functions          =             46

   => Loading Basis Set <=

    Name: (AUG-CC-PV(D+D)Z AUX)
    Role: JKFIT
    Keyword: DF_BASIS_SCF
    atoms 1 entry C          line   154 file /work/zw18965/.conda/envs/p4env/share/psi4/basis/aug-cc-pvdz-jkfit.gbs 
    atoms 2 entry O          line   270 file /work/zw18965/.conda/envs/p4env/share/psi4/basis/aug-cc-pvdz-jkfit.gbs 

  ==> Pre-Iterations <==

   -------------------------------------------------------
    Irrep   Nso     Nmo     Nalpha   Nbeta   Ndocc  Nsocc
   -------------------------------------------------------
     A1        22      22       0       0       0       0
     A2         4       4       0       0       0       0
     B1        10      10       0       0       0       0
     B2        10      10       0       0       0       0
   -------------------------------------------------------
    Total      46      46       7       7       7       0
   -------------------------------------------------------

  ==> Integral Setup <==

  ==> DiskDFJK: Density-Fitted J/K Matrices <==

    J tasked:                  Yes
    K tasked:                  Yes
    wK tasked:                 Yes
    Omega:               3.000E-01
    OpenMP threads:             24
    Integrals threads:          24
    Memory [MiB]:           102847
    Algorithm:                Core
    Integral Cache:           NONE
    Schwarz Cutoff:          1E-12
    Fitting Condition:       1E-10

   => Auxiliary Basis Set <=

  Basis Set: (AUG-CC-PV(D+D)Z AUX)
    Blend: AUG-CC-PVDZ-JKFIT
    Number of shells: 56
    Number of basis function: 172
    Number of Cartesian functions: 202
    Spherical Harmonics?: true
    Max angular momentum: 3

  Cached 100.0% of DFT collocation blocks in 0.146 [GiB].

  Minimum eigenvalue in the overlap matrix is 2.4965247796E-03.
  Using Symmetric Orthogonalization.

  SCF Guess: Superposition of Atomic Densities via on-the-fly atomic UHF.

  ==> Iterations <==

                           Total Energy        Delta E     RMS |[F,P]|

   @DF-RKS iter SAD:  -112.56510243576747   -1.12565e+02   0.00000e+00 
   @DF-RKS iter   1:  -113.27079343269197   -7.05691e-01   1.21661e-02 DIIS
   @DF-RKS iter   2:  -113.25032484714454    2.04686e-02   1.54868e-02 DIIS
   @DF-RKS iter   3:  -113.30739001546934   -5.70652e-02   1.55323e-03 DIIS
   @DF-RKS iter   4:  -113.30814724838680   -7.57233e-04   1.96734e-04 DIIS
   @DF-RKS iter   5:  -113.30816503582676   -1.77874e-05   3.71880e-05 DIIS
   @DF-RKS iter   6:  -113.30816586423452   -8.28408e-07   6.68775e-06 DIIS
   @DF-RKS iter   7:  -113.30816590601739   -4.17829e-08   6.22196e-07 DIIS
   @DF-RKS iter   8:  -113.30816590647592   -4.58527e-10   1.06007e-07 DIIS
   @DF-RKS iter   9:  -113.30816590648035   -4.43379e-12   1.42490e-08 DIIS
   @DF-RKS iter  10:  -113.30816590648041   -5.68434e-14   8.84103e-10 DIIS
   @DF-RKS iter  11:  -113.30816590648041    0.00000e+00   1.01129e-10 DIIS
   @DF-RKS iter  12:  -113.30816590648018    2.27374e-13   5.41476e-12 DIIS
  Energy and wave function converged.


  ==> Post-Iterations <==

    Orbital Energies [Eh]
    ---------------------

    Doubly Occupied:                                                      

       1A1   -19.464409     2A1   -10.482732     3A1    -1.301012  
       4A1    -0.697382     1B2    -0.585891     1B1    -0.585891  
       5A1    -0.488443  

    Virtual:                                                              

       2B2     0.043146     2B1     0.043146     6A1     0.055072  
       7A1     0.082165     3B1     0.105080     3B2     0.105080  
       8A1     0.189612     4B2     0.206863     4B1     0.206863  
       9A1     0.295472     1A2     0.386363    10A1     0.386363  
      11A1     0.462072     5B1     0.538273     5B2     0.538273  
      12A1     0.631122     6B1     0.645062     6B2     0.645062  
      13A1     0.801976    14A1     0.927566    15A1     0.951821  
       2A2     0.951821     7B1     1.069290     7B2     1.069290  
      16A1     1.269048     8B1     1.468469     8B2     1.468469  
       3A2     1.495585    17A1     1.495586     9B1     1.798148  
       9B2     1.798148    18A1     1.965285    19A1     2.011776  
      20A1     2.754051    21A1     3.271877     4A2     3.271881  
      10B1     3.388095    10B2     3.388095    22A1     3.727386  

    Final Occupation by Irrep:
             A1    A2    B1    B2 
    DOCC [     5,    0,    1,    1 ]

  @DF-RKS Final Energy:  -113.30816590648018

   => Energetics <=

    Nuclear Repulsion Energy =             22.4427683097854178
    One-Electron Energy =                -197.9945773882710967
    Two-Electron Energy =                  72.2158608568796296
    DFT Exchange-Correlation Energy =     -10.0313395260469669
    Empirical Dispersion Energy =           0.0000000000000000
    VV10 Nonlocal Energy =                  0.0591218411728381
    Total Energy =                       -113.3081659064801840

Computation Completed


Properties will be evaluated at   0.000000,   0.000000,   0.000000 [a0]

Properties computed using the SCF density matrix

  Nuclear Dipole Moment: [e a0]
     X:     0.0000      Y:     0.0000      Z:     0.0023

  Electronic Dipole Moment: [e a0]
     X:     0.0000      Y:     0.0000      Z:     0.0130

  Dipole Moment: [e a0]
     X:     0.0000      Y:     0.0000      Z:     0.0153     Total:     0.0153

  Dipole Moment: [D]
     X:     0.0000      Y:     0.0000      Z:     0.0389     Total:     0.0389


*** tstop() called on bp1-compute00090.data.bp.acrc.priv at Tue Apr 27 17:58:30 2021
Module time:
	user time   =      51.43 seconds =       0.86 minutes
	system time =       1.82 seconds =       0.03 minutes
	total time  =          3 seconds =       0.05 minutes
Total time:
	user time   =     661.96 seconds =      11.03 minutes
	system time =      26.57 seconds =       0.44 minutes
	total time  =         30 seconds =       0.50 minutes

         ----------------------------------------------------------
                                   FINDIF
                     R. A. King and Jonathon Misiewicz
         ---------------------------------------------------------

  Computing second-derivative from energies using projected, 
  symmetry-adapted, cartesian coordinates.

  3 energies passed in, including the reference geometry.
    Using 3-point formula.
    Energy without displacement: -113.3081682325
    Check energies below for precision!
    0: -1 :      -113.3081659152
    0: 1  :      -113.3081659065

-------------------------------------------------------------


  ==> Harmonic Vibrational Analysis <==

  non-mass-weighted Hessian:       Symmetric? True   Hermitian? True   Lin Dep Dim?  5 (0)
  projection of translations (True) and rotations (True) removed 5 degrees of freedom (5)
  total projector:                 Symmetric? True   Hermitian? True   Lin Dep Dim?  5 (5)
  mass-weighted Hessian:           Symmetric? True   Hermitian? True   Lin Dep Dim?  5 (0)
  pre-proj  low-frequency mode:    0.0000i [cm^-1]
  pre-proj  low-frequency mode:    0.0000  [cm^-1]
  pre-proj  low-frequency mode:    0.0000  [cm^-1]
  pre-proj  low-frequency mode:    0.0000  [cm^-1]
  pre-proj  low-frequency mode:    0.0000  [cm^-1]
  pre-proj  all modes:['0.0000i' '0.0000' '0.0000' '0.0000' '0.0000' '2215.3940']
  projected mass-weighted Hessian: Symmetric? True   Hermitian? True   Lin Dep Dim?  5 (5)
  post-proj low-frequency mode:    0.0000i [cm^-1] (TR)
  post-proj low-frequency mode:    0.0000  [cm^-1] (TR)
  post-proj low-frequency mode:    0.0000  [cm^-1] (TR)
  post-proj low-frequency mode:    0.0000  [cm^-1] (TR)
  post-proj low-frequency mode:    0.0000  [cm^-1] (TR)
  post-proj  all modes:['0.0000i' '0.0000' '0.0000' '0.0000' '0.0000' '2215.3940']

  Vibration                       6           
  Freq [cm^-1]                2215.3940       
  Irrep                           A1          
  Reduced mass [u]             13.4388        
  Force const [mDyne/A]        38.8608        
  Turning point v=0 [a0]        0.0636        
  RMS dev v=0 [a0 u^1/2]        0.1648        
  Char temp [K]               3187.4587       
  ----------------------------------------------------------------------------------
      1   C                0.00  0.00  0.80   
      2   O                0.00  0.00 -0.60   

  ==> Thermochemistry Components <==

  Entropy, S
    Electronic S            0.000 [cal/(mol K)]        0.000 [J/(mol K)]       0.00000000 [mEh/K] (multiplicity = 1)
    Translational S        35.923 [cal/(mol K)]      150.302 [J/(mol K)]       0.05724692 [mEh/K] (mol. weight = 27.9949 [u], P = 101325.00 [Pa])
    Rotational S           11.294 [cal/(mol K)]       47.256 [J/(mol K)]       0.01799870 [mEh/K] (symmetry no. = 1)
    Vibrational S           0.001 [cal/(mol K)]        0.002 [J/(mol K)]       0.00000084 [mEh/K]
  Total S                  47.218 [cal/(mol K)]      197.560 [J/(mol K)]       0.07524646 [mEh/K]
  Correction S              0.000 [cal/(mol K)]        0.000 [J/(mol K)]       0.00000000 [mEh/K]

  Constant volume heat capacity, Cv
    Electronic Cv           0.000 [cal/(mol K)]        0.000 [J/(mol K)]       0.00000000 [mEh/K]
    Translational Cv        2.981 [cal/(mol K)]       12.472 [J/(mol K)]       0.00475022 [mEh/K]
    Rotational Cv           1.987 [cal/(mol K)]        8.314 [J/(mol K)]       0.00316681 [mEh/K]
    Vibrational Cv          0.005 [cal/(mol K)]        0.022 [J/(mol K)]       0.00000824 [mEh/K]
  Total Cv                  4.973 [cal/(mol K)]       20.808 [J/(mol K)]       0.00792526 [mEh/K]
  Correction Cv             0.000 [cal/(mol K)]        0.000 [J/(mol K)]       0.00000000 [mEh/K]

  Constant pressure heat capacity, Cp
    Electronic Cp           0.000 [cal/(mol K)]        0.000 [J/(mol K)]       0.00000000 [mEh/K]
    Translational Cp        4.968 [cal/(mol K)]       20.786 [J/(mol K)]       0.00791703 [mEh/K]
    Rotational Cp           1.987 [cal/(mol K)]        8.314 [J/(mol K)]       0.00316681 [mEh/K]
    Vibrational Cp          0.005 [cal/(mol K)]        0.022 [J/(mol K)]       0.00000824 [mEh/K]
  Total Cp                  6.960 [cal/(mol K)]       29.122 [J/(mol K)]       0.01109207 [mEh/K]
  Correction Cp             0.000 [cal/(mol K)]        0.000 [J/(mol K)]       0.00000000 [mEh/K]

  ==> Thermochemistry Energy Analysis <==

  Raw electronic energy, E0
  Total E0, Electronic energy at well bottom at 0 [K]                 -113.30816823 [Eh]

  Zero-point energy, ZPE_vib = Sum_i nu_i / 2
    Electronic ZPE          0.000 [kcal/mol]        0.000 [kJ/mol]       0.00000000 [Eh]
    Translational ZPE       0.000 [kcal/mol]        0.000 [kJ/mol]       0.00000000 [Eh]
    Rotational ZPE          0.000 [kcal/mol]        0.000 [kJ/mol]       0.00000000 [Eh]
    Vibrational ZPE         3.167 [kcal/mol]       13.251 [kJ/mol]       0.00504704 [Eh]        1107.697 [cm^-1]
  Correction ZPE            3.167 [kcal/mol]       13.251 [kJ/mol]       0.00504704 [Eh]        1107.697 [cm^-1]
  Total ZPE, Electronic energy at 0 [K]                               -113.30312119 [Eh]

  Thermal Energy, E (includes ZPE)
    Electronic E            0.000 [kcal/mol]        0.000 [kJ/mol]       0.00000000 [Eh]
    Translational E         0.889 [kcal/mol]        3.718 [kJ/mol]       0.00141628 [Eh]
    Rotational E            0.592 [kcal/mol]        2.479 [kJ/mol]       0.00094418 [Eh]
    Vibrational E           3.167 [kcal/mol]       13.252 [kJ/mol]       0.00504727 [Eh]
  Correction E              4.648 [kcal/mol]       19.449 [kJ/mol]       0.00740773 [Eh]
  Total E, Electronic energy at  298.15 [K]                           -113.30076050 [Eh]

  Enthalpy, H_trans = E_trans + k_B * T
    Electronic H            0.000 [kcal/mol]        0.000 [kJ/mol]       0.00000000 [Eh]
    Translational H         1.481 [kcal/mol]        6.197 [kJ/mol]       0.00236046 [Eh]
    Rotational H            0.592 [kcal/mol]        2.479 [kJ/mol]       0.00094418 [Eh]
    Vibrational H           3.167 [kcal/mol]       13.252 [kJ/mol]       0.00504727 [Eh]
  Correction H              5.241 [kcal/mol]       21.928 [kJ/mol]       0.00835191 [Eh]
  Total H, Enthalpy at  298.15 [K]                                    -113.29981632 [Eh]

  Gibbs free energy, G = H - T * S
    Electronic G            0.000 [kcal/mol]        0.000 [kJ/mol]       0.00000000 [Eh]
    Translational G        -9.229 [kcal/mol]      -38.615 [kJ/mol]      -0.01470771 [Eh]
    Rotational G           -2.775 [kcal/mol]      -11.610 [kJ/mol]      -0.00442213 [Eh]
    Vibrational G           3.167 [kcal/mol]       13.251 [kJ/mol]       0.00504702 [Eh]
  Correction G             -8.837 [kcal/mol]      -36.974 [kJ/mol]      -0.01408282 [Eh]
  Total G, Free enthalpy at  298.15 [K]                               -113.32225105 [Eh]

    Psi4 stopped on: Tuesday, 27 April 2021 05:58PM
    Psi4 wall time for execution: 0:00:29.79

*** Psi4 exiting successfully. Buy a developer a beer!
