
    -----------------------------------------------------------------------
          Psi4: An Open-Source Ab Initio Electronic Structure Package
                               Psi4 1.3.2 release

                         Git: Rev {HEAD} ecbda83 


    R. M. Parrish, L. A. Burns, D. G. A. Smith, A. C. Simmonett,
    A. E. DePrince III, E. G. Hohenstein, U. Bozkaya, A. Yu. Sokolov,
    R. Di Remigio, R. M. Richard, J. F. Gonthier, A. M. James,
    H. R. McAlexander, A. Kumar, M. Saitow, X. Wang, B. P. Pritchard,
    P. Verma, H. F. Schaefer III, K. Patkowski, R. A. King, E. F. Valeev,
    F. A. Evangelista, J. M. Turney, T. D. Crawford, and C. D. Sherrill,
    J. Chem. Theory Comput. 13(7) pp 3185--3197 (2017).
    (doi: 10.1021/acs.jctc.7b00174)


                         Additional Contributions by
    P. Kraus, H. Kruse, M. H. Lechner, M. C. Schieber, R. A. Shaw,
    A. Alenaizan, R. Galvelis, Z. L. Glick, S. Lehtola, and J. P. Misiewicz

    -----------------------------------------------------------------------


    Psi4 started on: Tuesday, 27 April 2021 05:57PM

    Process ID: 189883
    Host:       bp1-compute00107.data.bp.acrc.priv
    PSIDATADIR: /work/zw18965/.conda/envs/p4env/share/psi4
    Memory:     500.0 MiB
    Threads:    24
    
  ==> Input File <==

--------------------------------------------------------------------------
memory 144 GB

molecule {
0 1
C 0.0000000000 0.0000000000 0.0000000000
S 0.0000000000 0.0000000000 1.5576337400
S 0.0000000000 0.0000000000 -1.5576337400
}

set dynamic_level 1
set basis aug-cc-pV(D+d)Z
 
optimize("wB97M-V")
frequencies("wB97M-V")
--------------------------------------------------------------------------

  Memory set to 134.110 GiB by Python driver.
gradient() will perform gradient computation by finite difference of analytic energies.

         ----------------------------------------------------------
                                   FINDIF
                     R. A. King and Jonathon Misiewicz
         ---------------------------------------------------------

  Using finite-differences of energies to determine gradients.
    Generating geometries for use with 3-point formula.
    Displacement size will be 5.00e-03.
    Number of atoms is 3.
    Number of symmetric SALCs is 1.
    Translations projected? 1. Rotations projected? 1.
    Number of geometries (including reference) is 3.

  //>>>>>>>>>>>>>>>>>>>>>>>>>>>>>>>>>>>//
  //    Loading displacement 1 of 3    //
  //<<<<<<<<<<<<<<<<<<<<<<<<<<<<<<<<<<<//

*** tstart() called on bp1-compute00107.data.bp.acrc.priv
*** at Tue Apr 27 17:57:16 2021

   => Loading Basis Set <=

    Name: AUG-CC-PV(D+D)Z
    Role: ORBITAL
    Keyword: BASIS
    atoms 1   entry C          line   198 file /work/zw18965/.conda/envs/p4env/share/psi4/basis/aug-cc-pv_dpd_z.gbs 
    atoms 2-3 entry S          line   724 file /work/zw18965/.conda/envs/p4env/share/psi4/basis/aug-cc-pv_dpd_z.gbs 


         ---------------------------------------------------------
                                   SCF
               by Justin Turney, Rob Parrish, Andy Simmonett
                          and Daniel G. A. Smith
                              RKS Reference
                       24 Threads, 137329 MiB Core
         ---------------------------------------------------------

  ==> Geometry <==

    Molecular point group: d2h
    Full point group: D_inf_h

    Geometry (in Angstrom), charge = 0, multiplicity = 1:

       Center              X                  Y                   Z               Mass       
    ------------   -----------------  -----------------  -----------------  -----------------
         C            0.000000000000     0.000000000000     0.000000000000    12.000000000000
         S            0.000000000000     0.000000000000     1.557633740000    31.972071174400
         S            0.000000000000     0.000000000000    -1.557633740000    31.972071174400

  Running in d2h symmetry.

  Rotational constants: A = ************  B =      0.10866  C =      0.10866 [cm^-1]
  Rotational constants: A = ************  B =   3257.50987  C =   3257.50987 [MHz]
  Nuclear repulsion =  108.714072548531220

  Charge       = 0
  Multiplicity = 1
  Electrons    = 38
  Nalpha       = 19
  Nbeta        = 19

  ==> Algorithm <==

  SCF Algorithm Type is DF.
  DIIS enabled.
  MOM disabled.
  Fractional occupation disabled.
  Guess Type is SAD.
  Energy threshold   = 1.00e-08
  Density threshold  = 1.00e-08
  Integral threshold = 0.00e+00

  ==> Primary Basis <==

  Basis Set: AUG-CC-PV(D+D)Z
    Blend: AUG-CC-PV(D+D)Z
    Number of shells: 33
    Number of basis function: 87
    Number of Cartesian functions: 95
    Spherical Harmonics?: true
    Max angular momentum: 2

  ==> DFT Potential <==

   => Composite Functional: WB97M-V <= 

    wB97M-V Hyb-GGA Exchange-Correlation Functional

    N. Mardirossian and M. Head-Gordon, J. Chem. Phys. 144, 214110 (2016)

    Deriv               =              1
    GGA                 =           TRUE
    Meta                =           TRUE

    Exchange Hybrid     =           TRUE
    MP2 Hybrid          =          FALSE

   => Exchange-Correlation Functionals <=

    1.0000   wB97M-V exchange-correlation functional

   => Exact (HF) Exchange <=

    0.8500            HF,LR [omega = 0.3000]
    0.1500               HF 

   => VV10 Non-Local Parameters <=

    VV10 B              =     6.0000E+00
    VV10 C              =     1.0000E-02

   => Molecular Quadrature <=

    Radial Scheme          =       TREUTLER
    Pruning Scheme         =           FLAT
    Nuclear Scheme         =       TREUTLER

    BS radius alpha        =              1
    Pruning alpha          =              1
    Radial Points          =             75
    Spherical Points       =            302
    Total Points           =          67492
    Total Blocks           =            613
    Max Points             =            256
    Max Functions          =             87

   => Loading Basis Set <=

    Name: (AUG-CC-PV(D+D)Z AUX)
    Role: JKFIT
    Keyword: DF_BASIS_SCF
    atoms 1   entry C          line   154 file /work/zw18965/.conda/envs/p4env/share/psi4/basis/aug-cc-pvdz-jkfit.gbs 
    atoms 2-3 entry S          line   690 file /work/zw18965/.conda/envs/p4env/share/psi4/basis/aug-cc-pvdz-jkfit.gbs 

  ==> Pre-Iterations <==

   -------------------------------------------------------
    Irrep   Nso     Nmo     Nalpha   Nbeta   Ndocc  Nsocc
   -------------------------------------------------------
     Ag        23      23       0       0       0       0
     B1g        5       5       0       0       0       0
     B2g        9       9       0       0       0       0
     B3g        9       9       0       0       0       0
     Au         3       3       0       0       0       0
     B1u       18      18       0       0       0       0
     B2u       10      10       0       0       0       0
     B3u       10      10       0       0       0       0
   -------------------------------------------------------
    Total      87      87      19      19      19       0
   -------------------------------------------------------

  ==> Integral Setup <==

  ==> DiskDFJK: Density-Fitted J/K Matrices <==

    J tasked:                  Yes
    K tasked:                  Yes
    wK tasked:                 Yes
    Omega:               3.000E-01
    OpenMP threads:             24
    Integrals threads:          24
    Memory [MiB]:           102603
    Algorithm:                Core
    Integral Cache:           NONE
    Schwarz Cutoff:          1E-12
    Fitting Condition:       1E-10

   => Auxiliary Basis Set <=

  Basis Set: (AUG-CC-PV(D+D)Z AUX)
    Blend: AUG-CC-PVDZ-JKFIT
    Number of shells: 108
    Number of basis function: 342
    Number of Cartesian functions: 401
    Spherical Harmonics?: true
    Max angular momentum: 3

  Cached 100.0% of DFT collocation blocks in 0.384 [GiB].

  Minimum eigenvalue in the overlap matrix is 2.3515409610E-04.
  Using Symmetric Orthogonalization.

  SCF Guess: Superposition of Atomic Densities via on-the-fly atomic UHF.

  ==> Iterations <==

                           Total Energy        Delta E     RMS |[F,P]|

   @DF-RKS iter SAD:  -834.08208612285580   -8.34082e+02   0.00000e+00 
   @DF-RKS iter   1:  -834.43489856972860   -3.52812e-01   5.44760e-03 DIIS
   @DF-RKS iter   2:  -834.44999656599907   -1.50980e-02   3.41742e-03 DIIS
   @DF-RKS iter   3:  -834.45597683807762   -5.98027e-03   1.49274e-03 DIIS
   @DF-RKS iter   4:  -834.45743567876582   -1.45884e-03   2.61291e-04 DIIS
   @DF-RKS iter   5:  -834.45750491336753   -6.92346e-05   4.74792e-05 DIIS
   @DF-RKS iter   6:  -834.45750701003794   -2.09667e-06   1.64634e-05 DIIS
   @DF-RKS iter   7:  -834.45750726581309   -2.55775e-07   1.18341e-06 DIIS
   @DF-RKS iter   8:  -834.45750726775589   -1.94279e-09   1.46414e-07 DIIS
   @DF-RKS iter   9:  -834.45750726778101   -2.51248e-11   1.08772e-08 DIIS
   @DF-RKS iter  10:  -834.45750726778181   -7.95808e-13   1.39985e-09 DIIS
  Energy and wave function converged.


  ==> Post-Iterations <==

    Orbital Energies [Eh]
    ---------------------

    Doubly Occupied:                                                      

       1B1u  -89.236939     1Ag   -89.236936     2Ag   -10.495288  
       2B1u   -8.158203     3Ag    -8.158161     4Ag    -6.067513  
       3B1u   -6.067513     1B3g   -6.062579     1B2g   -6.062579  
       1B2u   -6.062578     1B3u   -6.062578     5Ag    -0.989226  
       4B1u   -0.894293     6Ag    -0.619260     5B1u   -0.533944  
       2B2u   -0.497088     2B3u   -0.497088     2B2g   -0.360382  
       2B3g   -0.360382  

    Virtual:                                                              

       3B2u   -0.003992     3B3u   -0.003992     7Ag     0.038902  
       6B1u    0.045014     8Ag     0.074380     4B2u    0.087278  
       4B3u    0.087278     3B3g    0.108912     3B2g    0.108912  
       7B1u    0.124253     5B3u    0.152400     5B2u    0.152400  
       9Ag     0.159658     8B1u    0.240475    10Ag     0.259106  
       1B1g    0.259106    11Ag     0.261227     9B1u    0.278127  
       1Au     0.324925    10B1u    0.324925     4B3g    0.362356  
       4B2g    0.362356    12Ag     0.376762     6B2u    0.515915  
       6B3u    0.515915    13Ag     0.539023     2B1g    0.539025  
      14Ag     0.572856    11B1u    0.635711     7B3u    0.671514  
       7B2u    0.671514     5B3g    0.686970     5B2g    0.686970  
       6B3g    0.758470     6B2g    0.758470    12B1u    0.771271  
      15Ag     0.824773     8B2u    0.865848     8B3u    0.865848  
       3B1g    0.904060    16Ag     0.904063     2Au     0.925017  
      13B1u    0.925020    14B1u    0.965527    17Ag     0.967066  
       9B2u    0.994833     9B3u    0.994833     7B3g    1.103988  
       7B2g    1.103988    15B1u    1.279103    18Ag     1.406798  
       4B1g    1.502710    19Ag     1.502712    20Ag     1.774918  
       8B2g    1.790992     8B3g    1.790992    16B1u    1.904957  
      21Ag     2.729920    17B1u    4.669754     3Au     4.669765  
      22Ag     4.675583     5B1g    4.675594    10B2u    4.705889  
      10B3u    4.705889    23Ag     4.775762     9B3g    4.781723  
       9B2g    4.781723    18B1u    4.823090  

    Final Occupation by Irrep:
             Ag   B1g   B2g   B3g    Au   B1u   B2u   B3u 
    DOCC [     6,    0,    2,    2,    0,    5,    2,    2 ]

  @DF-RKS Final Energy:  -834.45750726778181

   => Energetics <=

    Nuclear Repulsion Energy =            108.7140725485312203
    One-Electron Energy =               -1366.3124094133063409
    Two-Electron Energy =                 466.4136633734493103
    DFT Exchange-Correlation Energy =     -43.4298664505582650
    Empirical Dispersion Energy =           0.0000000000000000
    VV10 Nonlocal Energy =                  0.1570326741022615
    Total Energy =                       -834.4575072677818071

Computation Completed


Properties will be evaluated at   0.000000,   0.000000,   0.000000 [a0]

Properties computed using the SCF density matrix

  Nuclear Dipole Moment: [e a0]
     X:     0.0000      Y:     0.0000      Z:     0.0000

  Electronic Dipole Moment: [e a0]
     X:     0.0000      Y:     0.0000      Z:     0.0000

  Dipole Moment: [e a0]
     X:     0.0000      Y:     0.0000      Z:     0.0000     Total:     0.0000

  Dipole Moment: [D]
     X:     0.0000      Y:     0.0000      Z:     0.0000     Total:     0.0000


*** tstop() called on bp1-compute00107.data.bp.acrc.priv at Tue Apr 27 17:57:20 2021
Module time:
	user time   =      74.73 seconds =       1.25 minutes
	system time =       4.09 seconds =       0.07 minutes
	total time  =          4 seconds =       0.07 minutes
Total time:
	user time   =      74.73 seconds =       1.25 minutes
	system time =       4.09 seconds =       0.07 minutes
	total time  =          4 seconds =       0.07 minutes

  //>>>>>>>>>>>>>>>>>>>>>>>>>>>>>>>>>>>//
  //    Loading displacement 2 of 3    //
  //<<<<<<<<<<<<<<<<<<<<<<<<<<<<<<<<<<<//

*** tstart() called on bp1-compute00107.data.bp.acrc.priv
*** at Tue Apr 27 17:57:20 2021

   => Loading Basis Set <=

    Name: AUG-CC-PV(D+D)Z
    Role: ORBITAL
    Keyword: BASIS
    atoms 1   entry C          line   198 file /work/zw18965/.conda/envs/p4env/share/psi4/basis/aug-cc-pv_dpd_z.gbs 
    atoms 2-3 entry S          line   724 file /work/zw18965/.conda/envs/p4env/share/psi4/basis/aug-cc-pv_dpd_z.gbs 


         ---------------------------------------------------------
                                   SCF
               by Justin Turney, Rob Parrish, Andy Simmonett
                          and Daniel G. A. Smith
                              RKS Reference
                       24 Threads, 137329 MiB Core
         ---------------------------------------------------------

  ==> Geometry <==

    Molecular point group: d2h
    Full point group: D_inf_h

    Geometry (in Angstrom), charge = 0, multiplicity = 1:

       Center              X                  Y                   Z               Mass       
    ------------   -----------------  -----------------  -----------------  -----------------
         C            0.000000000000     0.000000000000     0.000000000000    12.000000000000
         S            0.000000000000     0.000000000000     1.557302859820    31.972071174400
         S            0.000000000000     0.000000000000    -1.557302859820    31.972071174400

  Running in d2h symmetry.

  Rotational constants: A = ************  B =      0.10871  C =      0.10871 [cm^-1]
  Rotational constants: A = ************  B =   3258.89427  C =   3258.89427 [MHz]
  Nuclear repulsion =  108.737171030434496

  Charge       = 0
  Multiplicity = 1
  Electrons    = 38
  Nalpha       = 19
  Nbeta        = 19

  ==> Algorithm <==

  SCF Algorithm Type is DF.
  DIIS enabled.
  MOM disabled.
  Fractional occupation disabled.
  Guess Type is SAD.
  Energy threshold   = 1.00e-08
  Density threshold  = 1.00e-08
  Integral threshold = 0.00e+00

  ==> Primary Basis <==

  Basis Set: AUG-CC-PV(D+D)Z
    Blend: AUG-CC-PV(D+D)Z
    Number of shells: 33
    Number of basis function: 87
    Number of Cartesian functions: 95
    Spherical Harmonics?: true
    Max angular momentum: 2

  ==> DFT Potential <==

   => Composite Functional: WB97M-V <= 

    wB97M-V Hyb-GGA Exchange-Correlation Functional

    N. Mardirossian and M. Head-Gordon, J. Chem. Phys. 144, 214110 (2016)

    Deriv               =              1
    GGA                 =           TRUE
    Meta                =           TRUE

    Exchange Hybrid     =           TRUE
    MP2 Hybrid          =          FALSE

   => Exchange-Correlation Functionals <=

    1.0000   wB97M-V exchange-correlation functional

   => Exact (HF) Exchange <=

    0.8500            HF,LR [omega = 0.3000]
    0.1500               HF 

   => VV10 Non-Local Parameters <=

    VV10 B              =     6.0000E+00
    VV10 C              =     1.0000E-02

   => Molecular Quadrature <=

    Radial Scheme          =       TREUTLER
    Pruning Scheme         =           FLAT
    Nuclear Scheme         =       TREUTLER

    BS radius alpha        =              1
    Pruning alpha          =              1
    Radial Points          =             75
    Spherical Points       =            302
    Total Points           =          67492
    Total Blocks           =            613
    Max Points             =            256
    Max Functions          =             87

   => Loading Basis Set <=

    Name: (AUG-CC-PV(D+D)Z AUX)
    Role: JKFIT
    Keyword: DF_BASIS_SCF
    atoms 1   entry C          line   154 file /work/zw18965/.conda/envs/p4env/share/psi4/basis/aug-cc-pvdz-jkfit.gbs 
    atoms 2-3 entry S          line   690 file /work/zw18965/.conda/envs/p4env/share/psi4/basis/aug-cc-pvdz-jkfit.gbs 

  ==> Pre-Iterations <==

   -------------------------------------------------------
    Irrep   Nso     Nmo     Nalpha   Nbeta   Ndocc  Nsocc
   -------------------------------------------------------
     Ag        23      23       0       0       0       0
     B1g        5       5       0       0       0       0
     B2g        9       9       0       0       0       0
     B3g        9       9       0       0       0       0
     Au         3       3       0       0       0       0
     B1u       18      18       0       0       0       0
     B2u       10      10       0       0       0       0
     B3u       10      10       0       0       0       0
   -------------------------------------------------------
    Total      87      87      19      19      19       0
   -------------------------------------------------------

  ==> Integral Setup <==

  ==> DiskDFJK: Density-Fitted J/K Matrices <==

    J tasked:                  Yes
    K tasked:                  Yes
    wK tasked:                 Yes
    Omega:               3.000E-01
    OpenMP threads:             24
    Integrals threads:          24
    Memory [MiB]:           102603
    Algorithm:                Core
    Integral Cache:           NONE
    Schwarz Cutoff:          1E-12
    Fitting Condition:       1E-10

   => Auxiliary Basis Set <=

  Basis Set: (AUG-CC-PV(D+D)Z AUX)
    Blend: AUG-CC-PVDZ-JKFIT
    Number of shells: 108
    Number of basis function: 342
    Number of Cartesian functions: 401
    Spherical Harmonics?: true
    Max angular momentum: 3

  Cached 100.0% of DFT collocation blocks in 0.384 [GiB].

  Minimum eigenvalue in the overlap matrix is 2.3487105594E-04.
  Using Symmetric Orthogonalization.

  SCF Guess: Superposition of Atomic Densities via on-the-fly atomic UHF.

  ==> Iterations <==

                           Total Energy        Delta E     RMS |[F,P]|

   @DF-RKS iter SAD:  -834.08307162954213   -8.34083e+02   0.00000e+00 
   @DF-RKS iter   1:  -834.43486062489819   -3.51789e-01   5.45334e-03 DIIS
   @DF-RKS iter   2:  -834.44995162479222   -1.50910e-02   3.42818e-03 DIIS
   @DF-RKS iter   3:  -834.45597566709716   -6.02404e-03   1.49389e-03 DIIS
   @DF-RKS iter   4:  -834.45743643331593   -1.46077e-03   2.60783e-04 DIIS
   @DF-RKS iter   5:  -834.45750548250828   -6.90492e-05   4.74622e-05 DIIS
   @DF-RKS iter   6:  -834.45750757612655   -2.09362e-06   1.64552e-05 DIIS
   @DF-RKS iter   7:  -834.45750783159417   -2.55468e-07   1.18340e-06 DIIS
   @DF-RKS iter   8:  -834.45750783353685   -1.94268e-09   1.46372e-07 DIIS
   @DF-RKS iter   9:  -834.45750783356129   -2.44427e-11   1.08876e-08 DIIS
   @DF-RKS iter  10:  -834.45750783356198   -6.82121e-13   1.39886e-09 DIIS
  Energy and wave function converged.


  ==> Post-Iterations <==

    Orbital Energies [Eh]
    ---------------------

    Doubly Occupied:                                                      

       1B1u  -89.236885     1Ag   -89.236882     2Ag   -10.495183  
       2B1u   -8.158166     3Ag    -8.158125     3B1u   -6.067474  
       4Ag    -6.067474     1B2g   -6.062542     1B3g   -6.062542  
       1B3u   -6.062541     1B2u   -6.062541     5Ag    -0.989320  
       4B1u   -0.894353     6Ag    -0.619216     5B1u   -0.533958  
       2B3u   -0.497156     2B2u   -0.497156     2B2g   -0.360374  
       2B3g   -0.360374  

    Virtual:                                                              

       3B2u   -0.003934     3B3u   -0.003934     7Ag     0.038911  
       6B1u    0.045018     8Ag     0.074384     4B3u    0.087291  
       4B2u    0.087291     3B2g    0.108912     3B3g    0.108912  
       7B1u    0.124261     5B3u    0.152405     5B2u    0.152405  
       9Ag     0.159806     8B1u    0.240473    10Ag     0.259098  
       1B1g    0.259098    11Ag     0.261263     9B1u    0.278172  
       1Au     0.324944    10B1u    0.324944     4B3g    0.362406  
       4B2g    0.362406    12Ag     0.376751     6B3u    0.516006  
       6B2u    0.516006    13Ag     0.539080     2B1g    0.539082  
      14Ag     0.572955    11B1u    0.635770     7B2u    0.671500  
       7B3u    0.671500     5B2g    0.686885     5B3g    0.686885  
       6B2g    0.758562     6B3g    0.758562    12B1u    0.771265  
      15Ag     0.824768     8B3u    0.865912     8B2u    0.865912  
       3B1g    0.904041    16Ag     0.904044     2Au     0.925030  
      13B1u    0.925033    14B1u    0.965629    17Ag     0.967162  
       9B3u    0.994909     9B2u    0.994909     7B2g    1.104094  
       7B3g    1.104094    15B1u    1.279633    18Ag     1.407108  
       4B1g    1.502745    19Ag     1.502747    20Ag     1.775118  
       8B2g    1.791249     8B3g    1.791249    16B1u    1.905113  
      21Ag     2.730534    17B1u    4.669780     3Au     4.669791  
      22Ag     4.675616     5B1g    4.675627    10B3u    4.705958  
      10B2u    4.705958    23Ag     4.775818     9B3g    4.781807  
       9B2g    4.781807    18B1u    4.823123  

    Final Occupation by Irrep:
             Ag   B1g   B2g   B3g    Au   B1u   B2u   B3u 
    DOCC [     6,    0,    2,    2,    0,    5,    2,    2 ]

  @DF-RKS Final Energy:  -834.45750783356198

   => Energetics <=

    Nuclear Repulsion Energy =            108.7371710304344958
    One-Electron Energy =               -1366.3589398832104962
    Two-Electron Energy =                 466.4374390073600694
    DFT Exchange-Correlation Energy =     -43.4302101070115327
    Empirical Dispersion Energy =           0.0000000000000000
    VV10 Nonlocal Energy =                  0.1570321188655253
    Total Energy =                       -834.4575078335619764

Computation Completed


Properties will be evaluated at   0.000000,   0.000000,   0.000000 [a0]

Properties computed using the SCF density matrix

  Nuclear Dipole Moment: [e a0]
     X:     0.0000      Y:     0.0000      Z:     0.0000

  Electronic Dipole Moment: [e a0]
     X:     0.0000      Y:     0.0000      Z:     0.0000

  Dipole Moment: [e a0]
     X:     0.0000      Y:     0.0000      Z:     0.0000     Total:     0.0000

  Dipole Moment: [D]
     X:     0.0000      Y:     0.0000      Z:     0.0000     Total:     0.0000


*** tstop() called on bp1-compute00107.data.bp.acrc.priv at Tue Apr 27 17:57:23 2021
Module time:
	user time   =      73.42 seconds =       1.22 minutes
	system time =       2.85 seconds =       0.05 minutes
	total time  =          3 seconds =       0.05 minutes
Total time:
	user time   =     148.32 seconds =       2.47 minutes
	system time =       6.95 seconds =       0.12 minutes
	total time  =          7 seconds =       0.12 minutes

  //>>>>>>>>>>>>>>>>>>>>>>>>>>>>>>>>>>>//
  //    Loading displacement 3 of 3    //
  //<<<<<<<<<<<<<<<<<<<<<<<<<<<<<<<<<<<//

*** tstart() called on bp1-compute00107.data.bp.acrc.priv
*** at Tue Apr 27 17:57:23 2021

   => Loading Basis Set <=

    Name: AUG-CC-PV(D+D)Z
    Role: ORBITAL
    Keyword: BASIS
    atoms 1   entry C          line   198 file /work/zw18965/.conda/envs/p4env/share/psi4/basis/aug-cc-pv_dpd_z.gbs 
    atoms 2-3 entry S          line   724 file /work/zw18965/.conda/envs/p4env/share/psi4/basis/aug-cc-pv_dpd_z.gbs 


         ---------------------------------------------------------
                                   SCF
               by Justin Turney, Rob Parrish, Andy Simmonett
                          and Daniel G. A. Smith
                              RKS Reference
                       24 Threads, 137329 MiB Core
         ---------------------------------------------------------

  ==> Geometry <==

    Molecular point group: d2h
    Full point group: D_inf_h

    Geometry (in Angstrom), charge = 0, multiplicity = 1:

       Center              X                  Y                   Z               Mass       
    ------------   -----------------  -----------------  -----------------  -----------------
         C            0.000000000000     0.000000000000     0.000000000000    12.000000000000
         S            0.000000000000     0.000000000000     1.557964620180    31.972071174400
         S            0.000000000000     0.000000000000    -1.557964620180    31.972071174400

  Running in d2h symmetry.

  Rotational constants: A = ************  B =      0.10861  C =      0.10861 [cm^-1]
  Rotational constants: A = ************  B =   3256.12636  C =   3256.12636 [MHz]
  Nuclear repulsion =  108.690983877928886

  Charge       = 0
  Multiplicity = 1
  Electrons    = 38
  Nalpha       = 19
  Nbeta        = 19

  ==> Algorithm <==

  SCF Algorithm Type is DF.
  DIIS enabled.
  MOM disabled.
  Fractional occupation disabled.
  Guess Type is SAD.
  Energy threshold   = 1.00e-08
  Density threshold  = 1.00e-08
  Integral threshold = 0.00e+00

  ==> Primary Basis <==

  Basis Set: AUG-CC-PV(D+D)Z
    Blend: AUG-CC-PV(D+D)Z
    Number of shells: 33
    Number of basis function: 87
    Number of Cartesian functions: 95
    Spherical Harmonics?: true
    Max angular momentum: 2

  ==> DFT Potential <==

   => Composite Functional: WB97M-V <= 

    wB97M-V Hyb-GGA Exchange-Correlation Functional

    N. Mardirossian and M. Head-Gordon, J. Chem. Phys. 144, 214110 (2016)

    Deriv               =              1
    GGA                 =           TRUE
    Meta                =           TRUE

    Exchange Hybrid     =           TRUE
    MP2 Hybrid          =          FALSE

   => Exchange-Correlation Functionals <=

    1.0000   wB97M-V exchange-correlation functional

   => Exact (HF) Exchange <=

    0.8500            HF,LR [omega = 0.3000]
    0.1500               HF 

   => VV10 Non-Local Parameters <=

    VV10 B              =     6.0000E+00
    VV10 C              =     1.0000E-02

   => Molecular Quadrature <=

    Radial Scheme          =       TREUTLER
    Pruning Scheme         =           FLAT
    Nuclear Scheme         =       TREUTLER

    BS radius alpha        =              1
    Pruning alpha          =              1
    Radial Points          =             75
    Spherical Points       =            302
    Total Points           =          67492
    Total Blocks           =            613
    Max Points             =            256
    Max Functions          =             87

   => Loading Basis Set <=

    Name: (AUG-CC-PV(D+D)Z AUX)
    Role: JKFIT
    Keyword: DF_BASIS_SCF
    atoms 1   entry C          line   154 file /work/zw18965/.conda/envs/p4env/share/psi4/basis/aug-cc-pvdz-jkfit.gbs 
    atoms 2-3 entry S          line   690 file /work/zw18965/.conda/envs/p4env/share/psi4/basis/aug-cc-pvdz-jkfit.gbs 

  ==> Pre-Iterations <==

   -------------------------------------------------------
    Irrep   Nso     Nmo     Nalpha   Nbeta   Ndocc  Nsocc
   -------------------------------------------------------
     Ag        23      23       0       0       0       0
     B1g        5       5       0       0       0       0
     B2g        9       9       0       0       0       0
     B3g        9       9       0       0       0       0
     Au         3       3       0       0       0       0
     B1u       18      18       0       0       0       0
     B2u       10      10       0       0       0       0
     B3u       10      10       0       0       0       0
   -------------------------------------------------------
    Total      87      87      19      19      19       0
   -------------------------------------------------------

  ==> Integral Setup <==

  ==> DiskDFJK: Density-Fitted J/K Matrices <==

    J tasked:                  Yes
    K tasked:                  Yes
    wK tasked:                 Yes
    Omega:               3.000E-01
    OpenMP threads:             24
    Integrals threads:          24
    Memory [MiB]:           102603
    Algorithm:                Core
    Integral Cache:           NONE
    Schwarz Cutoff:          1E-12
    Fitting Condition:       1E-10

   => Auxiliary Basis Set <=

  Basis Set: (AUG-CC-PV(D+D)Z AUX)
    Blend: AUG-CC-PVDZ-JKFIT
    Number of shells: 108
    Number of basis function: 342
    Number of Cartesian functions: 401
    Spherical Harmonics?: true
    Max angular momentum: 3

  Cached 100.0% of DFT collocation blocks in 0.384 [GiB].

  Minimum eigenvalue in the overlap matrix is 2.3543764586E-04.
  Using Symmetric Orthogonalization.

  SCF Guess: Superposition of Atomic Densities via on-the-fly atomic UHF.

  ==> Iterations <==

                           Total Energy        Delta E     RMS |[F,P]|

   @DF-RKS iter SAD:  -834.08113805838582   -8.34081e+02   0.00000e+00 
   @DF-RKS iter   1:  -834.43493492981395   -3.53797e-01   5.44195e-03 DIIS
   @DF-RKS iter   2:  -834.45004078061277   -1.51059e-02   3.40669e-03 DIIS
   @DF-RKS iter   3:  -834.45597756613563   -5.93679e-03   1.49158e-03 DIIS
   @DF-RKS iter   4:  -834.45743446026779   -1.45689e-03   2.61791e-04 DIIS
   @DF-RKS iter   5:  -834.45750387785426   -6.94176e-05   4.74941e-05 DIIS
   @DF-RKS iter   6:  -834.45750597747644   -2.09962e-06   1.64715e-05 DIIS
   @DF-RKS iter   7:  -834.45750623355991   -2.56083e-07   1.18347e-06 DIIS
   @DF-RKS iter   8:  -834.45750623550316   -1.94325e-09   1.46479e-07 DIIS
   @DF-RKS iter   9:  -834.45750623552806   -2.48974e-11   1.08668e-08 DIIS
   @DF-RKS iter  10:  -834.45750623552851   -4.54747e-13   1.40042e-09 DIIS
  Energy and wave function converged.


  ==> Post-Iterations <==

    Orbital Energies [Eh]
    ---------------------

    Doubly Occupied:                                                      

       1B1u  -89.236993     1Ag   -89.236990     2Ag   -10.495392  
       2B1u   -8.158239     3Ag    -8.158198     4Ag    -6.067551  
       3B1u   -6.067551     1B2g   -6.062616     1B3g   -6.062616  
       1B3u   -6.062615     1B2u   -6.062615     5Ag    -0.989132  
       4B1u   -0.894233     6Ag    -0.619304     5B1u   -0.533930  
       2B3u   -0.497020     2B2u   -0.497020     2B2g   -0.360390  
       2B3g   -0.360390  

    Virtual:                                                              

       3B3u   -0.004049     3B2u   -0.004049     7Ag     0.038892  
       6B1u    0.045009     8Ag     0.074375     4B3u    0.087265  
       4B2u    0.087265     3B2g    0.108912     3B3g    0.108912  
       7B1u    0.124245     5B2u    0.152395     5B3u    0.152395  
       9Ag     0.159509     8B1u    0.240476    10Ag     0.259113  
       1B1g    0.259113    11Ag     0.261192     9B1u    0.278082  
       1Au     0.324907    10B1u    0.324907     4B3g    0.362306  
       4B2g    0.362306    12Ag     0.376773     6B3u    0.515825  
       6B2u    0.515825    13Ag     0.538967     2B1g    0.538968  
      14Ag     0.572757    11B1u    0.635651     7B3u    0.671529  
       7B2u    0.671529     5B2g    0.687054     5B3g    0.687054  
       6B3g    0.758377     6B2g    0.758377    12B1u    0.771278  
      15Ag     0.824779     8B2u    0.865783     8B3u    0.865783  
       3B1g    0.904079    16Ag     0.904082     2Au     0.925004  
      13B1u    0.925008    14B1u    0.965424    17Ag     0.966969  
       9B2u    0.994758     9B3u    0.994758     7B2g    1.103882  
       7B3g    1.103882    15B1u    1.278573    18Ag     1.406487  
       4B1g    1.502676    19Ag     1.502678    20Ag     1.774718  
       8B2g    1.790735     8B3g    1.790735    16B1u    1.904800  
      21Ag     2.729305    17B1u    4.669728     3Au     4.669739  
      22Ag     4.675549     5B1g    4.675560    10B3u    4.705819  
      10B2u    4.705819    23Ag     4.775707     9B2g    4.781638  
       9B3g    4.781638    18B1u    4.823058  

    Final Occupation by Irrep:
             Ag   B1g   B2g   B3g    Au   B1u   B2u   B3u 
    DOCC [     6,    0,    2,    2,    0,    5,    2,    2 ]

  @DF-RKS Final Energy:  -834.45750623552851

   => Energetics <=

    Nuclear Repulsion Energy =            108.6909838779288862
    One-Electron Energy =               -1366.2658978590061452
    Two-Electron Energy =                 466.3898975487199436
    DFT Exchange-Correlation Energy =     -43.4295230327343660
    Empirical Dispersion Energy =           0.0000000000000000
    VV10 Nonlocal Energy =                  0.1570332295632039
    Total Energy =                       -834.4575062355283990

Computation Completed


Properties will be evaluated at   0.000000,   0.000000,   0.000000 [a0]

Properties computed using the SCF density matrix

  Nuclear Dipole Moment: [e a0]
     X:     0.0000      Y:     0.0000      Z:     0.0000

  Electronic Dipole Moment: [e a0]
     X:     0.0000      Y:     0.0000      Z:     0.0000

  Dipole Moment: [e a0]
     X:     0.0000      Y:     0.0000      Z:     0.0000     Total:     0.0000

  Dipole Moment: [D]
     X:     0.0000      Y:     0.0000      Z:     0.0000     Total:     0.0000


*** tstop() called on bp1-compute00107.data.bp.acrc.priv at Tue Apr 27 17:57:26 2021
Module time:
	user time   =      67.74 seconds =       1.13 minutes
	system time =       2.30 seconds =       0.04 minutes
	total time  =          3 seconds =       0.05 minutes
Total time:
	user time   =     216.21 seconds =       3.60 minutes
	system time =       9.26 seconds =       0.15 minutes
	total time  =         10 seconds =       0.17 minutes

         ----------------------------------------------------------
                                   FINDIF
                     R. A. King and Jonathon Misiewicz
         ---------------------------------------------------------

  Computing gradient from energies.
    Using 3-point formula.
    Energy without displacement: -834.4575072678
    Check energies below for precision!
    Forces are for mass-weighted, symmetry-adapted cartesians (in au).

     Coord      Energy(-1)        Energy(+1)            Force
        0   -834.4575078336   -834.4575062355      0.0001598033


-------------------------------------------------------------
  ## New Matrix (Symmetry 0) ##
  Irrep: 1 Size: 3 x 3

                 1                   2                   3

    1     0.00000000000000     0.00000000000000     0.00000000000000
    2     0.00000000000000     0.00000000000000     0.00063893437963
    3     0.00000000000000     0.00000000000000    -0.00063893437963




			-----------------------------------------
			 OPTKING 2.0: for geometry optimizations 
			  - R.A. King,  Bethel University        
			-----------------------------------------
	At level 1: Red. Int., RFO, no backsteps, dynamic trust

	Internal coordinates to be generated automatically.
	Detected frag 1 with atoms:  1 2 3
	---Fragment 1 Bond Connectivity---
	 1 : 2 3
	 2 : 1
	 3 : 1

	---Fragment 1 Geometry and Gradient---
	 C           0.0000000000        0.0000000000        0.0000000000
	 S           0.0000000000        0.0000000000        2.9435011724
	 S           0.0000000000        0.0000000000       -2.9435011724
	             0.0000000000        0.0000000000        0.0000000000
	             0.0000000000        0.0000000000        0.0006389344
	             0.0000000000        0.0000000000       -0.0006389344

	Previous optimization step data not found.  Starting new optimization.

	---Fragment 1 Intrafragment Coordinates---
	 - Coordinate -           - BOHR/RAD -       - ANG/DEG -
	 R(1,2)           =         2.943501	       1.557634
	 R(1,3)           =         2.943501	       1.557634
	 L(2,1,3)         =         3.141593	     180.000000
	 l(2,1,3)         =         3.141593	     180.000000

	Current energy   :      -834.4575072678

	Generating empirical Hessian (Schlegel '84) for each fragment.
	Taking RFO optimization step.
	Going to follow RFO solution 1.
	Using RFO vector 1.
	Norm of target step-size    0.00150
	Projected energy change by RFO approximation:        -0.0000013525

	Back-transformation to cartesian coordinates...
	Successfully converged to displaced geometry.

	--- Internal Coordinate Step in ANG or DEG, aJ/ANG or AJ/DEG ---
	 ---------------------------------------------------------------------------
	   Coordinate                Previous        Force       Change         New 
	   ----------                --------       ------       ------       ------
	    1 R(1,2)          =      1.557634    -0.005264    -0.000560     1.557074
	    2 R(1,3)          =      1.557634    -0.005264    -0.000560     1.557074
	    3 L(2,1,3)        =    180.000000     0.000000     0.000000   180.000000
	    4 l(2,1,3)        =    180.000000     0.000000     0.000000   180.000000
	 ---------------------------------------------------------------------------
	Successfully symmetrized geometry.

  ==> Convergence Check <==

  Measures of convergence in internal coordinates in au.
  Criteria marked as inactive (o), active & met (*), and active & unmet ( ).
  --------------------------------------------------------------------------------------------- ~
   Step     Total Energy     Delta E     MAX Force     RMS Force      MAX Disp      RMS Disp    ~
  --------------------------------------------------------------------------------------------- ~
    Convergence Criteria    1.00e-06 *    3.00e-04 *             o    1.20e-03 *             o  ~
  --------------------------------------------------------------------------------------------- ~
      1    -834.45750727   -8.34e+02      6.39e-04      4.52e-04 o    1.06e-03 *    7.48e-04 o  ~
  ---------------------------------------------------------------------------------------------

	Writing optimization data to binary file.
	Structure for next step:
	Cartesian Geometry (in Angstrom)
	    C     0.0000000000   0.0000000000   0.0000000000
	    S     0.0000000000   0.0000000000   1.5570736553
	    S     0.0000000000   0.0000000000  -1.5570736553
			--------------------------
			 OPTKING Finished Execution 
			--------------------------

    Structure for next step:
    Molecular point group: d2h
    Full point group: D_inf_h

    Geometry (in Angstrom), charge = 0, multiplicity = 1:

    C            0.000000000000     0.000000000000     0.000000000000
    S            0.000000000000     0.000000000000     1.557073661385
    S            0.000000000000     0.000000000000    -1.557073661385

gradient() will perform gradient computation by finite difference of analytic energies.

         ----------------------------------------------------------
                                   FINDIF
                     R. A. King and Jonathon Misiewicz
         ---------------------------------------------------------

  Using finite-differences of energies to determine gradients.
    Generating geometries for use with 3-point formula.
    Displacement size will be 5.00e-03.
    Number of atoms is 3.
    Number of symmetric SALCs is 1.
    Translations projected? 1. Rotations projected? 1.
    Number of geometries (including reference) is 3.

  //>>>>>>>>>>>>>>>>>>>>>>>>>>>>>>>>>>>//
  //    Loading displacement 1 of 3    //
  //<<<<<<<<<<<<<<<<<<<<<<<<<<<<<<<<<<<//

*** tstart() called on bp1-compute00107.data.bp.acrc.priv
*** at Tue Apr 27 17:57:26 2021

   => Loading Basis Set <=

    Name: AUG-CC-PV(D+D)Z
    Role: ORBITAL
    Keyword: BASIS
    atoms 1   entry C          line   198 file /work/zw18965/.conda/envs/p4env/share/psi4/basis/aug-cc-pv_dpd_z.gbs 
    atoms 2-3 entry S          line   724 file /work/zw18965/.conda/envs/p4env/share/psi4/basis/aug-cc-pv_dpd_z.gbs 


         ---------------------------------------------------------
                                   SCF
               by Justin Turney, Rob Parrish, Andy Simmonett
                          and Daniel G. A. Smith
                              RKS Reference
                       24 Threads, 137329 MiB Core
         ---------------------------------------------------------

  ==> Geometry <==

    Molecular point group: d2h
    Full point group: D_inf_h

    Geometry (in Angstrom), charge = 0, multiplicity = 1:

       Center              X                  Y                   Z               Mass       
    ------------   -----------------  -----------------  -----------------  -----------------
         C            0.000000000000     0.000000000000     0.000000000000    12.000000000000
         S            0.000000000000     0.000000000000     1.557073661385    31.972071174400
         S            0.000000000000     0.000000000000    -1.557073661385    31.972071174400

  Running in d2h symmetry.

  Rotational constants: A = ************  B =      0.10874  C =      0.10874 [cm^-1]
  Rotational constants: A = ************  B =   3259.85374  C =   3259.85374 [MHz]
  Nuclear repulsion =  108.753176945874728

  Charge       = 0
  Multiplicity = 1
  Electrons    = 38
  Nalpha       = 19
  Nbeta        = 19

  ==> Algorithm <==

  SCF Algorithm Type is DF.
  DIIS enabled.
  MOM disabled.
  Fractional occupation disabled.
  Guess Type is READ.
  Energy threshold   = 1.00e-08
  Density threshold  = 1.00e-08
  Integral threshold = 0.00e+00

  ==> Primary Basis <==

  Basis Set: AUG-CC-PV(D+D)Z
    Blend: AUG-CC-PV(D+D)Z
    Number of shells: 33
    Number of basis function: 87
    Number of Cartesian functions: 95
    Spherical Harmonics?: true
    Max angular momentum: 2

  ==> DFT Potential <==

   => Composite Functional: WB97M-V <= 

    wB97M-V Hyb-GGA Exchange-Correlation Functional

    N. Mardirossian and M. Head-Gordon, J. Chem. Phys. 144, 214110 (2016)

    Deriv               =              1
    GGA                 =           TRUE
    Meta                =           TRUE

    Exchange Hybrid     =           TRUE
    MP2 Hybrid          =          FALSE

   => Exchange-Correlation Functionals <=

    1.0000   wB97M-V exchange-correlation functional

   => Exact (HF) Exchange <=

    0.8500            HF,LR [omega = 0.3000]
    0.1500               HF 

   => VV10 Non-Local Parameters <=

    VV10 B              =     6.0000E+00
    VV10 C              =     1.0000E-02

   => Molecular Quadrature <=

    Radial Scheme          =       TREUTLER
    Pruning Scheme         =           FLAT
    Nuclear Scheme         =       TREUTLER

    BS radius alpha        =              1
    Pruning alpha          =              1
    Radial Points          =             75
    Spherical Points       =            302
    Total Points           =          67492
    Total Blocks           =            613
    Max Points             =            256
    Max Functions          =             87

   => Loading Basis Set <=

    Name: (AUG-CC-PV(D+D)Z AUX)
    Role: JKFIT
    Keyword: DF_BASIS_SCF
    atoms 1   entry C          line   154 file /work/zw18965/.conda/envs/p4env/share/psi4/basis/aug-cc-pvdz-jkfit.gbs 
    atoms 2-3 entry S          line   690 file /work/zw18965/.conda/envs/p4env/share/psi4/basis/aug-cc-pvdz-jkfit.gbs 

   => Loading Basis Set <=

    Name: AUG-CC-PV(D+D)Z
    Role: ORBITAL
    Keyword: BASIS
    atoms 1   entry C          line   198 file /work/zw18965/.conda/envs/p4env/share/psi4/basis/aug-cc-pv_dpd_z.gbs 
    atoms 2-3 entry S          line   724 file /work/zw18965/.conda/envs/p4env/share/psi4/basis/aug-cc-pv_dpd_z.gbs 

  Reading orbitals from file 180, no projection.

  ==> Pre-Iterations <==

   -------------------------------------------------------
    Irrep   Nso     Nmo     Nalpha   Nbeta   Ndocc  Nsocc
   -------------------------------------------------------
     Ag        23      23       0       0       0       0
     B1g        5       5       0       0       0       0
     B2g        9       9       0       0       0       0
     B3g        9       9       0       0       0       0
     Au         3       3       0       0       0       0
     B1u       18      18       0       0       0       0
     B2u       10      10       0       0       0       0
     B3u       10      10       0       0       0       0
   -------------------------------------------------------
    Total      87      87      19      19      19       0
   -------------------------------------------------------

  ==> Integral Setup <==

  ==> DiskDFJK: Density-Fitted J/K Matrices <==

    J tasked:                  Yes
    K tasked:                  Yes
    wK tasked:                 Yes
    Omega:               3.000E-01
    OpenMP threads:             24
    Integrals threads:          24
    Memory [MiB]:           102603
    Algorithm:                Core
    Integral Cache:           NONE
    Schwarz Cutoff:          1E-12
    Fitting Condition:       1E-10

   => Auxiliary Basis Set <=

  Basis Set: (AUG-CC-PV(D+D)Z AUX)
    Blend: AUG-CC-PVDZ-JKFIT
    Number of shells: 108
    Number of basis function: 342
    Number of Cartesian functions: 401
    Spherical Harmonics?: true
    Max angular momentum: 3

  Cached 100.0% of DFT collocation blocks in 0.384 [GiB].

  Minimum eigenvalue in the overlap matrix is 2.3467529424E-04.
  Using Symmetric Orthogonalization.

  SCF Guess: Orbitals guess was supplied from a previous computation.

  ==> Iterations <==

                           Total Energy        Delta E     RMS |[F,P]|

   @DF-RKS iter   0:  -834.45869310347746   -8.34459e+02   6.78865e-05 
   @DF-RKS iter   1:  -834.45750791800640    1.18519e-03   8.10981e-06 DIIS
   @DF-RKS iter   2:  -834.45750791516446    2.84194e-09   9.77243e-06 DIIS
   @DF-RKS iter   3:  -834.45750797096900   -5.58045e-08   9.88189e-07 DIIS
   @DF-RKS iter   4:  -834.45750797158632   -6.17320e-10   4.09603e-07 DIIS
   @DF-RKS iter   5:  -834.45750797172184   -1.35515e-10   4.54368e-08 DIIS
   @DF-RKS iter   6:  -834.45750797172627   -4.43379e-12   6.10972e-09 DIIS
  Energy and wave function converged.


  ==> Post-Iterations <==

    Orbital Energies [Eh]
    ---------------------

    Doubly Occupied:                                                      

       1B1u  -89.236847     1Ag   -89.236845     2Ag   -10.495111  
       2B1u   -8.158141     3Ag    -8.158100     3B1u   -6.067447  
       4Ag    -6.067447     1B2g   -6.062516     1B3g   -6.062516  
       1B3u   -6.062515     1B2u   -6.062515     5Ag    -0.989385  
       4B1u   -0.894394     6Ag    -0.619186     5B1u   -0.533967  
       2B2u   -0.497203     2B3u   -0.497203     2B3g   -0.360369  
       2B2g   -0.360369  

    Virtual:                                                              

       3B2u   -0.003894     3B3u   -0.003894     7Ag     0.038918  
       6B1u    0.045021     8Ag     0.074387     4B2u    0.087300  
       4B3u    0.087300     3B2g    0.108912     3B3g    0.108912  
       7B1u    0.124267     5B2u    0.152409     5B3u    0.152409  
       9Ag     0.159909     8B1u    0.240472    10Ag     0.259093  
       1B1g    0.259093    11Ag     0.261288     9B1u    0.278204  
       1Au     0.324957    10B1u    0.324957     4B3g    0.362440  
       4B2g    0.362440    12Ag     0.376743     6B2u    0.516068  
       6B3u    0.516068    13Ag     0.539119     2B1g    0.539121  
      14Ag     0.573023    11B1u    0.635811     7B2u    0.671489  
       7B3u    0.671489     5B3g    0.686826     5B2g    0.686826  
       6B2g    0.758627     6B3g    0.758627    12B1u    0.771260  
      15Ag     0.824763     8B2u    0.865956     8B3u    0.865956  
       3B1g    0.904028    16Ag     0.904031     2Au     0.925038  
      13B1u    0.925042    14B1u    0.965700    17Ag     0.967230  
       9B2u    0.994961     9B3u    0.994961     7B2g    1.104168  
       7B3g    1.104168    15B1u    1.280001    18Ag     1.407324  
       4B1g    1.502768    19Ag     1.502770    20Ag     1.775257  
       8B2g    1.791427     8B3g    1.791427    16B1u    1.905221  
      21Ag     2.730959    17B1u    4.669798     3Au     4.669809  
      22Ag     4.675640     5B1g    4.675651    10B3u    4.706006  
      10B2u    4.706006    23Ag     4.775857     9B2g    4.781865  
       9B3g    4.781865    18B1u    4.823145  

    Final Occupation by Irrep:
             Ag   B1g   B2g   B3g    Au   B1u   B2u   B3u 
    DOCC [     6,    0,    2,    2,    0,    5,    2,    2 ]

  @DF-RKS Final Energy:  -834.45750797172627

   => Energetics <=

    Nuclear Repulsion Energy =            108.7531769458747277
    One-Electron Energy =               -1366.3911815635783569
    Two-Electron Energy =                 466.4539131685642133
    DFT Exchange-Correlation Energy =     -43.4304482569270789
    Empirical Dispersion Energy =           0.0000000000000000
    VV10 Nonlocal Energy =                  0.1570317343402745
    Total Energy =                       -834.4575079717262724

Computation Completed


Properties will be evaluated at   0.000000,   0.000000,   0.000000 [a0]

Properties computed using the SCF density matrix

  Nuclear Dipole Moment: [e a0]
     X:     0.0000      Y:     0.0000      Z:     0.0000

  Electronic Dipole Moment: [e a0]
     X:     0.0000      Y:     0.0000      Z:     0.0000

  Dipole Moment: [e a0]
     X:     0.0000      Y:     0.0000      Z:     0.0000     Total:     0.0000

  Dipole Moment: [D]
     X:     0.0000      Y:     0.0000      Z:     0.0000     Total:     0.0000


*** tstop() called on bp1-compute00107.data.bp.acrc.priv at Tue Apr 27 17:57:28 2021
Module time:
	user time   =      46.10 seconds =       0.77 minutes
	system time =       1.50 seconds =       0.03 minutes
	total time  =          2 seconds =       0.03 minutes
Total time:
	user time   =     262.68 seconds =       4.38 minutes
	system time =      10.78 seconds =       0.18 minutes
	total time  =         12 seconds =       0.20 minutes

  //>>>>>>>>>>>>>>>>>>>>>>>>>>>>>>>>>>>//
  //    Loading displacement 2 of 3    //
  //<<<<<<<<<<<<<<<<<<<<<<<<<<<<<<<<<<<//

*** tstart() called on bp1-compute00107.data.bp.acrc.priv
*** at Tue Apr 27 17:57:28 2021

   => Loading Basis Set <=

    Name: AUG-CC-PV(D+D)Z
    Role: ORBITAL
    Keyword: BASIS
    atoms 1   entry C          line   198 file /work/zw18965/.conda/envs/p4env/share/psi4/basis/aug-cc-pv_dpd_z.gbs 
    atoms 2-3 entry S          line   724 file /work/zw18965/.conda/envs/p4env/share/psi4/basis/aug-cc-pv_dpd_z.gbs 


         ---------------------------------------------------------
                                   SCF
               by Justin Turney, Rob Parrish, Andy Simmonett
                          and Daniel G. A. Smith
                              RKS Reference
                       24 Threads, 137329 MiB Core
         ---------------------------------------------------------

  ==> Geometry <==

    Molecular point group: d2h
    Full point group: D_inf_h

    Geometry (in Angstrom), charge = 0, multiplicity = 1:

       Center              X                  Y                   Z               Mass       
    ------------   -----------------  -----------------  -----------------  -----------------
         C            0.000000000000     0.000000000000     0.000000000000    12.000000000000
         S            0.000000000000     0.000000000000     1.556742781205    31.972071174400
         S            0.000000000000     0.000000000000    -1.556742781205    31.972071174400

  Running in d2h symmetry.

  Rotational constants: A = ************  B =      0.10878  C =      0.10878 [cm^-1]
  Rotational constants: A = ************  B =   3261.23963  C =   3261.23963 [MHz]
  Nuclear repulsion =  108.776292049557924

  Charge       = 0
  Multiplicity = 1
  Electrons    = 38
  Nalpha       = 19
  Nbeta        = 19

  ==> Algorithm <==

  SCF Algorithm Type is DF.
  DIIS enabled.
  MOM disabled.
  Fractional occupation disabled.
  Guess Type is READ.
  Energy threshold   = 1.00e-08
  Density threshold  = 1.00e-08
  Integral threshold = 0.00e+00

  ==> Primary Basis <==

  Basis Set: AUG-CC-PV(D+D)Z
    Blend: AUG-CC-PV(D+D)Z
    Number of shells: 33
    Number of basis function: 87
    Number of Cartesian functions: 95
    Spherical Harmonics?: true
    Max angular momentum: 2

  ==> DFT Potential <==

   => Composite Functional: WB97M-V <= 

    wB97M-V Hyb-GGA Exchange-Correlation Functional

    N. Mardirossian and M. Head-Gordon, J. Chem. Phys. 144, 214110 (2016)

    Deriv               =              1
    GGA                 =           TRUE
    Meta                =           TRUE

    Exchange Hybrid     =           TRUE
    MP2 Hybrid          =          FALSE

   => Exchange-Correlation Functionals <=

    1.0000   wB97M-V exchange-correlation functional

   => Exact (HF) Exchange <=

    0.8500            HF,LR [omega = 0.3000]
    0.1500               HF 

   => VV10 Non-Local Parameters <=

    VV10 B              =     6.0000E+00
    VV10 C              =     1.0000E-02

   => Molecular Quadrature <=

    Radial Scheme          =       TREUTLER
    Pruning Scheme         =           FLAT
    Nuclear Scheme         =       TREUTLER

    BS radius alpha        =              1
    Pruning alpha          =              1
    Radial Points          =             75
    Spherical Points       =            302
    Total Points           =          67492
    Total Blocks           =            613
    Max Points             =            256
    Max Functions          =             87

   => Loading Basis Set <=

    Name: (AUG-CC-PV(D+D)Z AUX)
    Role: JKFIT
    Keyword: DF_BASIS_SCF
    atoms 1   entry C          line   154 file /work/zw18965/.conda/envs/p4env/share/psi4/basis/aug-cc-pvdz-jkfit.gbs 
    atoms 2-3 entry S          line   690 file /work/zw18965/.conda/envs/p4env/share/psi4/basis/aug-cc-pvdz-jkfit.gbs 

   => Loading Basis Set <=

    Name: AUG-CC-PV(D+D)Z
    Role: ORBITAL
    Keyword: BASIS
    atoms 1   entry C          line   198 file /work/zw18965/.conda/envs/p4env/share/psi4/basis/aug-cc-pv_dpd_z.gbs 
    atoms 2-3 entry S          line   724 file /work/zw18965/.conda/envs/p4env/share/psi4/basis/aug-cc-pv_dpd_z.gbs 

  Reading orbitals from file 180, no projection.

  ==> Pre-Iterations <==

   -------------------------------------------------------
    Irrep   Nso     Nmo     Nalpha   Nbeta   Ndocc  Nsocc
   -------------------------------------------------------
     Ag        23      23       0       0       0       0
     B1g        5       5       0       0       0       0
     B2g        9       9       0       0       0       0
     B3g        9       9       0       0       0       0
     Au         3       3       0       0       0       0
     B1u       18      18       0       0       0       0
     B2u       10      10       0       0       0       0
     B3u       10      10       0       0       0       0
   -------------------------------------------------------
    Total      87      87      19      19      19       0
   -------------------------------------------------------

  ==> Integral Setup <==

  ==> DiskDFJK: Density-Fitted J/K Matrices <==

    J tasked:                  Yes
    K tasked:                  Yes
    wK tasked:                 Yes
    Omega:               3.000E-01
    OpenMP threads:             24
    Integrals threads:          24
    Memory [MiB]:           102603
    Algorithm:                Core
    Integral Cache:           NONE
    Schwarz Cutoff:          1E-12
    Fitting Condition:       1E-10

   => Auxiliary Basis Set <=

  Basis Set: (AUG-CC-PV(D+D)Z AUX)
    Blend: AUG-CC-PVDZ-JKFIT
    Number of shells: 108
    Number of basis function: 342
    Number of Cartesian functions: 401
    Spherical Harmonics?: true
    Max angular momentum: 3

  Cached 100.0% of DFT collocation blocks in 0.384 [GiB].

  Minimum eigenvalue in the overlap matrix is 2.3439311461E-04.
  Using Symmetric Orthogonalization.

  SCF Guess: Orbitals guess was supplied from a previous computation.

  ==> Iterations <==

                           Total Energy        Delta E     RMS |[F,P]|

   @DF-RKS iter   0:  -834.45820817015294   -8.34458e+02   4.01289e-05 
   @DF-RKS iter   1:  -834.45750775020281    7.00420e-04   4.78313e-06 DIIS
   @DF-RKS iter   2:  -834.45750774924397    9.58835e-10   5.76109e-06 DIIS
   @DF-RKS iter   3:  -834.45750776863360   -1.93896e-08   5.82932e-07 DIIS
   @DF-RKS iter   4:  -834.45750776884870   -2.15095e-10   2.41840e-07 DIIS
   @DF-RKS iter   5:  -834.45750776889611   -4.74074e-11   2.68161e-08 DIIS
   @DF-RKS iter   6:  -834.45750776889759   -1.47793e-12   3.60417e-09 DIIS
  Energy and wave function converged.


  ==> Post-Iterations <==

    Orbital Energies [Eh]
    ---------------------

    Doubly Occupied:                                                      

       1B1u  -89.236793     1Ag   -89.236791     2Ag   -10.495007  
       2B1u   -8.158105     3Ag    -8.158063     3B1u   -6.067409  
       4Ag    -6.067409     1B3g   -6.062479     1B2g   -6.062479  
       1B2u   -6.062478     1B3u   -6.062478     5Ag    -0.989480  
       4B1u   -0.894454     6Ag    -0.619142     5B1u   -0.533981  
       2B2u   -0.497271     2B3u   -0.497271     2B3g   -0.360361  
       2B2g   -0.360361  

    Virtual:                                                              

       3B3u   -0.003836     3B2u   -0.003836     7Ag     0.038928  
       6B1u    0.045025     8Ag     0.074392     4B3u    0.087314  
       4B2u    0.087314     3B3g    0.108911     3B2g    0.108911  
       7B1u    0.124275     5B3u    0.152414     5B2u    0.152414  
       9Ag     0.160057     8B1u    0.240470    10Ag     0.259086  
       1B1g    0.259086    11Ag     0.261325     9B1u    0.278249  
       1Au     0.324976    10B1u    0.324976     4B3g    0.362490  
       4B2g    0.362490    12Ag     0.376732     6B2u    0.516158  
       6B3u    0.516158    13Ag     0.539175     2B1g    0.539177  
      14Ag     0.573122    11B1u    0.635870     7B3u    0.671475  
       7B2u    0.671475     5B3g    0.686741     5B2g    0.686741  
       6B3g    0.758719     6B2g    0.758719    12B1u    0.771254  
      15Ag     0.824758     8B3u    0.866020     8B2u    0.866020  
       3B1g    0.904009    16Ag     0.904012     2Au     0.925051  
      13B1u    0.925054    14B1u    0.965803    17Ag     0.967326  
       9B3u    0.995037     9B2u    0.995037     7B3g    1.104274  
       7B2g    1.104274    15B1u    1.280533    18Ag     1.407635  
       4B1g    1.502802    19Ag     1.502804    20Ag     1.775457  
       8B3g    1.791684     8B2g    1.791684    16B1u    1.905376  
      21Ag     2.731572    17B1u    4.669824     3Au     4.669835  
      22Ag     4.675674     5B1g    4.675685    10B3u    4.706076  
      10B2u    4.706076    23Ag     4.775914     9B2g    4.781948  
       9B3g    4.781948    18B1u    4.823177  

    Final Occupation by Irrep:
             Ag   B1g   B2g   B3g    Au   B1u   B2u   B3u 
    DOCC [     6,    0,    2,    2,    0,    5,    2,    2 ]

  @DF-RKS Final Energy:  -834.45750776889759

   => Energetics <=

    Nuclear Repulsion Energy =            108.7762920495579237
    One-Electron Energy =               -1366.4377444071221817
    Two-Electron Energy =                 466.4777057428881335
    DFT Exchange-Correlation Energy =     -43.4307923337110680
    Empirical Dispersion Energy =           0.0000000000000000
    VV10 Nonlocal Energy =                  0.1570311794895555
    Total Energy =                       -834.4575077688976990

Computation Completed


Properties will be evaluated at   0.000000,   0.000000,   0.000000 [a0]

Properties computed using the SCF density matrix

  Nuclear Dipole Moment: [e a0]
     X:     0.0000      Y:     0.0000      Z:     0.0000

  Electronic Dipole Moment: [e a0]
     X:     0.0000      Y:     0.0000      Z:     0.0000

  Dipole Moment: [e a0]
     X:     0.0000      Y:     0.0000      Z:     0.0000     Total:     0.0000

  Dipole Moment: [D]
     X:     0.0000      Y:     0.0000      Z:     0.0000     Total:     0.0000


*** tstop() called on bp1-compute00107.data.bp.acrc.priv at Tue Apr 27 17:57:30 2021
Module time:
	user time   =      50.01 seconds =       0.83 minutes
	system time =       1.80 seconds =       0.03 minutes
	total time  =          2 seconds =       0.03 minutes
Total time:
	user time   =     312.82 seconds =       5.21 minutes
	system time =      12.58 seconds =       0.21 minutes
	total time  =         14 seconds =       0.23 minutes

  //>>>>>>>>>>>>>>>>>>>>>>>>>>>>>>>>>>>//
  //    Loading displacement 3 of 3    //
  //<<<<<<<<<<<<<<<<<<<<<<<<<<<<<<<<<<<//

*** tstart() called on bp1-compute00107.data.bp.acrc.priv
*** at Tue Apr 27 17:57:30 2021

   => Loading Basis Set <=

    Name: AUG-CC-PV(D+D)Z
    Role: ORBITAL
    Keyword: BASIS
    atoms 1   entry C          line   198 file /work/zw18965/.conda/envs/p4env/share/psi4/basis/aug-cc-pv_dpd_z.gbs 
    atoms 2-3 entry S          line   724 file /work/zw18965/.conda/envs/p4env/share/psi4/basis/aug-cc-pv_dpd_z.gbs 


         ---------------------------------------------------------
                                   SCF
               by Justin Turney, Rob Parrish, Andy Simmonett
                          and Daniel G. A. Smith
                              RKS Reference
                       24 Threads, 137329 MiB Core
         ---------------------------------------------------------

  ==> Geometry <==

    Molecular point group: d2h
    Full point group: D_inf_h

    Geometry (in Angstrom), charge = 0, multiplicity = 1:

       Center              X                  Y                   Z               Mass       
    ------------   -----------------  -----------------  -----------------  -----------------
         C            0.000000000000     0.000000000000     0.000000000000    12.000000000000
         S            0.000000000000     0.000000000000     1.557404541566    31.972071174400
         S            0.000000000000     0.000000000000    -1.557404541566    31.972071174400

  Running in d2h symmetry.

  Rotational constants: A = ************  B =      0.10869  C =      0.10869 [cm^-1]
  Rotational constants: A = ************  B =   3258.46874  C =   3258.46874 [MHz]
  Nuclear repulsion =  108.730071664083738

  Charge       = 0
  Multiplicity = 1
  Electrons    = 38
  Nalpha       = 19
  Nbeta        = 19

  ==> Algorithm <==

  SCF Algorithm Type is DF.
  DIIS enabled.
  MOM disabled.
  Fractional occupation disabled.
  Guess Type is READ.
  Energy threshold   = 1.00e-08
  Density threshold  = 1.00e-08
  Integral threshold = 0.00e+00

  ==> Primary Basis <==

  Basis Set: AUG-CC-PV(D+D)Z
    Blend: AUG-CC-PV(D+D)Z
    Number of shells: 33
    Number of basis function: 87
    Number of Cartesian functions: 95
    Spherical Harmonics?: true
    Max angular momentum: 2

  ==> DFT Potential <==

   => Composite Functional: WB97M-V <= 

    wB97M-V Hyb-GGA Exchange-Correlation Functional

    N. Mardirossian and M. Head-Gordon, J. Chem. Phys. 144, 214110 (2016)

    Deriv               =              1
    GGA                 =           TRUE
    Meta                =           TRUE

    Exchange Hybrid     =           TRUE
    MP2 Hybrid          =          FALSE

   => Exchange-Correlation Functionals <=

    1.0000   wB97M-V exchange-correlation functional

   => Exact (HF) Exchange <=

    0.8500            HF,LR [omega = 0.3000]
    0.1500               HF 

   => VV10 Non-Local Parameters <=

    VV10 B              =     6.0000E+00
    VV10 C              =     1.0000E-02

   => Molecular Quadrature <=

    Radial Scheme          =       TREUTLER
    Pruning Scheme         =           FLAT
    Nuclear Scheme         =       TREUTLER

    BS radius alpha        =              1
    Pruning alpha          =              1
    Radial Points          =             75
    Spherical Points       =            302
    Total Points           =          67492
    Total Blocks           =            613
    Max Points             =            256
    Max Functions          =             87

   => Loading Basis Set <=

    Name: (AUG-CC-PV(D+D)Z AUX)
    Role: JKFIT
    Keyword: DF_BASIS_SCF
    atoms 1   entry C          line   154 file /work/zw18965/.conda/envs/p4env/share/psi4/basis/aug-cc-pvdz-jkfit.gbs 
    atoms 2-3 entry S          line   690 file /work/zw18965/.conda/envs/p4env/share/psi4/basis/aug-cc-pvdz-jkfit.gbs 

   => Loading Basis Set <=

    Name: AUG-CC-PV(D+D)Z
    Role: ORBITAL
    Keyword: BASIS
    atoms 1   entry C          line   198 file /work/zw18965/.conda/envs/p4env/share/psi4/basis/aug-cc-pv_dpd_z.gbs 
    atoms 2-3 entry S          line   724 file /work/zw18965/.conda/envs/p4env/share/psi4/basis/aug-cc-pv_dpd_z.gbs 

  Reading orbitals from file 180, no projection.

  ==> Pre-Iterations <==

   -------------------------------------------------------
    Irrep   Nso     Nmo     Nalpha   Nbeta   Ndocc  Nsocc
   -------------------------------------------------------
     Ag        23      23       0       0       0       0
     B1g        5       5       0       0       0       0
     B2g        9       9       0       0       0       0
     B3g        9       9       0       0       0       0
     Au         3       3       0       0       0       0
     B1u       18      18       0       0       0       0
     B2u       10      10       0       0       0       0
     B3u       10      10       0       0       0       0
   -------------------------------------------------------
    Total      87      87      19      19      19       0
   -------------------------------------------------------

  ==> Integral Setup <==

  ==> DiskDFJK: Density-Fitted J/K Matrices <==

    J tasked:                  Yes
    K tasked:                  Yes
    wK tasked:                 Yes
    Omega:               3.000E-01
    OpenMP threads:             24
    Integrals threads:          24
    Memory [MiB]:           102603
    Algorithm:                Core
    Integral Cache:           NONE
    Schwarz Cutoff:          1E-12
    Fitting Condition:       1E-10

   => Auxiliary Basis Set <=

  Basis Set: (AUG-CC-PV(D+D)Z AUX)
    Blend: AUG-CC-PVDZ-JKFIT
    Number of shells: 108
    Number of basis function: 342
    Number of Cartesian functions: 401
    Spherical Harmonics?: true
    Max angular momentum: 3

  Cached 100.0% of DFT collocation blocks in 0.384 [GiB].

  Minimum eigenvalue in the overlap matrix is 2.3495798194E-04.
  Using Symmetric Orthogonalization.

  SCF Guess: Orbitals guess was supplied from a previous computation.

  ==> Iterations <==

                           Total Energy        Delta E     RMS |[F,P]|

   @DF-RKS iter   0:  -834.45680755930607   -8.34457e+02   4.01023e-05 
   @DF-RKS iter   1:  -834.45750769318624   -7.00134e-04   4.78565e-06 DIIS
   @DF-RKS iter   2:  -834.45750769220342    9.82823e-10   5.76627e-06 DIIS
   @DF-RKS iter   3:  -834.45750771163443   -1.94310e-08   5.83985e-07 DIIS
   @DF-RKS iter   4:  -834.45750771185033   -2.15891e-10   2.41994e-07 DIIS
   @DF-RKS iter   5:  -834.45750771189751   -4.71800e-11   2.68541e-08 DIIS
   @DF-RKS iter   6:  -834.45750771189944   -1.93268e-12   3.61098e-09 DIIS
  Energy and wave function converged.


  ==> Post-Iterations <==

    Orbital Energies [Eh]
    ---------------------

    Doubly Occupied:                                                      

       1B1u  -89.236901     1Ag   -89.236899     2Ag   -10.495215  
       2B1u   -8.158178     3Ag    -8.158136     3B1u   -6.067486  
       4Ag    -6.067486     1B2g   -6.062553     1B3g   -6.062553  
       1B3u   -6.062552     1B2u   -6.062552     5Ag    -0.989291  
       4B1u   -0.894334     6Ag    -0.619230     5B1u   -0.533953  
       2B2u   -0.497135     2B3u   -0.497135     2B3g   -0.360377  
       2B2g   -0.360377  

    Virtual:                                                              

       3B3u   -0.003952     3B2u   -0.003952     7Ag     0.038908  
       6B1u    0.045017     8Ag     0.074383     4B2u    0.087287  
       4B3u    0.087287     3B3g    0.108912     3B2g    0.108912  
       7B1u    0.124259     5B2u    0.152404     5B3u    0.152404  
       9Ag     0.159760     8B1u    0.240473    10Ag     0.259101  
       1B1g    0.259101    11Ag     0.261252     9B1u    0.278158  
       1Au     0.324938    10B1u    0.324938     4B2g    0.362390  
       4B3g    0.362390    12Ag     0.376754     6B2u    0.515978  
       6B3u    0.515978    13Ag     0.539062     2B1g    0.539064  
      14Ag     0.572924    11B1u    0.635752     7B2u    0.671504  
       7B3u    0.671504     5B2g    0.686911     5B3g    0.686911  
       6B3g    0.758534     6B2g    0.758534    12B1u    0.771267  
      15Ag     0.824769     8B2u    0.865892     8B3u    0.865892  
       3B1g    0.904047    16Ag     0.904050     2Au     0.925026  
      13B1u    0.925029    14B1u    0.965598    17Ag     0.967133  
       9B3u    0.994885     9B2u    0.994885     7B3g    1.104062  
       7B2g    1.104062    15B1u    1.279470    18Ag     1.407013  
       4B1g    1.502734    19Ag     1.502736    20Ag     1.775057  
       8B2g    1.791170     8B3g    1.791170    16B1u    1.905065  
      21Ag     2.730345    17B1u    4.669772     3Au     4.669783  
      22Ag     4.675606     5B1g    4.675617    10B3u    4.705937  
      10B2u    4.705937    23Ag     4.775801     9B2g    4.781781  
       9B3g    4.781781    18B1u    4.823113  

    Final Occupation by Irrep:
             Ag   B1g   B2g   B3g    Au   B1u   B2u   B3u 
    DOCC [     6,    0,    2,    2,    0,    5,    2,    2 ]

  @DF-RKS Final Energy:  -834.45750771189944

   => Energetics <=

    Nuclear Repulsion Energy =            108.7300716640837379
    One-Electron Energy =               -1366.3446392511982594
    Two-Electron Energy =                 466.4301320824786217
    DFT Exchange-Correlation Energy =     -43.4301044967127297
    Empirical Dispersion Energy =           0.0000000000000000
    VV10 Nonlocal Energy =                  0.1570322894492346
    Total Energy =                       -834.4575077118994386

Computation Completed


Properties will be evaluated at   0.000000,   0.000000,   0.000000 [a0]

Properties computed using the SCF density matrix

  Nuclear Dipole Moment: [e a0]
     X:     0.0000      Y:     0.0000      Z:     0.0000

  Electronic Dipole Moment: [e a0]
     X:     0.0000      Y:     0.0000      Z:     0.0000

  Dipole Moment: [e a0]
     X:     0.0000      Y:     0.0000      Z:     0.0000     Total:     0.0000

  Dipole Moment: [D]
     X:     0.0000      Y:     0.0000      Z:     0.0000     Total:     0.0000


*** tstop() called on bp1-compute00107.data.bp.acrc.priv at Tue Apr 27 17:57:32 2021
Module time:
	user time   =      45.82 seconds =       0.76 minutes
	system time =       1.36 seconds =       0.02 minutes
	total time  =          2 seconds =       0.03 minutes
Total time:
	user time   =     358.77 seconds =       5.98 minutes
	system time =      13.95 seconds =       0.23 minutes
	total time  =         16 seconds =       0.27 minutes

         ----------------------------------------------------------
                                   FINDIF
                     R. A. King and Jonathon Misiewicz
         ---------------------------------------------------------

  Computing gradient from energies.
    Using 3-point formula.
    Energy without displacement: -834.4575079717
    Check energies below for precision!
    Forces are for mass-weighted, symmetry-adapted cartesians (in au).

     Coord      Energy(-1)        Energy(+1)            Force
        0   -834.4575077689   -834.4575077119      0.0000056998


-------------------------------------------------------------
  ## New Matrix (Symmetry 0) ##
  Irrep: 1 Size: 3 x 3

                 1                   2                   3

    1     0.00000000000000     0.00000000000000     0.00000000000000
    2     0.00000000000000     0.00000000000000     0.00002278930717
    3     0.00000000000000     0.00000000000000    -0.00002278930717




			-----------------------------------------
			 OPTKING 2.0: for geometry optimizations 
			  - R.A. King,  Bethel University        
			-----------------------------------------
	At level 1: Red. Int., RFO, no backsteps, dynamic trust

	Previous internal coordinate definitions found.
	---Fragment 1 Geometry and Gradient---
	 C           0.0000000000        0.0000000000        0.0000000000
	 S           0.0000000000        0.0000000000        2.9424427772
	 S           0.0000000000        0.0000000000       -2.9424427772
	             0.0000000000        0.0000000000        0.0000000000
	             0.0000000000        0.0000000000        0.0000227893
	             0.0000000000        0.0000000000       -0.0000227893

	---Fragment 1 Intrafragment Coordinates---
	 - Coordinate -           - BOHR/RAD -       - ANG/DEG -
	 R(1,2)           =         2.942443	       1.557074
	 R(1,3)           =         2.942443	       1.557074
	 L(2,1,3)         =         3.141593	     180.000000
	 l(2,1,3)         =         3.141593	     180.000000

	Current energy   :      -834.4575079717

	Energy change for the previous step:
		Projected    :        -0.0000013525
		Actual       :        -0.0000007039

	Performing BFGS update.
	Previous computed or guess Hessian on step 1.
	Steps to be used in Hessian update: 1
	Taking RFO optimization step.
	Going to follow RFO solution 1.
	Using RFO vector 1.
	Norm of target step-size    0.00006
	Projected energy change by RFO approximation:        -0.0000000018

	Back-transformation to cartesian coordinates...
	Successfully converged to displaced geometry.

	--- Internal Coordinate Step in ANG or DEG, aJ/ANG or AJ/DEG ---
	 ---------------------------------------------------------------------------
	   Coordinate                Previous        Force       Change         New 
	   ----------                --------       ------       ------       ------
	    1 R(1,2)          =      1.557074    -0.000188    -0.000021     1.557053
	    2 R(1,3)          =      1.557074    -0.000188    -0.000021     1.557053
	    3 L(2,1,3)        =    180.000000     0.000000     0.000000   180.000000
	    4 l(2,1,3)        =    180.000000     0.000000     0.000000   180.000000
	 ---------------------------------------------------------------------------
	Successfully symmetrized geometry.

  ==> Convergence Check <==

  Measures of convergence in internal coordinates in au.
  Criteria marked as inactive (o), active & met (*), and active & unmet ( ).
  ---------------------------------------------------------------------------------------------
   Step     Total Energy     Delta E     MAX Force     RMS Force      MAX Disp      RMS Disp   
  ---------------------------------------------------------------------------------------------
    Convergence Criteria    1.00e-06 *    3.00e-04 *             o    1.20e-03 *             o
  ---------------------------------------------------------------------------------------------
      2    -834.45750797   -7.04e-07 *    2.28e-05 *    1.61e-05 o    3.91e-05 *    2.77e-05 o  ~
  ---------------------------------------------------------------------------------------------


  **** Optimization is complete! (in 2 steps) ****

  ==> Optimization Summary <==

  Measures of convergence in internal coordinates in au.
  --------------------------------------------------------------------------------------------------------------- ~
   Step         Total Energy             Delta E       MAX Force       RMS Force        MAX Disp        RMS Disp  ~
  --------------------------------------------------------------------------------------------------------------- ~
      1    -834.457507267782   -834.457507267782      0.00063893      0.00045179      0.00105840      0.00074840  ~
      2    -834.457507971726     -0.000000703944      0.00002279      0.00001611      0.00003915      0.00002768  ~
  --------------------------------------------------------------------------------------------------------------- ~

	Writing optimization data to binary file.
	Final energy is   -834.4575079717263
	Final (previous) structure:
	Cartesian Geometry (in Angstrom)
	    C     0.0000000000   0.0000000000   0.0000000000
	    S     0.0000000000   0.0000000000   1.5570736553
	    S     0.0000000000   0.0000000000  -1.5570736553
	Saving final (previous) structure.
			--------------------------
			 OPTKING Finished Execution 
			--------------------------

    Final optimized geometry and variables:
    Molecular point group: d2h
    Full point group: D_inf_h

    Geometry (in Angstrom), charge = 0, multiplicity = 1:

    C            0.000000000000     0.000000000000     0.000000000000
    S            0.000000000000     0.000000000000     1.557073661385
    S            0.000000000000     0.000000000000    -1.557073661385

	Removing binary optimization data file.
	Cleaning optimization helper files.
gradient() will perform gradient computation by finite difference of analytic energies.

         ----------------------------------------------------------
                                   FINDIF
                     R. A. King and Jonathon Misiewicz
         ---------------------------------------------------------

  Using finite-differences of energies to determine gradients.
    Generating geometries for use with 3-point formula.
    Displacement size will be 5.00e-03.
    Number of atoms is 3.
    Number of symmetric SALCs is 1.
    Translations projected? 1. Rotations projected? 1.
    Number of geometries (including reference) is 3.

  //>>>>>>>>>>>>>>>>>>>>>>>>>>>>>>>>>>>//
  //    Loading displacement 1 of 3    //
  //<<<<<<<<<<<<<<<<<<<<<<<<<<<<<<<<<<<//

*** tstart() called on bp1-compute00107.data.bp.acrc.priv
*** at Tue Apr 27 17:57:32 2021

   => Loading Basis Set <=

    Name: AUG-CC-PV(D+D)Z
    Role: ORBITAL
    Keyword: BASIS
    atoms 1   entry C          line   198 file /work/zw18965/.conda/envs/p4env/share/psi4/basis/aug-cc-pv_dpd_z.gbs 
    atoms 2-3 entry S          line   724 file /work/zw18965/.conda/envs/p4env/share/psi4/basis/aug-cc-pv_dpd_z.gbs 


         ---------------------------------------------------------
                                   SCF
               by Justin Turney, Rob Parrish, Andy Simmonett
                          and Daniel G. A. Smith
                              RKS Reference
                       24 Threads, 137329 MiB Core
         ---------------------------------------------------------

  ==> Geometry <==

    Molecular point group: d2h
    Full point group: D_inf_h

    Geometry (in Angstrom), charge = 0, multiplicity = 1:

       Center              X                  Y                   Z               Mass       
    ------------   -----------------  -----------------  -----------------  -----------------
         C            0.000000000000     0.000000000000     0.000000000000    12.000000000000
         S            0.000000000000     0.000000000000     1.557073661385    31.972071174400
         S            0.000000000000     0.000000000000    -1.557073661385    31.972071174400

  Running in d2h symmetry.

  Rotational constants: A = ************  B =      0.10874  C =      0.10874 [cm^-1]
  Rotational constants: A = ************  B =   3259.85374  C =   3259.85374 [MHz]
  Nuclear repulsion =  108.753176945874728

  Charge       = 0
  Multiplicity = 1
  Electrons    = 38
  Nalpha       = 19
  Nbeta        = 19

  ==> Algorithm <==

  SCF Algorithm Type is DF.
  DIIS enabled.
  MOM disabled.
  Fractional occupation disabled.
  Guess Type is SAD.
  Energy threshold   = 1.00e-08
  Density threshold  = 1.00e-08
  Integral threshold = 0.00e+00

  ==> Primary Basis <==

[...]
    Two-Electron Energy =                 466.4539044879571179
    DFT Exchange-Correlation Energy =     -43.4304480825986801
    Empirical Dispersion Energy =           0.0000000000000000
    VV10 Nonlocal Energy =                  0.1570317342544632
    Total Energy =                       -834.4575078879076955

Computation Completed


Properties will be evaluated at   0.000000,   0.000000,   0.000000 [a0]

Properties computed using the SCF density matrix

  Nuclear Dipole Moment: [e a0]
     X:     0.0000      Y:     0.0000      Z:     0.0000

  Electronic Dipole Moment: [e a0]
     X:     0.0000      Y:     0.0003      Z:     0.0000

  Dipole Moment: [e a0]
     X:     0.0000      Y:     0.0003      Z:     0.0000     Total:     0.0003

  Dipole Moment: [D]
     X:     0.0000      Y:     0.0007      Z:     0.0000     Total:     0.0007


*** tstop() called on bp1-compute00107.data.bp.acrc.priv at Tue Apr 27 17:57:58 2021
Module time:
	user time   =      73.80 seconds =       1.23 minutes
	system time =       2.02 seconds =       0.03 minutes
	total time  =          4 seconds =       0.07 minutes
Total time:
	user time   =     933.17 seconds =      15.55 minutes
	system time =      30.64 seconds =       0.51 minutes
	total time  =         42 seconds =       0.70 minutes

  //>>>>>>>>>>>>>>>>>>>>>>>>>>>>>>>>>>>//
  //    Loading displacement 6 of 6    //
  //<<<<<<<<<<<<<<<<<<<<<<<<<<<<<<<<<<<//

*** tstart() called on bp1-compute00107.data.bp.acrc.priv
*** at Tue Apr 27 17:57:58 2021

   => Loading Basis Set <=

    Name: AUG-CC-PV(D+D)Z
    Role: ORBITAL
    Keyword: BASIS
    atoms 1   entry C          line   198 file /work/zw18965/.conda/envs/p4env/share/psi4/basis/aug-cc-pv_dpd_z.gbs 
    atoms 2-3 entry S          line   724 file /work/zw18965/.conda/envs/p4env/share/psi4/basis/aug-cc-pv_dpd_z.gbs 


         ---------------------------------------------------------
                                   SCF
               by Justin Turney, Rob Parrish, Andy Simmonett
                          and Daniel G. A. Smith
                              RKS Reference
                       24 Threads, 137329 MiB Core
         ---------------------------------------------------------

  ==> Geometry <==

    Molecular point group: c2v
    Full point group: C2v

    Geometry (in Angstrom), charge = 0, multiplicity = 1:

       Center              X                  Y                   Z               Mass       
    ------------   -----------------  -----------------  -----------------  -----------------
         C           -0.000700864006     0.000000000000     0.000000000000    12.000000000000
         S            0.000131526794     0.000000000000     1.557073661385    31.972071174400
         S            0.000131526794     0.000000000000    -1.557073661385    31.972071174400

  Running in c2v symmetry.

  Rotational constants: A = 2407987.46702  B =      0.10874  C =      0.10874 [cm^-1]
  Rotational constants: A = 72189648157.17372  B =   3259.85374  C =   3259.85360 [MHz]
  Nuclear repulsion =  108.753167621937507

  Charge       = 0
  Multiplicity = 1
  Electrons    = 38
  Nalpha       = 19
  Nbeta        = 19

  ==> Algorithm <==

  SCF Algorithm Type is DF.
  DIIS enabled.
  MOM disabled.
  Fractional occupation disabled.
  Guess Type is SAD.
  Energy threshold   = 1.00e-10
  Density threshold  = 1.00e-10
  Integral threshold = 0.00e+00

  ==> Primary Basis <==

  Basis Set: AUG-CC-PV(D+D)Z
    Blend: AUG-CC-PV(D+D)Z
    Number of shells: 33
    Number of basis function: 87
    Number of Cartesian functions: 95
    Spherical Harmonics?: true
    Max angular momentum: 2

  ==> DFT Potential <==

   => Composite Functional: WB97M-V <= 

    wB97M-V Hyb-GGA Exchange-Correlation Functional

    N. Mardirossian and M. Head-Gordon, J. Chem. Phys. 144, 214110 (2016)

    Deriv               =              1
    GGA                 =           TRUE
    Meta                =           TRUE

    Exchange Hybrid     =           TRUE
    MP2 Hybrid          =          FALSE

   => Exchange-Correlation Functionals <=

    1.0000   wB97M-V exchange-correlation functional

   => Exact (HF) Exchange <=

    0.8500            HF,LR [omega = 0.3000]
    0.1500               HF 

   => VV10 Non-Local Parameters <=

    VV10 B              =     6.0000E+00
    VV10 C              =     1.0000E-02

   => Molecular Quadrature <=

    Radial Scheme          =       TREUTLER
    Pruning Scheme         =           FLAT
    Nuclear Scheme         =       TREUTLER

    BS radius alpha        =              1
    Pruning alpha          =              1
    Radial Points          =             75
    Spherical Points       =            302
    Total Points           =          67492
    Total Blocks           =            611
    Max Points             =            256
    Max Functions          =             87

   => Loading Basis Set <=

    Name: (AUG-CC-PV(D+D)Z AUX)
    Role: JKFIT
    Keyword: DF_BASIS_SCF
    atoms 1   entry C          line   154 file /work/zw18965/.conda/envs/p4env/share/psi4/basis/aug-cc-pvdz-jkfit.gbs 
    atoms 2-3 entry S          line   690 file /work/zw18965/.conda/envs/p4env/share/psi4/basis/aug-cc-pvdz-jkfit.gbs 

  ==> Pre-Iterations <==

   -------------------------------------------------------
    Irrep   Nso     Nmo     Nalpha   Nbeta   Ndocc  Nsocc
   -------------------------------------------------------
     A1        33      33       0       0       0       0
     A2        12      12       0       0       0       0
     B1        15      15       0       0       0       0
     B2        27      27       0       0       0       0
   -------------------------------------------------------
    Total      87      87      19      19      19       0
   -------------------------------------------------------

  ==> Integral Setup <==

  ==> DiskDFJK: Density-Fitted J/K Matrices <==

    J tasked:                  Yes
    K tasked:                  Yes
    wK tasked:                 Yes
    Omega:               3.000E-01
    OpenMP threads:             24
    Integrals threads:          24
    Memory [MiB]:           102603
    Algorithm:                Core
    Integral Cache:           NONE
    Schwarz Cutoff:          1E-12
    Fitting Condition:       1E-10

   => Auxiliary Basis Set <=

  Basis Set: (AUG-CC-PV(D+D)Z AUX)
    Blend: AUG-CC-PVDZ-JKFIT
    Number of shells: 108
    Number of basis function: 342
    Number of Cartesian functions: 401
    Spherical Harmonics?: true
    Max angular momentum: 3

  Cached 100.0% of DFT collocation blocks in 0.384 [GiB].

  Minimum eigenvalue in the overlap matrix is 2.3467546669E-04.
  Using Symmetric Orthogonalization.

  SCF Guess: Superposition of Atomic Densities via on-the-fly atomic UHF.

  ==> Iterations <==

                           Total Energy        Delta E     RMS |[F,P]|

   @DF-RKS iter SAD:  -834.08372635464809   -8.34084e+02   0.00000e+00 
   @DF-RKS iter   1:  -834.43483468424313   -3.51108e-01   4.12413e-03 DIIS
   @DF-RKS iter   2:  -834.44992017922755   -1.50855e-02   2.59633e-03 DIIS
   @DF-RKS iter   3:  -834.45597456687403   -6.05439e-03   1.12954e-03 DIIS
   @DF-RKS iter   4:  -834.45743661863742   -1.46205e-03   1.96819e-04 DIIS
   @DF-RKS iter   5:  -834.45750554275901   -6.89241e-05   3.58599e-05 DIIS
   @DF-RKS iter   6:  -834.45750763433978   -2.09158e-06   1.24312e-05 DIIS
   @DF-RKS iter   7:  -834.45750788959515   -2.55255e-07   8.94473e-07 DIIS
   @DF-RKS iter   8:  -834.45750789153817   -1.94302e-09   1.11537e-07 DIIS
   @DF-RKS iter   9:  -834.45750789156284   -2.46700e-11   1.44849e-08 DIIS
   @DF-RKS iter  10:  -834.45750789156318   -3.41061e-13   5.25997e-09 DIIS
   @DF-RKS iter  11:  -834.45750789156398   -7.95808e-13   4.61812e-10 DIIS
   @DF-RKS iter  12:  -834.45750789156341    5.68434e-13   3.74680e-11 DIIS
  Energy and wave function converged.


  ==> Post-Iterations <==

    Orbital Energies [Eh]
    ---------------------

    Doubly Occupied:                                                      

       1B2   -89.236847     1A1   -89.236845     2A1   -10.495111  
       2B2    -8.158141     3A1    -8.158100     3B2    -6.067447  
       4A1    -6.067447     1A2    -6.062516     4B2    -6.062516  
       1B1    -6.062515     5A1    -6.062515     6A1    -0.989385  
       5B2    -0.894394     7A1    -0.619186     6B2    -0.533967  
       8A1    -0.497203     2B1    -0.497203     2A2    -0.360369  
       7B2    -0.360369  

    Virtual:                                                              

       9A1    -0.003894     3B1    -0.003894    10A1     0.038918  
       8B2     0.045021    11A1     0.074387     4B1     0.087300  
      12A1     0.087300     9B2     0.108912     3A2     0.108912  
      10B2     0.124267    13A1     0.152409     5B1     0.152409  
      14A1     0.159909    11B2     0.240472    15A1     0.259093  
       6B1     0.259093    16A1     0.261288    12B2     0.278203  
       4A2     0.324957    13B2     0.324957     5A2     0.362440  
      14B2     0.362440    17A1     0.376743    18A1     0.516068  
       7B1     0.516068    19A1     0.539119     8B1     0.539121  
      20A1     0.573023    15B2     0.635811    21A1     0.671489  
       9B1     0.671489    16B2     0.686826     6A2     0.686826  
      17B2     0.758624     7A2     0.758626    18B2     0.771263  
      22A1     0.824763    10B1     0.865956    23A1     0.865956  
      11B1     0.904028    24A1     0.904031     8A2     0.925038  
      19B2     0.925042    20B2     0.965699    25A1     0.967230  
      26A1     0.994961    12B1     0.994961     9A2     1.104167  
      21B2     1.104169    22B2     1.280000    27A1     1.407324  
      13B1     1.502768    28A1     1.502770    29A1     1.775257  
      23B2     1.791426    10A2     1.791426    24B2     1.905220  
      30A1     2.730957    25B2     4.669798    11A2     4.669809  
      31A1     4.675640    14B1     4.675651    15B1     4.706006  
      32A1     4.706007    33A1     4.775857    26B2     4.781865  
      12A2     4.781865    27B2     4.823145  

    Final Occupation by Irrep:
             A1    A2    B1    B2 
    DOCC [     8,    2,    2,    7 ]

  @DF-RKS Final Energy:  -834.45750789156341

   => Energetics <=

    Nuclear Repulsion Energy =            108.7531676219375072
    One-Electron Energy =               -1366.3911636507655203
    Two-Electron Energy =                 466.4539044857176577
    DFT Exchange-Correlation Energy =     -43.4304480827078976
    Empirical Dispersion Energy =           0.0000000000000000
    VV10 Nonlocal Energy =                  0.1570317342547856
    Total Energy =                       -834.4575078915634094

Computation Completed


Properties will be evaluated at   0.000000,   0.000000,   0.000000 [a0]

Properties computed using the SCF density matrix

  Nuclear Dipole Moment: [e a0]
     X:     0.0000      Y:     0.0000      Z:     0.0000

  Electronic Dipole Moment: [e a0]
     X:     0.0003      Y:     0.0000      Z:     0.0000

  Dipole Moment: [e a0]
     X:     0.0003      Y:     0.0000      Z:     0.0000     Total:     0.0003

  Dipole Moment: [D]
     X:     0.0007      Y:     0.0000      Z:     0.0000     Total:     0.0007


*** tstop() called on bp1-compute00107.data.bp.acrc.priv at Tue Apr 27 17:58:01 2021
Module time:
	user time   =      73.14 seconds =       1.22 minutes
	system time =       1.94 seconds =       0.03 minutes
	total time  =          3 seconds =       0.05 minutes
Total time:
	user time   =    1006.44 seconds =      16.77 minutes
	system time =      32.59 seconds =       0.54 minutes
	total time  =         45 seconds =       0.75 minutes

         ----------------------------------------------------------
                                   FINDIF
                     R. A. King and Jonathon Misiewicz
         ---------------------------------------------------------

  Computing second-derivative from energies using projected, 
  symmetry-adapted, cartesian coordinates.

  6 energies passed in, including the reference geometry.
    Using 3-point formula.
    Energy without displacement: -834.4575079717
    Check energies below for precision!
    0: -1 :      -834.4575077679
    0: 1  :      -834.4575077119
    1: -1 :      -834.4575067968
    2: -1 :      -834.4575078879
    3: -1 :      -834.4575078916

-------------------------------------------------------------


  ==> Harmonic Vibrational Analysis <==

  non-mass-weighted Hessian:       Symmetric? True   Hermitian? True   Lin Dep Dim?  5 (0)
  projection of translations (True) and rotations (True) removed 5 degrees of freedom (5)
  total projector:                 Symmetric? True   Hermitian? True   Lin Dep Dim?  5 (5)
  mass-weighted Hessian:           Symmetric? True   Hermitian? True   Lin Dep Dim?  5 (0)
  pre-proj  low-frequency mode:    0.0000i [cm^-1]
  pre-proj  low-frequency mode:    0.0000i [cm^-1]
  pre-proj  low-frequency mode:    0.0000i [cm^-1]
  pre-proj  low-frequency mode:    0.0000i [cm^-1]
  pre-proj  low-frequency mode:    0.0000  [cm^-1]
  pre-proj  all modes:['0.0000i' '0.0000i' '0.0000i' '0.0000i' '0.0000' '411.6553' '420.9372'
 '700.0397' '1575.9696']
  projected mass-weighted Hessian: Symmetric? True   Hermitian? True   Lin Dep Dim?  5 (5)
  post-proj low-frequency mode:    0.0000i [cm^-1] (TR)
  post-proj low-frequency mode:    0.0000  [cm^-1] (TR)
  post-proj low-frequency mode:    0.0000  [cm^-1] (TR)
  post-proj low-frequency mode:    0.0000  [cm^-1] (TR)
  post-proj low-frequency mode:    0.0000  [cm^-1] (TR)
  post-proj  all modes:['0.0000i' '0.0000' '0.0000' '0.0000' '0.0000' '411.6553' '420.9372'
 '700.0397' '1575.9696']

  Vibration                       6                   7                   8           
  Freq [cm^-1]                 411.6553            420.9372            700.0397       
  Irrep                          B3u                 B2u                  Ag          
  Reduced mass [u]             13.3142             13.3142             31.9721        
  Force const [mDyne/A]         1.3293              1.3900              9.2314        
  Turning point v=0 [a0]        0.1482              0.1466              0.0733        
  RMS dev v=0 [a0 u^1/2]        0.3824              0.3782              0.2932        
  Char temp [K]                592.2803            605.6350           1007.2013       
  ----------------------------------------------------------------------------------
      1   C                0.97 -0.00  0.00    0.00  0.97  0.00    0.00 -0.00  0.00   
      2   S               -0.18  0.00  0.00    0.00 -0.18 -0.00   -0.00 -0.00  0.71   
      3   S               -0.18 -0.00  0.00    0.00 -0.18 -0.00    0.00 -0.00 -0.71   

  Vibration                       9           
  Freq [cm^-1]                1575.9696       
  Irrep                          B1u          
  Reduced mass [u]             13.3142        
  Force const [mDyne/A]        19.4832        
  Turning point v=0 [a0]        0.0757        
  RMS dev v=0 [a0 u^1/2]        0.1954        
  Char temp [K]               2267.4694       
  ----------------------------------------------------------------------------------
      1   C                0.00  0.00  0.97   
      2   S               -0.00 -0.00 -0.18   
      3   S               -0.00 -0.00 -0.18   

  ==> Thermochemistry Components <==

  Entropy, S
    Electronic S            0.000 [cal/(mol K)]        0.000 [J/(mol K)]       0.00000000 [mEh/K] (multiplicity = 1)
    Translational S        38.898 [cal/(mol K)]      162.748 [J/(mol K)]       0.06198752 [mEh/K] (mol. weight = 75.9441 [u], P = 101325.00 [Pa])
    Rotational S           15.618 [cal/(mol K)]       65.347 [J/(mol K)]       0.02488948 [mEh/K] (symmetry no. = 2)
    Vibrational S           2.124 [cal/(mol K)]        8.887 [J/(mol K)]       0.00338501 [mEh/K]
  Total S                  56.640 [cal/(mol K)]      236.983 [J/(mol K)]       0.09026201 [mEh/K]
  Correction S              0.000 [cal/(mol K)]        0.000 [J/(mol K)]       0.00000000 [mEh/K]

  Constant volume heat capacity, Cv
    Electronic Cv           0.000 [cal/(mol K)]        0.000 [J/(mol K)]       0.00000000 [mEh/K]
    Translational Cv        2.981 [cal/(mol K)]       12.472 [J/(mol K)]       0.00475022 [mEh/K]
    Rotational Cv           1.987 [cal/(mol K)]        8.314 [J/(mol K)]       0.00316681 [mEh/K]
    Vibrational Cv          3.756 [cal/(mol K)]       15.715 [J/(mol K)]       0.00598569 [mEh/K]
  Total Cv                  8.724 [cal/(mol K)]       36.502 [J/(mol K)]       0.01390272 [mEh/K]
  Correction Cv             0.000 [cal/(mol K)]        0.000 [J/(mol K)]       0.00000000 [mEh/K]

  Constant pressure heat capacity, Cp
    Electronic Cp           0.000 [cal/(mol K)]        0.000 [J/(mol K)]       0.00000000 [mEh/K]
    Translational Cp        4.968 [cal/(mol K)]       20.786 [J/(mol K)]       0.00791703 [mEh/K]
    Rotational Cp           1.987 [cal/(mol K)]        8.314 [J/(mol K)]       0.00316681 [mEh/K]
    Vibrational Cp          3.756 [cal/(mol K)]       15.715 [J/(mol K)]       0.00598569 [mEh/K]
  Total Cp                 10.711 [cal/(mol K)]       44.816 [J/(mol K)]       0.01706953 [mEh/K]
  Correction Cp             0.000 [cal/(mol K)]        0.000 [J/(mol K)]       0.00000000 [mEh/K]

  ==> Thermochemistry Energy Analysis <==

  Raw electronic energy, E0
  Total E0, Electronic energy at well bottom at 0 [K]                 -834.45750797 [Eh]

  Zero-point energy, ZPE_vib = Sum_i nu_i / 2
    Electronic ZPE          0.000 [kcal/mol]        0.000 [kJ/mol]       0.00000000 [Eh]
    Translational ZPE       0.000 [kcal/mol]        0.000 [kJ/mol]       0.00000000 [Eh]
    Rotational ZPE          0.000 [kcal/mol]        0.000 [kJ/mol]       0.00000000 [Eh]
    Vibrational ZPE         4.444 [kcal/mol]       18.594 [kJ/mol]       0.00708192 [Eh]        1554.301 [cm^-1]
  Correction ZPE            4.444 [kcal/mol]       18.594 [kJ/mol]       0.00708192 [Eh]        1554.301 [cm^-1]
  Total ZPE, Electronic energy at 0 [K]                               -834.45042606 [Eh]

  Thermal Energy, E (includes ZPE)
    Electronic E            0.000 [kcal/mol]        0.000 [kJ/mol]       0.00000000 [Eh]
    Translational E         0.889 [kcal/mol]        3.718 [kJ/mol]       0.00141628 [Eh]
    Rotational E            0.592 [kcal/mol]        2.479 [kJ/mol]       0.00094418 [Eh]
    Vibrational E           4.886 [kcal/mol]       20.442 [kJ/mol]       0.00778586 [Eh]
  Correction E              6.367 [kcal/mol]       26.639 [kJ/mol]       0.01014632 [Eh]
  Total E, Electronic energy at  298.15 [K]                           -834.44736165 [Eh]

  Enthalpy, H_trans = E_trans + k_B * T
    Electronic H            0.000 [kcal/mol]        0.000 [kJ/mol]       0.00000000 [Eh]
    Translational H         1.481 [kcal/mol]        6.197 [kJ/mol]       0.00236046 [Eh]
    Rotational H            0.592 [kcal/mol]        2.479 [kJ/mol]       0.00094418 [Eh]
    Vibrational H           4.886 [kcal/mol]       20.442 [kJ/mol]       0.00778586 [Eh]
  Correction H              6.959 [kcal/mol]       29.118 [kJ/mol]       0.01109051 [Eh]
  Total H, Enthalpy at  298.15 [K]                                    -834.44641746 [Eh]

  Gibbs free energy, G = H - T * S
    Electronic G            0.000 [kcal/mol]        0.000 [kJ/mol]       0.00000000 [Eh]
    Translational G       -10.116 [kcal/mol]      -42.326 [kJ/mol]      -0.01612112 [Eh]
    Rotational G           -4.064 [kcal/mol]      -17.004 [kJ/mol]      -0.00647661 [Eh]
    Vibrational G           4.252 [kcal/mol]       17.792 [kJ/mol]       0.00677662 [Eh]
  Correction G             -9.928 [kcal/mol]      -41.538 [kJ/mol]      -0.01582111 [Eh]
  Total G, Free enthalpy at  298.15 [K]                               -834.47332908 [Eh]

    Psi4 stopped on: Tuesday, 27 April 2021 05:58PM
    Psi4 wall time for execution: 0:00:45.16

*** Psi4 exiting successfully. Buy a developer a beer!
