
    -----------------------------------------------------------------------
          Psi4: An Open-Source Ab Initio Electronic Structure Package
                               Psi4 1.3.2 release

                         Git: Rev {HEAD} ecbda83 


    R. M. Parrish, L. A. Burns, D. G. A. Smith, A. C. Simmonett,
    A. E. DePrince III, E. G. Hohenstein, U. Bozkaya, A. Yu. Sokolov,
    R. Di Remigio, R. M. Richard, J. F. Gonthier, A. M. James,
    H. R. McAlexander, A. Kumar, M. Saitow, X. Wang, B. P. Pritchard,
    P. Verma, H. F. Schaefer III, K. Patkowski, R. A. King, E. F. Valeev,
    F. A. Evangelista, J. M. Turney, T. D. Crawford, and C. D. Sherrill,
    J. Chem. Theory Comput. 13(7) pp 3185--3197 (2017).
    (doi: 10.1021/acs.jctc.7b00174)


                         Additional Contributions by
    P. Kraus, H. Kruse, M. H. Lechner, M. C. Schieber, R. A. Shaw,
    A. Alenaizan, R. Galvelis, Z. L. Glick, S. Lehtola, and J. P. Misiewicz

    -----------------------------------------------------------------------


    Psi4 started on: Tuesday, 27 April 2021 05:58PM

    Process ID: 189317
    Host:       bp1-compute00090.data.bp.acrc.priv
    PSIDATADIR: /work/zw18965/.conda/envs/p4env/share/psi4
    Memory:     500.0 MiB
    Threads:    24
    
  ==> Input File <==

--------------------------------------------------------------------------
memory 144 GB

molecule {
0 1
S 0.0000000000 0.0000000000 0.0000000000
C 0.0000000000 0.0000000000 1.2066000000
H 0.9369544103 0.0000000000 1.7870836544
H -0.9369544103 0.0000000000 1.7870836544
}

set dynamic_level 1
set basis aug-cc-pV(D+d)Z
 
optimize("wB97M-V")
frequencies("wB97M-V")
--------------------------------------------------------------------------

  Memory set to 134.110 GiB by Python driver.
gradient() will perform gradient computation by finite difference of analytic energies.

         ----------------------------------------------------------
                                   FINDIF
                     R. A. King and Jonathon Misiewicz
         ---------------------------------------------------------

  Using finite-differences of energies to determine gradients.
    Generating geometries for use with 3-point formula.
    Displacement size will be 5.00e-03.
    Number of atoms is 4.
    Number of symmetric SALCs is 3.
    Translations projected? 1. Rotations projected? 1.
    Number of geometries (including reference) is 7.

  //>>>>>>>>>>>>>>>>>>>>>>>>>>>>>>>>>>>//
  //    Loading displacement 1 of 7    //
  //<<<<<<<<<<<<<<<<<<<<<<<<<<<<<<<<<<<//

*** tstart() called on bp1-compute00090.data.bp.acrc.priv
*** at Tue Apr 27 17:58:34 2021

   => Loading Basis Set <=

    Name: AUG-CC-PV(D+D)Z
    Role: ORBITAL
    Keyword: BASIS
    atoms 1   entry S          line   724 file /work/zw18965/.conda/envs/p4env/share/psi4/basis/aug-cc-pv_dpd_z.gbs 
    atoms 2   entry C          line   198 file /work/zw18965/.conda/envs/p4env/share/psi4/basis/aug-cc-pv_dpd_z.gbs 
    atoms 3-4 entry H          line    56 file /work/zw18965/.conda/envs/p4env/share/psi4/basis/aug-cc-pv_dpd_z.gbs 


         ---------------------------------------------------------
                                   SCF
               by Justin Turney, Rob Parrish, Andy Simmonett
                          and Daniel G. A. Smith
                              RKS Reference
                       24 Threads, 137329 MiB Core
         ---------------------------------------------------------

  ==> Geometry <==

    Molecular point group: c2v
    Full point group: C2v

    Geometry (in Angstrom), charge = 0, multiplicity = 1:

       Center              X                  Y                   Z               Mass       
    ------------   -----------------  -----------------  -----------------  -----------------
         S            0.000000000000    -0.000000000000    -0.393177456854    31.972071174400
         C            0.000000000000    -0.000000000000     0.813422543146    12.000000000000
         H            0.936954410300     0.000000000000     1.393906197546     1.007825032230
         H           -0.936954410300    -0.000000000000     1.393906197546     1.007825032230

  Running in c2v symmetry.

  Rotational constants: A =      9.52674  B =      1.00351  C =      0.90787 [cm^-1]
  Rotational constants: A = 285604.56383  B =  30084.32876  C =  27217.37063 [MHz]
  Nuclear repulsion =   56.538433832306865

  Charge       = 0
  Multiplicity = 1
  Electrons    = 24
  Nalpha       = 12
  Nbeta        = 12

  ==> Algorithm <==

  SCF Algorithm Type is DF.
  DIIS enabled.
  MOM disabled.
  Fractional occupation disabled.
  Guess Type is SAD.
  Energy threshold   = 1.00e-08
  Density threshold  = 1.00e-08
  Integral threshold = 0.00e+00

  ==> Primary Basis <==

  Basis Set: AUG-CC-PV(D+D)Z
    Blend: AUG-CC-PV(D+D)Z
    Number of shells: 31
    Number of basis function: 73
    Number of Cartesian functions: 78
    Spherical Harmonics?: true
    Max angular momentum: 2

  ==> DFT Potential <==

   => Composite Functional: WB97M-V <= 

    wB97M-V Hyb-GGA Exchange-Correlation Functional

    N. Mardirossian and M. Head-Gordon, J. Chem. Phys. 144, 214110 (2016)

    Deriv               =              1
    GGA                 =           TRUE
    Meta                =           TRUE

    Exchange Hybrid     =           TRUE
    MP2 Hybrid          =          FALSE

   => Exchange-Correlation Functionals <=

    1.0000   wB97M-V exchange-correlation functional

   => Exact (HF) Exchange <=

    0.8500            HF,LR [omega = 0.3000]
    0.1500               HF 

   => VV10 Non-Local Parameters <=

    VV10 B              =     6.0000E+00
    VV10 C              =     1.0000E-02

   => Molecular Quadrature <=

    Radial Scheme          =       TREUTLER
    Pruning Scheme         =           FLAT
    Nuclear Scheme         =       TREUTLER

    BS radius alpha        =              1
    Pruning alpha          =              1
    Radial Points          =             75
    Spherical Points       =            302
    Total Points           =          90600
    Total Blocks           =            753
    Max Points             =            254
    Max Functions          =             73

   => Loading Basis Set <=

    Name: (AUG-CC-PV(D+D)Z AUX)
    Role: JKFIT
    Keyword: DF_BASIS_SCF
    atoms 1   entry S          line   690 file /work/zw18965/.conda/envs/p4env/share/psi4/basis/aug-cc-pvdz-jkfit.gbs 
    atoms 2   entry C          line   154 file /work/zw18965/.conda/envs/p4env/share/psi4/basis/aug-cc-pvdz-jkfit.gbs 
    atoms 3-4 entry H          line    70 file /work/zw18965/.conda/envs/p4env/share/psi4/basis/aug-cc-pvdz-jkfit.gbs 

  ==> Pre-Iterations <==

   -------------------------------------------------------
    Irrep   Nso     Nmo     Nalpha   Nbeta   Ndocc  Nsocc
   -------------------------------------------------------
     A1        33      33       0       0       0       0
     A2         7       7       0       0       0       0
     B1        19      19       0       0       0       0
     B2        14      14       0       0       0       0
   -------------------------------------------------------
    Total      73      73      12      12      12       0
   -------------------------------------------------------

  ==> Integral Setup <==

  ==> DiskDFJK: Density-Fitted J/K Matrices <==

    J tasked:                  Yes
    K tasked:                  Yes
    wK tasked:                 Yes
    Omega:               3.000E-01
    OpenMP threads:             24
    Integrals threads:          24
    Memory [MiB]:           102533
    Algorithm:                Core
    Integral Cache:           NONE
    Schwarz Cutoff:          1E-12
    Fitting Condition:       1E-10

   => Auxiliary Basis Set <=

  Basis Set: (AUG-CC-PV(D+D)Z AUX)
    Blend: AUG-CC-PVDZ-JKFIT
    Number of shells: 92
    Number of basis function: 278
    Number of Cartesian functions: 321
    Spherical Harmonics?: true
    Max angular momentum: 3

  Cached 100.0% of DFT collocation blocks in 0.452 [GiB].

  Minimum eigenvalue in the overlap matrix is 1.3852241160E-04.
  Using Symmetric Orthogonalization.

  SCF Guess: Superposition of Atomic Densities via on-the-fly atomic UHF.

  ==> Iterations <==

                           Total Energy        Delta E     RMS |[F,P]|

   @DF-RKS iter SAD:  -437.64689799924702   -4.37647e+02   0.00000e+00 
   @DF-RKS iter   1:  -436.99454260978075    6.52355e-01   1.37378e-02 DIIS
   @DF-RKS iter   2:  -437.04873513266620   -5.41925e-02   1.07569e-02 DIIS
   @DF-RKS iter   3:  -437.14023685768967   -9.15017e-02   9.58999e-04 DIIS
   @DF-RKS iter   4:  -437.14100751480476   -7.70657e-04   2.56284e-04 DIIS
   @DF-RKS iter   5:  -437.14108905652103   -8.15417e-05   4.07321e-05 DIIS
   @DF-RKS iter   6:  -437.14109148692467   -2.43040e-06   8.33513e-06 DIIS
   @DF-RKS iter   7:  -437.14109167979109   -1.92866e-07   1.24847e-06 DIIS
   @DF-RKS iter   8:  -437.14109168545843   -5.66735e-09   2.10629e-07 DIIS
   @DF-RKS iter   9:  -437.14109168558139   -1.22952e-10   2.72147e-08 DIIS
   @DF-RKS iter  10:  -437.14109168558343   -2.04636e-12   5.71276e-09 DIIS
  Energy and wave function converged.


  ==> Post-Iterations <==

    Orbital Energies [Eh]
    ---------------------

    Doubly Occupied:                                                      

       1A1   -89.154049     2A1   -10.373894     3A1    -8.111532  
       4A1    -6.021249     1B2    -6.016155     1B1    -6.007036  
       5A1    -1.043916     6A1    -0.669686     2B1    -0.618049  
       2B2    -0.511696     7A1    -0.510216     3B1    -0.291327  

    Virtual:                                                              

       8A1     0.020745     4B1     0.034154     3B2     0.036298  
       9A1     0.049877     4B2     0.074499    10A1     0.095376  
       5B1     0.114686     5B2     0.141188    11A1     0.142174  
       6B1     0.145615    12A1     0.198966    13A1     0.227200  
       1A2     0.255762     7B1     0.265203    14A1     0.314989  
      15A1     0.356725    16A1     0.371830     6B2     0.377150  
       2A2     0.400741     8B1     0.423775     9B1     0.468524  
      17A1     0.474505     7B2     0.499981    10B1     0.523288  
      18A1     0.546032    19A1     0.601044     8B2     0.612665  
       3A2     0.636475    20A1     0.641718    11B1     0.664723  
       9B2     0.701576    12B1     0.799095    21A1     0.799965  
      10B2     0.836443    22A1     0.865086     4A2     0.928352  
      23A1     0.943333    13B1     1.027113    11B2     1.029463  
      14B1     1.075930    24A1     1.302659    25A1     1.442556  
       5A2     1.448157    15B1     1.485904    26A1     1.533116  
      12B2     1.650172    27A1     1.719579    16B1     1.768635  
      28A1     2.014503     6A2     2.039272    13B2     2.043889  
      29A1     2.180100    17B1     2.242039    30A1     2.576513  
      31A1     2.627640    18B1     2.768026     7A2     4.715901  
      32A1     4.738129    14B2     4.755872    19B1     4.807084  
      33A1     4.852339  

    Final Occupation by Irrep:
             A1    A2    B1    B2 
    DOCC [     7,    0,    3,    2 ]

  @DF-RKS Final Energy:  -437.14109168558343

   => Energetics <=

    Nuclear Repulsion Energy =             56.5384338323068647
    One-Electron Energy =                -713.5464172334097839
    Two-Electron Energy =                 244.0425417754717614
    DFT Exchange-Correlation Energy =     -24.2747119290791389
    Empirical Dispersion Energy =           0.0000000000000000
    VV10 Nonlocal Energy =                  0.0990618691268145
    Total Energy =                       -437.1410916855834898

Computation Completed


Properties will be evaluated at   0.000000,   0.000000,   0.000000 [a0]

Properties computed using the SCF density matrix

  Nuclear Dipole Moment: [e a0]
     X:     0.0000      Y:     0.0000      Z:     2.6031

  Electronic Dipole Moment: [e a0]
     X:     0.0000      Y:     0.0000      Z:    -2.2243

  Dipole Moment: [e a0]
     X:     0.0000      Y:     0.0000      Z:     0.3788     Total:     0.3788

  Dipole Moment: [D]
     X:     0.0000      Y:     0.0000      Z:     0.9629     Total:     0.9629


*** tstop() called on bp1-compute00090.data.bp.acrc.priv at Tue Apr 27 17:58:39 2021
Module time:
	user time   =      88.59 seconds =       1.48 minutes
	system time =       5.02 seconds =       0.08 minutes
	total time  =          5 seconds =       0.08 minutes
Total time:
	user time   =      88.59 seconds =       1.48 minutes
	system time =       5.02 seconds =       0.08 minutes
	total time  =          5 seconds =       0.08 minutes

  //>>>>>>>>>>>>>>>>>>>>>>>>>>>>>>>>>>>//
  //    Loading displacement 2 of 7    //
  //<<<<<<<<<<<<<<<<<<<<<<<<<<<<<<<<<<<//

*** tstart() called on bp1-compute00090.data.bp.acrc.priv
*** at Tue Apr 27 17:58:39 2021

   => Loading Basis Set <=

    Name: AUG-CC-PV(D+D)Z
    Role: ORBITAL
    Keyword: BASIS
    atoms 1   entry S          line   724 file /work/zw18965/.conda/envs/p4env/share/psi4/basis/aug-cc-pv_dpd_z.gbs 
    atoms 2   entry C          line   198 file /work/zw18965/.conda/envs/p4env/share/psi4/basis/aug-cc-pv_dpd_z.gbs 
    atoms 3-4 entry H          line    56 file /work/zw18965/.conda/envs/p4env/share/psi4/basis/aug-cc-pv_dpd_z.gbs 


         ---------------------------------------------------------
                                   SCF
               by Justin Turney, Rob Parrish, Andy Simmonett
                          and Daniel G. A. Smith
                              RKS Reference
                       24 Threads, 137329 MiB Core
         ---------------------------------------------------------

  ==> Geometry <==

    Molecular point group: c2v
    Full point group: C2v

    Geometry (in Angstrom), charge = 0, multiplicity = 1:

       Center              X                  Y                   Z               Mass       
    ------------   -----------------  -----------------  -----------------  -----------------
         S            0.000000000000    -0.000000000000    -0.393435784822    31.972071174400
         C            0.000000000000    -0.000000000000     0.814011832988    12.000000000000
         H            0.936954410300     0.000000000000     1.394495487388     1.007825032230
         H           -0.936954410300    -0.000000000000     1.394495487388     1.007825032230

  Running in c2v symmetry.

  Rotational constants: A =      9.52674  B =      1.00223  C =      0.90683 [cm^-1]
  Rotational constants: A = 285604.56383  B =  30046.20069  C =  27186.15954 [MHz]
  Nuclear repulsion =   56.505756996013346

  Charge       = 0
  Multiplicity = 1
  Electrons    = 24
  Nalpha       = 12
  Nbeta        = 12

  ==> Algorithm <==

  SCF Algorithm Type is DF.
  DIIS enabled.
  MOM disabled.
  Fractional occupation disabled.
  Guess Type is SAD.
  Energy threshold   = 1.00e-08
  Density threshold  = 1.00e-08
  Integral threshold = 0.00e+00

  ==> Primary Basis <==

  Basis Set: AUG-CC-PV(D+D)Z
    Blend: AUG-CC-PV(D+D)Z
    Number of shells: 31
    Number of basis function: 73
    Number of Cartesian functions: 78
    Spherical Harmonics?: true
    Max angular momentum: 2

  ==> DFT Potential <==

   => Composite Functional: WB97M-V <= 

    wB97M-V Hyb-GGA Exchange-Correlation Functional

    N. Mardirossian and M. Head-Gordon, J. Chem. Phys. 144, 214110 (2016)

    Deriv               =              1
    GGA                 =           TRUE
    Meta                =           TRUE

    Exchange Hybrid     =           TRUE
    MP2 Hybrid          =          FALSE

   => Exchange-Correlation Functionals <=

    1.0000   wB97M-V exchange-correlation functional

   => Exact (HF) Exchange <=

    0.8500            HF,LR [omega = 0.3000]
    0.1500               HF 

   => VV10 Non-Local Parameters <=

    VV10 B              =     6.0000E+00
    VV10 C              =     1.0000E-02

   => Molecular Quadrature <=

    Radial Scheme          =       TREUTLER
    Pruning Scheme         =           FLAT
    Nuclear Scheme         =       TREUTLER

    BS radius alpha        =              1
    Pruning alpha          =              1
    Radial Points          =             75
    Spherical Points       =            302
    Total Points           =          90600
    Total Blocks           =            752
    Max Points             =            254
    Max Functions          =             73

   => Loading Basis Set <=

    Name: (AUG-CC-PV(D+D)Z AUX)
    Role: JKFIT
    Keyword: DF_BASIS_SCF
    atoms 1   entry S          line   690 file /work/zw18965/.conda/envs/p4env/share/psi4/basis/aug-cc-pvdz-jkfit.gbs 
    atoms 2   entry C          line   154 file /work/zw18965/.conda/envs/p4env/share/psi4/basis/aug-cc-pvdz-jkfit.gbs 
    atoms 3-4 entry H          line    70 file /work/zw18965/.conda/envs/p4env/share/psi4/basis/aug-cc-pvdz-jkfit.gbs 

  ==> Pre-Iterations <==

   -------------------------------------------------------
    Irrep   Nso     Nmo     Nalpha   Nbeta   Ndocc  Nsocc
   -------------------------------------------------------
     A1        33      33       0       0       0       0
     A2         7       7       0       0       0       0
     B1        19      19       0       0       0       0
     B2        14      14       0       0       0       0
   -------------------------------------------------------
    Total      73      73      12      12      12       0
   -------------------------------------------------------

  ==> Integral Setup <==

  ==> DiskDFJK: Density-Fitted J/K Matrices <==

    J tasked:                  Yes
    K tasked:                  Yes
    wK tasked:                 Yes
    Omega:               3.000E-01
    OpenMP threads:             24
    Integrals threads:          24
    Memory [MiB]:           102533
    Algorithm:                Core
    Integral Cache:           NONE
    Schwarz Cutoff:          1E-12
    Fitting Condition:       1E-10

   => Auxiliary Basis Set <=

  Basis Set: (AUG-CC-PV(D+D)Z AUX)
    Blend: AUG-CC-PVDZ-JKFIT
    Number of shells: 92
    Number of basis function: 278
    Number of Cartesian functions: 321
    Spherical Harmonics?: true
    Max angular momentum: 3

  Cached 100.0% of DFT collocation blocks in 0.452 [GiB].

  Minimum eigenvalue in the overlap matrix is 1.3886261437E-04.
  Using Symmetric Orthogonalization.

  SCF Guess: Superposition of Atomic Densities via on-the-fly atomic UHF.

  ==> Iterations <==

                           Total Energy        Delta E     RMS |[F,P]|

   @DF-RKS iter SAD:  -437.64534814233627   -4.37645e+02   0.00000e+00 
   @DF-RKS iter   1:  -436.99661511294215    6.48733e-01   1.37181e-02 DIIS
   @DF-RKS iter   2:  -437.05068594662094   -5.40708e-02   1.07424e-02 DIIS
   @DF-RKS iter   3:  -437.14196555974928   -9.12796e-02   9.58773e-04 DIIS
   @DF-RKS iter   4:  -437.14273613344045   -7.70574e-04   2.56109e-04 DIIS
   @DF-RKS iter   5:  -437.14281761339168   -8.14800e-05   4.07314e-05 DIIS
   @DF-RKS iter   6:  -437.14282004132070   -2.42793e-06   8.34145e-06 DIIS
   @DF-RKS iter   7:  -437.14282023429706   -1.92976e-07   1.24806e-06 DIIS
   @DF-RKS iter   8:  -437.14282023996407   -5.66700e-09   2.10943e-07 DIIS
   @DF-RKS iter   9:  -437.14282024008685   -1.22782e-10   2.73090e-08 DIIS
   @DF-RKS iter  10:  -437.14282024008992   -3.06954e-12   5.72817e-09 DIIS
  Energy and wave function converged.


  ==> Post-Iterations <==

    Orbital Energies [Eh]
    ---------------------

    Doubly Occupied:                                                      

       1A1   -89.154190     2A1   -10.373972     3A1    -8.111528  
       4A1    -6.021226     1B2    -6.016179     1B1    -6.007058  
       5A1    -1.043695     6A1    -0.669786     2B1    -0.617856  
       2B2    -0.511430     7A1    -0.510238     3B1    -0.291443  

    Virtual:                                                              

       8A1     0.020738     4B1     0.034163     3B2     0.036209  
       9A1     0.049876     4B2     0.074514    10A1     0.095375  
       5B1     0.114696     5B2     0.141140    11A1     0.142172  
       6B1     0.145641    12A1     0.198971    13A1     0.227209  
       1A2     0.255790     7B1     0.265160    14A1     0.314953  
      15A1     0.356666    16A1     0.371743     6B2     0.377147  
       2A2     0.400691     8B1     0.423829     9B1     0.468454  
      17A1     0.474511     7B2     0.499879    10B1     0.523291  
      18A1     0.546016    19A1     0.600996     8B2     0.612769  
       3A2     0.636452    20A1     0.641721    11B1     0.664589  
       9B2     0.701462    12B1     0.799136    21A1     0.800003  
      10B2     0.836538    22A1     0.864881     4A2     0.928380  
      23A1     0.943369    13B1     1.027164    11B2     1.029065  
      14B1     1.075585    24A1     1.302516    25A1     1.442331  
       5A2     1.448048    15B1     1.485650    26A1     1.532375  
      12B2     1.649870    27A1     1.719637    16B1     1.768551  
      28A1     2.014705     6A2     2.039193    13B2     2.043540  
      29A1     2.178878    17B1     2.241595    30A1     2.575068  
      31A1     2.626581    18B1     2.767441     7A2     4.715893  
      32A1     4.738105    14B2     4.756004    19B1     4.807220  
      33A1     4.852380  

    Final Occupation by Irrep:
             A1    A2    B1    B2 
    DOCC [     7,    0,    3,    2 ]

  @DF-RKS Final Energy:  -437.14282024008992

   => Energetics <=

    Nuclear Repulsion Energy =             56.5057569960133463
    One-Electron Energy =                -713.4854434454889542
    Two-Electron Energy =                 244.0116593587686964
    DFT Exchange-Correlation Energy =     -24.2738551444290032
    Empirical Dispersion Energy =           0.0000000000000000
    VV10 Nonlocal Energy =                  0.0990619950460186
    Total Energy =                       -437.1428202400898044

Computation Completed


Properties will be evaluated at   0.000000,   0.000000,   0.000000 [a0]

Properties computed using the SCF density matrix

  Nuclear Dipole Moment: [e a0]
     X:     0.0000      Y:     0.0000      Z:     2.6042

  Electronic Dipole Moment: [e a0]
     X:     0.0000      Y:     0.0000      Z:    -2.2248

  Dipole Moment: [e a0]
     X:     0.0000      Y:     0.0000      Z:     0.3794     Total:     0.3794

  Dipole Moment: [D]
     X:     0.0000      Y:     0.0000      Z:     0.9644     Total:     0.9644


*** tstop() called on bp1-compute00090.data.bp.acrc.priv at Tue Apr 27 17:58:43 2021
Module time:
	user time   =      91.24 seconds =       1.52 minutes
	system time =       2.98 seconds =       0.05 minutes
	total time  =          4 seconds =       0.07 minutes
Total time:
	user time   =     179.96 seconds =       3.00 minutes
	system time =       8.00 seconds =       0.13 minutes
	total time  =          9 seconds =       0.15 minutes

  //>>>>>>>>>>>>>>>>>>>>>>>>>>>>>>>>>>>//
  //    Loading displacement 3 of 7    //
  //<<<<<<<<<<<<<<<<<<<<<<<<<<<<<<<<<<<//

*** tstart() called on bp1-compute00090.data.bp.acrc.priv
*** at Tue Apr 27 17:58:43 2021

   => Loading Basis Set <=

    Name: AUG-CC-PV(D+D)Z
    Role: ORBITAL
    Keyword: BASIS
    atoms 1   entry S          line   724 file /work/zw18965/.conda/envs/p4env/share/psi4/basis/aug-cc-pv_dpd_z.gbs 
    atoms 2   entry C          line   198 file /work/zw18965/.conda/envs/p4env/share/psi4/basis/aug-cc-pv_dpd_z.gbs 
    atoms 3-4 entry H          line    56 file /work/zw18965/.conda/envs/p4env/share/psi4/basis/aug-cc-pv_dpd_z.gbs 


         ---------------------------------------------------------
                                   SCF
               by Justin Turney, Rob Parrish, Andy Simmonett
                          and Daniel G. A. Smith
                              RKS Reference
                       24 Threads, 137329 MiB Core
         ---------------------------------------------------------

  ==> Geometry <==

    Molecular point group: c2v
    Full point group: C2v

    Geometry (in Angstrom), charge = 0, multiplicity = 1:

       Center              X                  Y                   Z               Mass       
    ------------   -----------------  -----------------  -----------------  -----------------
         S            0.000000000000    -0.000000000000    -0.392919128885    31.972071174400
         C            0.000000000000    -0.000000000000     0.812833253305    12.000000000000
         H            0.936954410300     0.000000000000     1.393316907705     1.007825032230
         H           -0.936954410300    -0.000000000000     1.393316907705     1.007825032230

  Running in c2v symmetry.

  Rotational constants: A =      9.52674  B =      1.00478  C =      0.90892 [cm^-1]
  Rotational constants: A = 285604.56383  B =  30122.52857  C =  27248.63289 [MHz]
  Nuclear repulsion =   56.571154226418535

  Charge       = 0
  Multiplicity = 1
  Electrons    = 24
  Nalpha       = 12
  Nbeta        = 12

  ==> Algorithm <==

  SCF Algorithm Type is DF.
  DIIS enabled.
  MOM disabled.
  Fractional occupation disabled.
  Guess Type is SAD.
  Energy threshold   = 1.00e-08
  Density threshold  = 1.00e-08
  Integral threshold = 0.00e+00

  ==> Primary Basis <==

  Basis Set: AUG-CC-PV(D+D)Z
    Blend: AUG-CC-PV(D+D)Z
    Number of shells: 31
    Number of basis function: 73
    Number of Cartesian functions: 78
    Spherical Harmonics?: true
    Max angular momentum: 2

  ==> DFT Potential <==

   => Composite Functional: WB97M-V <= 

    wB97M-V Hyb-GGA Exchange-Correlation Functional

    N. Mardirossian and M. Head-Gordon, J. Chem. Phys. 144, 214110 (2016)

    Deriv               =              1
    GGA                 =           TRUE
    Meta                =           TRUE

    Exchange Hybrid     =           TRUE
    MP2 Hybrid          =          FALSE

   => Exchange-Correlation Functionals <=

    1.0000   wB97M-V exchange-correlation functional

   => Exact (HF) Exchange <=

    0.8500            HF,LR [omega = 0.3000]
    0.1500               HF 

   => VV10 Non-Local Parameters <=

    VV10 B              =     6.0000E+00
    VV10 C              =     1.0000E-02

   => Molecular Quadrature <=

    Radial Scheme          =       TREUTLER
    Pruning Scheme         =           FLAT
    Nuclear Scheme         =       TREUTLER

    BS radius alpha        =              1
    Pruning alpha          =              1
    Radial Points          =             75
    Spherical Points       =            302
    Total Points           =          90600
    Total Blocks           =            750
    Max Points             =            256
    Max Functions          =             73

   => Loading Basis Set <=

    Name: (AUG-CC-PV(D+D)Z AUX)
    Role: JKFIT
    Keyword: DF_BASIS_SCF
    atoms 1   entry S          line   690 file /work/zw18965/.conda/envs/p4env/share/psi4/basis/aug-cc-pvdz-jkfit.gbs 
    atoms 2   entry C          line   154 file /work/zw18965/.conda/envs/p4env/share/psi4/basis/aug-cc-pvdz-jkfit.gbs 
    atoms 3-4 entry H          line    70 file /work/zw18965/.conda/envs/p4env/share/psi4/basis/aug-cc-pvdz-jkfit.gbs 

  ==> Pre-Iterations <==

   -------------------------------------------------------
    Irrep   Nso     Nmo     Nalpha   Nbeta   Ndocc  Nsocc
   -------------------------------------------------------
     A1        33      33       0       0       0       0
     A2         7       7       0       0       0       0
     B1        19      19       0       0       0       0
     B2        14      14       0       0       0       0
   -------------------------------------------------------
    Total      73      73      12      12      12       0
   -------------------------------------------------------

  ==> Integral Setup <==

  ==> DiskDFJK: Density-Fitted J/K Matrices <==

    J tasked:                  Yes
    K tasked:                  Yes
    wK tasked:                 Yes
    Omega:               3.000E-01
    OpenMP threads:             24
    Integrals threads:          24
    Memory [MiB]:           102533
    Algorithm:                Core
    Integral Cache:           NONE
    Schwarz Cutoff:          1E-12
    Fitting Condition:       1E-10

   => Auxiliary Basis Set <=

  Basis Set: (AUG-CC-PV(D+D)Z AUX)
    Blend: AUG-CC-PVDZ-JKFIT
    Number of shells: 92
    Number of basis function: 278
    Number of Cartesian functions: 321
    Spherical Harmonics?: true
    Max angular momentum: 3

  Cached 100.0% of DFT collocation blocks in 0.452 [GiB].

  Minimum eigenvalue in the overlap matrix is 1.3818316791E-04.
  Using Symmetric Orthogonalization.

  SCF Guess: Superposition of Atomic Densities via on-the-fly atomic UHF.

  ==> Iterations <==

                           Total Energy        Delta E     RMS |[F,P]|

   @DF-RKS iter SAD:  -437.64844857015254   -4.37648e+02   0.00000e+00 
   @DF-RKS iter   1:  -436.99246324762271    6.55985e-01   1.37575e-02 DIIS
   @DF-RKS iter   2:  -437.04677725386472   -5.43140e-02   1.07714e-02 DIIS
   @DF-RKS iter   3:  -437.13850015057244   -9.17229e-02   9.59229e-04 DIIS
   @DF-RKS iter   4:  -437.13927087897446   -7.70728e-04   2.56456e-04 DIIS
   @DF-RKS iter   5:  -437.13935247796093   -8.15990e-05   4.07309e-05 DIIS
   @DF-RKS iter   6:  -437.13935491047664   -2.43252e-06   8.32823e-06 DIIS
   @DF-RKS iter   7:  -437.13935510319044   -1.92714e-07   1.24878e-06 DIIS
   @DF-RKS iter   8:  -437.13935510885466   -5.66422e-09   2.10274e-07 DIIS
   @DF-RKS iter   9:  -437.13935510897699   -1.22327e-10   2.70942e-08 DIIS
   @DF-RKS iter  10:  -437.13935510897966   -2.67164e-12   5.68936e-09 DIIS
  Energy and wave function converged.


  ==> Post-Iterations <==

    Orbital Energies [Eh]
    ---------------------

    Doubly Occupied:                                                      

       1A1   -89.153908     2A1   -10.373816     3A1    -8.111538  
       4A1    -6.021273     1B2    -6.016131     1B1    -6.007015  
       5A1    -1.044137     6A1    -0.669586     2B1    -0.618242  
       2B2    -0.511963     7A1    -0.510193     3B1    -0.291211  

    Virtual:                                                              

       8A1     0.020751     4B1     0.034145     3B2     0.036387  
       9A1     0.049877     4B2     0.074484    10A1     0.095377  
       5B1     0.114676     5B2     0.141236    11A1     0.142176  
       6B1     0.145588    12A1     0.198960    13A1     0.227191  
       1A2     0.255735     7B1     0.265245    14A1     0.315025  
      15A1     0.356783    16A1     0.371918     6B2     0.377154  
       2A2     0.400792     8B1     0.423720     9B1     0.468595  
      17A1     0.474498     7B2     0.500084    10B1     0.523286  
      18A1     0.546047    19A1     0.601092     8B2     0.612560  
       3A2     0.636497    20A1     0.641715    11B1     0.664857  
       9B2     0.701692    12B1     0.799053    21A1     0.799927  
      10B2     0.836347    22A1     0.865291     4A2     0.928324  
      23A1     0.943297    13B1     1.027061    11B2     1.029862  
      14B1     1.076277    24A1     1.302802    25A1     1.442781  
       5A2     1.448267    15B1     1.486158    26A1     1.533858  
      12B2     1.650474    27A1     1.719521    16B1     1.768718  
      28A1     2.014299     6A2     2.039351    13B2     2.044239  
      29A1     2.181315    17B1     2.242483    30A1     2.577925  
      31A1     2.628753    18B1     2.768613     7A2     4.715908  
      32A1     4.738152    14B2     4.755740    19B1     4.806948  
      33A1     4.852299  

    Final Occupation by Irrep:
             A1    A2    B1    B2 
    DOCC [     7,    0,    3,    2 ]

  @DF-RKS Final Energy:  -437.13935510897966

   => Energetics <=

    Nuclear Repulsion Energy =             56.5711542264185354
    One-Electron Energy =                -713.6074571893244638
    Two-Electron Energy =                 244.0734561777199190
    DFT Exchange-Correlation Energy =     -24.2755700682960551
    Empirical Dispersion Energy =           0.0000000000000000
    VV10 Nonlocal Energy =                  0.0990617445023776
    Total Energy =                       -437.1393551089797143

Computation Completed


Properties will be evaluated at   0.000000,   0.000000,   0.000000 [a0]

Properties computed using the SCF density matrix

  Nuclear Dipole Moment: [e a0]
     X:     0.0000      Y:     0.0000      Z:     2.6020

  Electronic Dipole Moment: [e a0]
     X:     0.0000      Y:     0.0000      Z:    -2.2238

  Dipole Moment: [e a0]
     X:     0.0000      Y:     0.0000      Z:     0.3782     Total:     0.3782

  Dipole Moment: [D]
     X:     0.0000      Y:     0.0000      Z:     0.9613     Total:     0.9613


*** tstop() called on bp1-compute00090.data.bp.acrc.priv at Tue Apr 27 17:58:46 2021
Module time:
	user time   =      85.58 seconds =       1.43 minutes
	system time =       2.69 seconds =       0.04 minutes
	total time  =          3 seconds =       0.05 minutes
Total time:
	user time   =     265.68 seconds =       4.43 minutes
	system time =      10.70 seconds =       0.18 minutes
	total time  =         12 seconds =       0.20 minutes

  //>>>>>>>>>>>>>>>>>>>>>>>>>>>>>>>>>>>//
  //    Loading displacement 4 of 7    //
  //<<<<<<<<<<<<<<<<<<<<<<<<<<<<<<<<<<<//

*** tstart() called on bp1-compute00090.data.bp.acrc.priv
*** at Tue Apr 27 17:58:46 2021

   => Loading Basis Set <=

    Name: AUG-CC-PV(D+D)Z
    Role: ORBITAL
    Keyword: BASIS
    atoms 1   entry S          line   724 file /work/zw18965/.conda/envs/p4env/share/psi4/basis/aug-cc-pv_dpd_z.gbs 
    atoms 2   entry C          line   198 file /work/zw18965/.conda/envs/p4env/share/psi4/basis/aug-cc-pv_dpd_z.gbs 
    atoms 3-4 entry H          line    56 file /work/zw18965/.conda/envs/p4env/share/psi4/basis/aug-cc-pv_dpd_z.gbs 


         ---------------------------------------------------------
                                   SCF
               by Justin Turney, Rob Parrish, Andy Simmonett
                          and Daniel G. A. Smith
                              RKS Reference
                       24 Threads, 137329 MiB Core
         ---------------------------------------------------------

  ==> Geometry <==

    Molecular point group: c2v
    Full point group: C2v

    Geometry (in Angstrom), charge = 0, multiplicity = 1:

       Center              X                  Y                   Z               Mass       
    ------------   -----------------  -----------------  -----------------  -----------------
         S            0.000000000000    -0.000000000000    -0.393177456854    31.972071174400
         C            0.000000000000    -0.000000000000     0.813132887860    12.000000000000
         H            0.936954410300     0.000000000000     1.395630635485     1.007825032230
         H           -0.936954410300    -0.000000000000     1.395630635485     1.007825032230

  Running in c2v symmetry.

  Rotational constants: A =      9.52674  B =      1.00326  C =      0.90768 [cm^-1]
  Rotational constants: A = 285604.56383  B =  30077.09116  C =  27211.44661 [MHz]
  Nuclear repulsion =   56.536649411938946

  Charge       = 0
  Multiplicity = 1
  Electrons    = 24
  Nalpha       = 12
  Nbeta        = 12

  ==> Algorithm <==

  SCF Algorithm Type is DF.
  DIIS enabled.
  MOM disabled.
  Fractional occupation disabled.
  Guess Type is SAD.
  Energy threshold   = 1.00e-08
  Density threshold  = 1.00e-08
  Integral threshold = 0.00e+00

  ==> Primary Basis <==

  Basis Set: AUG-CC-PV(D+D)Z
    Blend: AUG-CC-PV(D+D)Z
    Number of shells: 31
    Number of basis function: 73
    Number of Cartesian functions: 78
    Spherical Harmonics?: true
    Max angular momentum: 2

  ==> DFT Potential <==

   => Composite Functional: WB97M-V <= 

    wB97M-V Hyb-GGA Exchange-Correlation Functional

    N. Mardirossian and M. Head-Gordon, J. Chem. Phys. 144, 214110 (2016)

    Deriv               =              1
    GGA                 =           TRUE
    Meta                =           TRUE

    Exchange Hybrid     =           TRUE
    MP2 Hybrid          =          FALSE

   => Exchange-Correlation Functionals <=

    1.0000   wB97M-V exchange-correlation functional

   => Exact (HF) Exchange <=

    0.8500            HF,LR [omega = 0.3000]
    0.1500               HF 

   => VV10 Non-Local Parameters <=

    VV10 B              =     6.0000E+00
    VV10 C              =     1.0000E-02

   => Molecular Quadrature <=

    Radial Scheme          =       TREUTLER
    Pruning Scheme         =           FLAT
    Nuclear Scheme         =       TREUTLER

    BS radius alpha        =              1
    Pruning alpha          =              1
    Radial Points          =             75
    Spherical Points       =            302
    Total Points           =          90600
    Total Blocks           =            752
    Max Points             =            254
    Max Functions          =             73

   => Loading Basis Set <=

    Name: (AUG-CC-PV(D+D)Z AUX)
    Role: JKFIT
    Keyword: DF_BASIS_SCF
    atoms 1   entry S          line   690 file /work/zw18965/.conda/envs/p4env/share/psi4/basis/aug-cc-pvdz-jkfit.gbs 
    atoms 2   entry C          line   154 file /work/zw18965/.conda/envs/p4env/share/psi4/basis/aug-cc-pvdz-jkfit.gbs 
    atoms 3-4 entry H          line    70 file /work/zw18965/.conda/envs/p4env/share/psi4/basis/aug-cc-pvdz-jkfit.gbs 

  ==> Pre-Iterations <==

   -------------------------------------------------------
    Irrep   Nso     Nmo     Nalpha   Nbeta   Ndocc  Nsocc
   -------------------------------------------------------
     A1        33      33       0       0       0       0
     A2         7       7       0       0       0       0
     B1        19      19       0       0       0       0
     B2        14      14       0       0       0       0
   -------------------------------------------------------
    Total      73      73      12      12      12       0
   -------------------------------------------------------

  ==> Integral Setup <==

  ==> DiskDFJK: Density-Fitted J/K Matrices <==

    J tasked:                  Yes
    K tasked:                  Yes
    wK tasked:                 Yes
    Omega:               3.000E-01
    OpenMP threads:             24
    Integrals threads:          24
    Memory [MiB]:           102533
    Algorithm:                Core
    Integral Cache:           NONE
    Schwarz Cutoff:          1E-12
    Fitting Condition:       1E-10

   => Auxiliary Basis Set <=

  Basis Set: (AUG-CC-PV(D+D)Z AUX)
    Blend: AUG-CC-PVDZ-JKFIT
    Number of shells: 92
    Number of basis function: 278
    Number of Cartesian functions: 321
    Spherical Harmonics?: true
    Max angular momentum: 3

  Cached 100.0% of DFT collocation blocks in 0.452 [GiB].

  Minimum eigenvalue in the overlap matrix is 1.3836723164E-04.
  Using Symmetric Orthogonalization.

  SCF Guess: Superposition of Atomic Densities via on-the-fly atomic UHF.

  ==> Iterations <==

                           Total Energy        Delta E     RMS |[F,P]|

   @DF-RKS iter SAD:  -437.64640336555590   -4.37646e+02   0.00000e+00 
   @DF-RKS iter   1:  -436.99417192611810    6.52231e-01   1.37354e-02 DIIS
   @DF-RKS iter   2:  -437.04825509441889   -5.40832e-02   1.07598e-02 DIIS
   @DF-RKS iter   3:  -437.13981888635698   -9.15638e-02   9.59085e-04 DIIS
   @DF-RKS iter   4:  -437.14058961193291   -7.70726e-04   2.56459e-04 DIIS
   @DF-RKS iter   5:  -437.14067123307046   -8.16211e-05   4.06703e-05 DIIS
   @DF-RKS iter   6:  -437.14067366040422   -2.42733e-06   8.33277e-06 DIIS
   @DF-RKS iter   7:  -437.14067385273785   -1.92334e-07   1.24661e-06 DIIS
   @DF-RKS iter   8:  -437.14067385838706   -5.64921e-09   2.10888e-07 DIIS
   @DF-RKS iter   9:  -437.14067385850819   -1.21133e-10   2.70781e-08 DIIS
   @DF-RKS iter  10:  -437.14067385851035   -2.16005e-12   5.65139e-09 DIIS
  Energy and wave function converged.


  ==> Post-Iterations <==

    Orbital Energies [Eh]
    ---------------------

    Doubly Occupied:                                                      

       1A1   -89.154098     2A1   -10.374061     3A1    -8.111627  
       4A1    -6.021351     1B2    -6.016236     1B1    -6.007125  
       5A1    -1.043919     6A1    -0.669582     2B1    -0.617628  
       2B2    -0.511791     7A1    -0.510331     3B1    -0.291329  

    Virtual:                                                              

       8A1     0.020751     4B1     0.034171     3B2     0.036299  
       9A1     0.049853     4B2     0.074500    10A1     0.095375  
       5B1     0.114633     5B2     0.141183    11A1     0.142203  
       6B1     0.145646    12A1     0.198998    13A1     0.227215  
       1A2     0.255839     7B1     0.264804    14A1     0.314968  
      15A1     0.356471    16A1     0.371661     6B2     0.377015  
       2A2     0.400687     8B1     0.423994     9B1     0.468481  
      17A1     0.474626     7B2     0.500191    10B1     0.523371  
      18A1     0.546188    19A1     0.601021     8B2     0.612590  
       3A2     0.636464    20A1     0.641769    11B1     0.664381  
       9B2     0.701597    12B1     0.798890    21A1     0.799876  
      10B2     0.836334    22A1     0.864285     4A2     0.928165  
      23A1     0.943254    13B1     1.027392    11B2     1.029626  
      14B1     1.075879    24A1     1.303560    25A1     1.442828  
       5A2     1.448039    15B1     1.485289    26A1     1.532393  
      12B2     1.649841    27A1     1.719014    16B1     1.768948  
      28A1     2.013898     6A2     2.038053    13B2     2.044598  
      29A1     2.180620    17B1     2.239750    30A1     2.576216  
      31A1     2.625794    18B1     2.767109     7A2     4.715799  
      32A1     4.738011    14B2     4.755736    19B1     4.806922  
      33A1     4.852304  

    Final Occupation by Irrep:
             A1    A2    B1    B2 
    DOCC [     7,    0,    3,    2 ]

  @DF-RKS Final Energy:  -437.14067385851035

   => Energetics <=

    Nuclear Repulsion Energy =             56.5366494119389458
    One-Electron Energy =                -713.5416538110910096
    Two-Electron Energy =                 244.0396681520867901
    DFT Exchange-Correlation Energy =     -24.2743994406748946
    Empirical Dispersion Energy =           0.0000000000000000
    VV10 Nonlocal Energy =                  0.0990618292298222
    Total Energy =                       -437.1406738585103540

Computation Completed


Properties will be evaluated at   0.000000,   0.000000,   0.000000 [a0]

Properties computed using the SCF density matrix

  Nuclear Dipole Moment: [e a0]
     X:     0.0000      Y:     0.0000      Z:     2.6063

  Electronic Dipole Moment: [e a0]
     X:     0.0000      Y:     0.0000      Z:    -2.2297

  Dipole Moment: [e a0]
     X:     0.0000      Y:     0.0000      Z:     0.3767     Total:     0.3767

  Dipole Moment: [D]
     X:     0.0000      Y:     0.0000      Z:     0.9574     Total:     0.9574


*** tstop() called on bp1-compute00090.data.bp.acrc.priv at Tue Apr 27 17:58:50 2021
Module time:
	user time   =      84.45 seconds =       1.41 minutes
	system time =       2.24 seconds =       0.04 minutes
	total time  =          4 seconds =       0.07 minutes
Total time:
	user time   =     350.28 seconds =       5.84 minutes
	system time =      12.95 seconds =       0.22 minutes
	total time  =         16 seconds =       0.27 minutes

  //>>>>>>>>>>>>>>>>>>>>>>>>>>>>>>>>>>>//
  //    Loading displacement 5 of 7    //
  //<<<<<<<<<<<<<<<<<<<<<<<<<<<<<<<<<<<//

*** tstart() called on bp1-compute00090.data.bp.acrc.priv
*** at Tue Apr 27 17:58:50 2021

   => Loading Basis Set <=

    Name: AUG-CC-PV(D+D)Z
    Role: ORBITAL
    Keyword: BASIS
    atoms 1   entry S          line   724 file /work/zw18965/.conda/envs/p4env/share/psi4/basis/aug-cc-pv_dpd_z.gbs 
    atoms 2   entry C          line   198 file /work/zw18965/.conda/envs/p4env/share/psi4/basis/aug-cc-pv_dpd_z.gbs 
    atoms 3-4 entry H          line    56 file /work/zw18965/.conda/envs/p4env/share/psi4/basis/aug-cc-pv_dpd_z.gbs 


         ---------------------------------------------------------
                                   SCF
               by Justin Turney, Rob Parrish, Andy Simmonett
                          and Daniel G. A. Smith
                              RKS Reference
                       24 Threads, 137329 MiB Core
         ---------------------------------------------------------

  ==> Geometry <==

    Molecular point group: c2v
    Full point group: C2v

    Geometry (in Angstrom), charge = 0, multiplicity = 1:

       Center              X                  Y                   Z               Mass       
    ------------   -----------------  -----------------  -----------------  -----------------
         S            0.000000000000    -0.000000000000    -0.393177456854    31.972071174400
         C            0.000000000000    -0.000000000000     0.813712198433    12.000000000000
         H            0.936954410300     0.000000000000     1.392181759608     1.007825032230
         H           -0.936954410300    -0.000000000000     1.392181759608     1.007825032230

  Running in c2v symmetry.

  Rotational constants: A =      9.52674  B =      1.00375  C =      0.90807 [cm^-1]
  Rotational constants: A = 285604.56383  B =  30091.54475  C =  27223.27669 [MHz]
  Nuclear repulsion =   56.540228169185632

  Charge       = 0
  Multiplicity = 1
  Electrons    = 24
  Nalpha       = 12
  Nbeta        = 12

  ==> Algorithm <==

  SCF Algorithm Type is DF.
  DIIS enabled.
  MOM disabled.
  Fractional occupation disabled.
  Guess Type is SAD.
  Energy threshold   = 1.00e-08
  Density threshold  = 1.00e-08
  Integral threshold = 0.00e+00

  ==> Primary Basis <==

  Basis Set: AUG-CC-PV(D+D)Z
    Blend: AUG-CC-PV(D+D)Z
    Number of shells: 31
    Number of basis function: 73
    Number of Cartesian functions: 78
    Spherical Harmonics?: true
    Max angular momentum: 2

  ==> DFT Potential <==

   => Composite Functional: WB97M-V <= 

    wB97M-V Hyb-GGA Exchange-Correlation Functional

    N. Mardirossian and M. Head-Gordon, J. Chem. Phys. 144, 214110 (2016)

    Deriv               =              1
    GGA                 =           TRUE
    Meta                =           TRUE

    Exchange Hybrid     =           TRUE
    MP2 Hybrid          =          FALSE

   => Exchange-Correlation Functionals <=

    1.0000   wB97M-V exchange-correlation functional

   => Exact (HF) Exchange <=

    0.8500            HF,LR [omega = 0.3000]
    0.1500               HF 

   => VV10 Non-Local Parameters <=

    VV10 B              =     6.0000E+00
    VV10 C              =     1.0000E-02

   => Molecular Quadrature <=

    Radial Scheme          =       TREUTLER
    Pruning Scheme         =           FLAT
    Nuclear Scheme         =       TREUTLER

    BS radius alpha        =              1
    Pruning alpha          =              1
    Radial Points          =             75
    Spherical Points       =            302
    Total Points           =          90600
    Total Blocks           =            753
    Max Points             =            256
    Max Functions          =             73

   => Loading Basis Set <=

    Name: (AUG-CC-PV(D+D)Z AUX)
    Role: JKFIT
    Keyword: DF_BASIS_SCF
    atoms 1   entry S          line   690 file /work/zw18965/.conda/envs/p4env/share/psi4/basis/aug-cc-pvdz-jkfit.gbs 
    atoms 2   entry C          line   154 file /work/zw18965/.conda/envs/p4env/share/psi4/basis/aug-cc-pvdz-jkfit.gbs 
    atoms 3-4 entry H          line    70 file /work/zw18965/.conda/envs/p4env/share/psi4/basis/aug-cc-pvdz-jkfit.gbs 

  ==> Pre-Iterations <==

   -------------------------------------------------------
    Irrep   Nso     Nmo     Nalpha   Nbeta   Ndocc  Nsocc
   -------------------------------------------------------
     A1        33      33       0       0       0       0
     A2         7       7       0       0       0       0
     B1        19      19       0       0       0       0
     B2        14      14       0       0       0       0
   -------------------------------------------------------
    Total      73      73      12      12      12       0
   -------------------------------------------------------

  ==> Integral Setup <==

  ==> DiskDFJK: Density-Fitted J/K Matrices <==

    J tasked:                  Yes
    K tasked:                  Yes
    wK tasked:                 Yes
    Omega:               3.000E-01
    OpenMP threads:             24
    Integrals threads:          24
    Memory [MiB]:           102533
    Algorithm:                Core
    Integral Cache:           NONE
    Schwarz Cutoff:          1E-12
    Fitting Condition:       1E-10

   => Auxiliary Basis Set <=

  Basis Set: (AUG-CC-PV(D+D)Z AUX)
    Blend: AUG-CC-PVDZ-JKFIT
    Number of shells: 92
    Number of basis function: 278
    Number of Cartesian functions: 321
    Spherical Harmonics?: true
    Max angular momentum: 3

  Cached 100.0% of DFT collocation blocks in 0.452 [GiB].

  Minimum eigenvalue in the overlap matrix is 1.3867774293E-04.
  Using Symmetric Orthogonalization.

  SCF Guess: Superposition of Atomic Densities via on-the-fly atomic UHF.

  ==> Iterations <==

                           Total Energy        Delta E     RMS |[F,P]|

   @DF-RKS iter SAD:  -437.64738936694914   -4.37647e+02   0.00000e+00 
   @DF-RKS iter   1:  -436.99490666709022    6.52483e-01   1.37403e-02 DIIS
   @DF-RKS iter   2:  -437.04920914284151   -5.43025e-02   1.07542e-02 DIIS
   @DF-RKS iter   3:  -437.14064997170561   -9.14408e-02   9.58931e-04 DIIS
   @DF-RKS iter   4:  -437.14142058139623   -7.70610e-04   2.56112e-04 DIIS
   @DF-RKS iter   5:  -437.14150204588475   -8.14645e-05   4.07939e-05 DIIS
   @DF-RKS iter   6:  -437.14150447942683   -2.43354e-06   8.33760e-06 DIIS
   @DF-RKS iter   7:  -437.14150467284230   -1.93415e-07   1.25048e-06 DIIS
   @DF-RKS iter   8:  -437.14150467852869   -5.68639e-09   2.10447e-07 DIIS
   @DF-RKS iter   9:  -437.14150467865210   -1.23407e-10   2.74045e-08 DIIS
   @DF-RKS iter  10:  -437.14150467865517   -3.06954e-12   5.79359e-09 DIIS
  Energy and wave function converged.


  ==> Post-Iterations <==

    Orbital Energies [Eh]
    ---------------------

    Doubly Occupied:                                                      

       1A1   -89.154001     2A1   -10.373727     3A1    -8.111439  
       4A1    -6.021148     1B2    -6.016074     1B1    -6.006948  
       5A1    -1.043914     6A1    -0.669789     2B1    -0.618471  
       2B2    -0.511602     7A1    -0.510100     3B1    -0.291325  

    Virtual:                                                              

       8A1     0.020739     4B1     0.034137     3B2     0.036298  
       9A1     0.049900     4B2     0.074498    10A1     0.095377  
       5B1     0.114738     5B2     0.141193    11A1     0.142145  
       6B1     0.145585    12A1     0.198933    13A1     0.227185  
       1A2     0.255686     7B1     0.265601    14A1     0.315010  
      15A1     0.356975    16A1     0.372001     6B2     0.377285  
       2A2     0.400795     8B1     0.423555     9B1     0.468568  
      17A1     0.474385     7B2     0.499772    10B1     0.523207  
      18A1     0.545876    19A1     0.601067     8B2     0.612738  
       3A2     0.636485    20A1     0.641667    11B1     0.665065  
       9B2     0.701557    12B1     0.799298    21A1     0.800049  
      10B2     0.836551    22A1     0.865891     4A2     0.928538  
      23A1     0.943412    13B1     1.026832    11B2     1.029300  
      14B1     1.075982    24A1     1.301753    25A1     1.442284  
       5A2     1.448277    15B1     1.486522    26A1     1.533839  
      12B2     1.650503    27A1     1.720145    16B1     1.768320  
      28A1     2.015088     6A2     2.040494    13B2     2.043175  
      29A1     2.179591    17B1     2.244324    30A1     2.576682  
      31A1     2.629643    18B1     2.768955     7A2     4.716002  
      32A1     4.738246    14B2     4.756008    19B1     4.807246  
      33A1     4.852376  

    Final Occupation by Irrep:
             A1    A2    B1    B2 
    DOCC [     7,    0,    3,    2 ]

  @DF-RKS Final Energy:  -437.14150467865517

   => Energetics <=

    Nuclear Repulsion Energy =             56.5402281691856317
    One-Electron Energy =                -713.5511807234481694
    Two-Electron Energy =                 244.0454100290083943
    DFT Exchange-Correlation Energy =     -24.2750240608059968
    Empirical Dispersion Energy =           0.0000000000000000
    VV10 Nonlocal Energy =                  0.0990619074050207
    Total Energy =                       -437.1415046786551102

Computation Completed


Properties will be evaluated at   0.000000,   0.000000,   0.000000 [a0]

Properties computed using the SCF density matrix

  Nuclear Dipole Moment: [e a0]
     X:     0.0000      Y:     0.0000      Z:     2.5999

  Electronic Dipole Moment: [e a0]
     X:     0.0000      Y:     0.0000      Z:    -2.2189

  Dipole Moment: [e a0]
     X:     0.0000      Y:     0.0000      Z:     0.3810     Total:     0.3810

  Dipole Moment: [D]
     X:     0.0000      Y:     0.0000      Z:     0.9684     Total:     0.9684


*** tstop() called on bp1-compute00090.data.bp.acrc.priv at Tue Apr 27 17:58:54 2021
Module time:
	user time   =      85.16 seconds =       1.42 minutes
	system time =       2.41 seconds =       0.04 minutes
	total time  =          4 seconds =       0.07 minutes
Total time:
	user time   =     435.57 seconds =       7.26 minutes
	system time =      15.36 seconds =       0.26 minutes
	total time  =         20 seconds =       0.33 minutes

  //>>>>>>>>>>>>>>>>>>>>>>>>>>>>>>>>>>>//
  //    Loading displacement 6 of 7    //
  //<<<<<<<<<<<<<<<<<<<<<<<<<<<<<<<<<<<//

*** tstart() called on bp1-compute00090.data.bp.acrc.priv
*** at Tue Apr 27 17:58:54 2021

   => Loading Basis Set <=

    Name: AUG-CC-PV(D+D)Z
    Role: ORBITAL
    Keyword: BASIS
    atoms 1   entry S          line   724 file /work/zw18965/.conda/envs/p4env/share/psi4/basis/aug-cc-pv_dpd_z.gbs 
    atoms 2   entry C          line   198 file /work/zw18965/.conda/envs/p4env/share/psi4/basis/aug-cc-pv_dpd_z.gbs 
    atoms 3-4 entry H          line    56 file /work/zw18965/.conda/envs/p4env/share/psi4/basis/aug-cc-pv_dpd_z.gbs 


         ---------------------------------------------------------
                                   SCF
               by Justin Turney, Rob Parrish, Andy Simmonett
                          and Daniel G. A. Smith
                              RKS Reference
                       24 Threads, 137329 MiB Core
         ---------------------------------------------------------

  ==> Geometry <==

    Molecular point group: c2v
    Full point group: C2v

    Geometry (in Angstrom), charge = 0, multiplicity = 1:

       Center              X                  Y                   Z               Mass       
    ------------   -----------------  -----------------  -----------------  -----------------
         S            0.000000000000    -0.000000000000    -0.393177456854    31.972071174400
         C            0.000000000000    -0.000000000000     0.813422543146    12.000000000000
         H            0.935090763668     0.000000000000     1.393906197546     1.007825032230
         H           -0.935090763668    -0.000000000000     1.393906197546     1.007825032230

  Running in c2v symmetry.

  Rotational constants: A =      9.56475  B =      1.00351  C =      0.90822 [cm^-1]
  Rotational constants: A = 286744.12463  B =  30084.32876  C =  27227.68243 [MHz]
  Nuclear repulsion =   56.550885103772920

  Charge       = 0
  Multiplicity = 1
  Electrons    = 24
  Nalpha       = 12
  Nbeta        = 12

  ==> Algorithm <==

  SCF Algorithm Type is DF.
  DIIS enabled.
  MOM disabled.
  Fractional occupation disabled.
  Guess Type is SAD.
  Energy threshold   = 1.00e-08
  Density threshold  = 1.00e-08
  Integral threshold = 0.00e+00

  ==> Primary Basis <==

  Basis Set: AUG-CC-PV(D+D)Z
    Blend: AUG-CC-PV(D+D)Z
    Number of shells: 31
    Number of basis function: 73
    Number of Cartesian functions: 78
    Spherical Harmonics?: true
    Max angular momentum: 2

  ==> DFT Potential <==

   => Composite Functional: WB97M-V <= 

    wB97M-V Hyb-GGA Exchange-Correlation Functional

    N. Mardirossian and M. Head-Gordon, J. Chem. Phys. 144, 214110 (2016)

    Deriv               =              1
    GGA                 =           TRUE
    Meta                =           TRUE

    Exchange Hybrid     =           TRUE
    MP2 Hybrid          =          FALSE

   => Exchange-Correlation Functionals <=

    1.0000   wB97M-V exchange-correlation functional

   => Exact (HF) Exchange <=

    0.8500            HF,LR [omega = 0.3000]
    0.1500               HF 

   => VV10 Non-Local Parameters <=

    VV10 B              =     6.0000E+00
    VV10 C              =     1.0000E-02

   => Molecular Quadrature <=

    Radial Scheme          =       TREUTLER
    Pruning Scheme         =           FLAT
    Nuclear Scheme         =       TREUTLER

    BS radius alpha        =              1
    Pruning alpha          =              1
    Radial Points          =             75
    Spherical Points       =            302
    Total Points           =          90600
    Total Blocks           =            754
    Max Points             =            254
    Max Functions          =             73

   => Loading Basis Set <=

    Name: (AUG-CC-PV(D+D)Z AUX)
    Role: JKFIT
    Keyword: DF_BASIS_SCF
    atoms 1   entry S          line   690 file /work/zw18965/.conda/envs/p4env/share/psi4/basis/aug-cc-pvdz-jkfit.gbs 
    atoms 2   entry C          line   154 file /work/zw18965/.conda/envs/p4env/share/psi4/basis/aug-cc-pvdz-jkfit.gbs 
    atoms 3-4 entry H          line    70 file /work/zw18965/.conda/envs/p4env/share/psi4/basis/aug-cc-pvdz-jkfit.gbs 

  ==> Pre-Iterations <==

   -------------------------------------------------------
    Irrep   Nso     Nmo     Nalpha   Nbeta   Ndocc  Nsocc
   -------------------------------------------------------
     A1        33      33       0       0       0       0
     A2         7       7       0       0       0       0
     B1        19      19       0       0       0       0
     B2        14      14       0       0       0       0
   -------------------------------------------------------
    Total      73      73      12      12      12       0
   -------------------------------------------------------

  ==> Integral Setup <==

  ==> DiskDFJK: Density-Fitted J/K Matrices <==

    J tasked:                  Yes
    K tasked:                  Yes
    wK tasked:                 Yes
    Omega:               3.000E-01
    OpenMP threads:             24
    Integrals threads:          24
    Memory [MiB]:           102533
    Algorithm:                Core
    Integral Cache:           NONE
    Schwarz Cutoff:          1E-12
    Fitting Condition:       1E-10

   => Auxiliary Basis Set <=

  Basis Set: (AUG-CC-PV(D+D)Z AUX)
    Blend: AUG-CC-PVDZ-JKFIT
    Number of shells: 92
    Number of basis function: 278
    Number of Cartesian functions: 321
    Spherical Harmonics?: true
    Max angular momentum: 3

  Cached 100.0% of DFT collocation blocks in 0.452 [GiB].

  Minimum eigenvalue in the overlap matrix is 1.3856938729E-04.
  Using Symmetric Orthogonalization.

  SCF Guess: Superposition of Atomic Densities via on-the-fly atomic UHF.

  ==> Iterations <==

                           Total Energy        Delta E     RMS |[F,P]|

   @DF-RKS iter SAD:  -437.64792043505287   -4.37648e+02   0.00000e+00 
   @DF-RKS iter   1:  -436.99433728754695    6.53583e-01   1.37504e-02 DIIS
   @DF-RKS iter   2:  -437.04868214069859   -5.43449e-02   1.07633e-02 DIIS
   @DF-RKS iter   3:  -437.14025701247181   -9.15749e-02   9.58296e-04 DIIS
   @DF-RKS iter   4:  -437.14102681100616   -7.69799e-04   2.56159e-04 DIIS
   @DF-RKS iter   5:  -437.14110827717087   -8.14662e-05   4.08529e-05 DIIS
   @DF-RKS iter   6:  -437.14111071470182   -2.43753e-06   8.34179e-06 DIIS
   @DF-RKS iter   7:  -437.14111090826697   -1.93565e-07   1.25025e-06 DIIS
   @DF-RKS iter   8:  -437.14111091395546   -5.68849e-09   2.10483e-07 DIIS
   @DF-RKS iter   9:  -437.14111091407995   -1.24487e-10   2.74550e-08 DIIS
   @DF-RKS iter  10:  -437.14111091408267   -2.72848e-12   5.80286e-09 DIIS
  Energy and wave function converged.


  ==> Post-Iterations <==

    Orbital Energies [Eh]
    ---------------------

    Doubly Occupied:                                                      

       1A1   -89.154018     2A1   -10.373613     3A1    -8.111493  
       4A1    -6.021210     1B2    -6.016118     1B1    -6.006995  
       5A1    -1.043914     6A1    -0.670158     2B1    -0.618234  
       2B2    -0.511672     7A1    -0.510270     3B1    -0.291335  

    Virtual:                                                              

       8A1     0.020729     4B1     0.034170     3B2     0.036308  
       9A1     0.049887     4B2     0.074498    10A1     0.095392  
       5B1     0.114727     5B2     0.141195    11A1     0.142165  
       6B1     0.145644    12A1     0.199365    13A1     0.227240  
       1A2     0.255865     7B1     0.265388    14A1     0.315058  
      15A1     0.356856    16A1     0.371743     6B2     0.377147  
       2A2     0.400840     8B1     0.424120     9B1     0.468405  
      17A1     0.474587     7B2     0.500122    10B1     0.523435  
      18A1     0.546568    19A1     0.601246     8B2     0.612814  
       3A2     0.636541    20A1     0.641807    11B1     0.664707  
       9B2     0.701594    12B1     0.799172    21A1     0.800022  
      10B2     0.836472    22A1     0.865096     4A2     0.928367  
      23A1     0.943434    13B1     1.027555    11B2     1.029476  
      14B1     1.075941    24A1     1.303205    25A1     1.442449  
       5A2     1.448101    15B1     1.485589    26A1     1.532896  
      12B2     1.650383    27A1     1.720410    16B1     1.770177  
      28A1     2.015199     6A2     2.039935    13B2     2.045068  
      29A1     2.182369    17B1     2.244057    30A1     2.579332  
      31A1     2.628437    18B1     2.771414     7A2     4.715961  
      32A1     4.738151    14B2     4.755913    19B1     4.807121  
      33A1     4.852559  

    Final Occupation by Irrep:
             A1    A2    B1    B2 
    DOCC [     7,    0,    3,    2 ]

  @DF-RKS Final Energy:  -437.14111091408267

   => Energetics <=

    Nuclear Repulsion Energy =             56.5508851037729201
    One-Electron Energy =                -713.5703951202167445
    Two-Electron Energy =                 244.0549108459767922
    DFT Exchange-Correlation Energy =     -24.2755753155957059
    Empirical Dispersion Energy =           0.0000000000000000
    VV10 Nonlocal Energy =                  0.0990635719801155
    Total Energy =                       -437.1411109140826170

Computation Completed


Properties will be evaluated at   0.000000,   0.000000,   0.000000 [a0]

Properties computed using the SCF density matrix

  Nuclear Dipole Moment: [e a0]
     X:     0.0000      Y:     0.0000      Z:     2.6031

  Electronic Dipole Moment: [e a0]
     X:     0.0000      Y:     0.0000      Z:    -2.2221

  Dipole Moment: [e a0]
     X:     0.0000      Y:     0.0000      Z:     0.3810     Total:     0.3810

  Dipole Moment: [D]
     X:     0.0000      Y:     0.0000      Z:     0.9685     Total:     0.9685


*** tstop() called on bp1-compute00090.data.bp.acrc.priv at Tue Apr 27 17:58:58 2021
Module time:
	user time   =      91.25 seconds =       1.52 minutes
	system time =       2.43 seconds =       0.04 minutes
	total time  =          4 seconds =       0.07 minutes
Total time:
	user time   =     526.96 seconds =       8.78 minutes
	system time =      17.80 seconds =       0.30 minutes
	total time  =         24 seconds =       0.40 minutes

  //>>>>>>>>>>>>>>>>>>>>>>>>>>>>>>>>>>>//
  //    Loading displacement 7 of 7    //
  //<<<<<<<<<<<<<<<<<<<<<<<<<<<<<<<<<<<//

*** tstart() called on bp1-compute00090.data.bp.acrc.priv
*** at Tue Apr 27 17:58:58 2021

   => Loading Basis Set <=

    Name: AUG-CC-PV(D+D)Z
    Role: ORBITAL
    Keyword: BASIS
    atoms 1   entry S          line   724 file /work/zw18965/.conda/envs/p4env/share/psi4/basis/aug-cc-pv_dpd_z.gbs 
    atoms 2   entry C          line   198 file /work/zw18965/.conda/envs/p4env/share/psi4/basis/aug-cc-pv_dpd_z.gbs 
    atoms 3-4 entry H          line    56 file /work/zw18965/.conda/envs/p4env/share/psi4/basis/aug-cc-pv_dpd_z.gbs 


         ---------------------------------------------------------
                                   SCF
               by Justin Turney, Rob Parrish, Andy Simmonett
                          and Daniel G. A. Smith
                              RKS Reference
                       24 Threads, 137329 MiB Core
         ---------------------------------------------------------

  ==> Geometry <==

    Molecular point group: c2v
    Full point group: C2v

    Geometry (in Angstrom), charge = 0, multiplicity = 1:

       Center              X                  Y                   Z               Mass       
    ------------   -----------------  -----------------  -----------------  -----------------
         S            0.000000000000    -0.000000000000    -0.393177456854    31.972071174400
         C            0.000000000000    -0.000000000000     0.813422543146    12.000000000000
         H            0.938818056932     0.000000000000     1.393906197546     1.007825032230
         H           -0.938818056932    -0.000000000000     1.393906197546     1.007825032230

  Running in c2v symmetry.

  Rotational constants: A =      9.48896  B =      1.00351  C =      0.90753 [cm^-1]
  Rotational constants: A = 284471.78271  B =  30084.32876  C =  27207.04612 [MHz]
  Nuclear repulsion =   56.526001503822336

  Charge       = 0
  Multiplicity = 1
  Electrons    = 24
  Nalpha       = 12
  Nbeta        = 12

  ==> Algorithm <==

  SCF Algorithm Type is DF.
  DIIS enabled.
  MOM disabled.
  Fractional occupation disabled.
  Guess Type is SAD.
  Energy threshold   = 1.00e-08
  Density threshold  = 1.00e-08
  Integral threshold = 0.00e+00

  ==> Primary Basis <==

  Basis Set: AUG-CC-PV(D+D)Z
    Blend: AUG-CC-PV(D+D)Z
    Number of shells: 31
    Number of basis function: 73
    Number of Cartesian functions: 78
    Spherical Harmonics?: true
    Max angular momentum: 2

  ==> DFT Potential <==

   => Composite Functional: WB97M-V <= 

    wB97M-V Hyb-GGA Exchange-Correlation Functional

    N. Mardirossian and M. Head-Gordon, J. Chem. Phys. 144, 214110 (2016)

    Deriv               =              1
    GGA                 =           TRUE
    Meta                =           TRUE

    Exchange Hybrid     =           TRUE
    MP2 Hybrid          =          FALSE

   => Exchange-Correlation Functionals <=

    1.0000   wB97M-V exchange-correlation functional

   => Exact (HF) Exchange <=

    0.8500            HF,LR [omega = 0.3000]
    0.1500               HF 

   => VV10 Non-Local Parameters <=

    VV10 B              =     6.0000E+00
    VV10 C              =     1.0000E-02

   => Molecular Quadrature <=

    Radial Scheme          =       TREUTLER
    Pruning Scheme         =           FLAT
    Nuclear Scheme         =       TREUTLER

    BS radius alpha        =              1
    Pruning alpha          =              1
    Radial Points          =             75
    Spherical Points       =            302
    Total Points           =          90600
    Total Blocks           =            753
    Max Points             =            255
    Max Functions          =             73

   => Loading Basis Set <=

    Name: (AUG-CC-PV(D+D)Z AUX)
    Role: JKFIT
    Keyword: DF_BASIS_SCF
    atoms 1   entry S          line   690 file /work/zw18965/.conda/envs/p4env/share/psi4/basis/aug-cc-pvdz-jkfit.gbs 
    atoms 2   entry C          line   154 file /work/zw18965/.conda/envs/p4env/share/psi4/basis/aug-cc-pvdz-jkfit.gbs 
    atoms 3-4 entry H          line    70 file /work/zw18965/.conda/envs/p4env/share/psi4/basis/aug-cc-pvdz-jkfit.gbs 

  ==> Pre-Iterations <==

   -------------------------------------------------------
    Irrep   Nso     Nmo     Nalpha   Nbeta   Ndocc  Nsocc
   -------------------------------------------------------
     A1        33      33       0       0       0       0
     A2         7       7       0       0       0       0
     B1        19      19       0       0       0       0
     B2        14      14       0       0       0       0
   -------------------------------------------------------
    Total      73      73      12      12      12       0
   -------------------------------------------------------

  ==> Integral Setup <==

  ==> DiskDFJK: Density-Fitted J/K Matrices <==

    J tasked:                  Yes
    K tasked:                  Yes
    wK tasked:                 Yes
    Omega:               3.000E-01
    OpenMP threads:             24
    Integrals threads:          24
    Memory [MiB]:           102533
    Algorithm:                Core
    Integral Cache:           NONE
    Schwarz Cutoff:          1E-12
    Fitting Condition:       1E-10

   => Auxiliary Basis Set <=

  Basis Set: (AUG-CC-PV(D+D)Z AUX)
    Blend: AUG-CC-PVDZ-JKFIT
    Number of shells: 92
    Number of basis function: 278
    Number of Cartesian functions: 321
    Spherical Harmonics?: true
    Max angular momentum: 3

  Cached 100.0% of DFT collocation blocks in 0.452 [GiB].

  Minimum eigenvalue in the overlap matrix is 1.3847527302E-04.
  Using Symmetric Orthogonalization.

  SCF Guess: Superposition of Atomic Densities via on-the-fly atomic UHF.

  ==> Iterations <==

                           Total Energy        Delta E     RMS |[F,P]|

   @DF-RKS iter SAD:  -437.64587158864151   -4.37646e+02   0.00000e+00 
   @DF-RKS iter   1:  -436.99474000545456    6.51132e-01   1.37253e-02 DIIS
   @DF-RKS iter   2:  -437.04878058105885   -5.40406e-02   1.07507e-02 DIIS
   @DF-RKS iter   3:  -437.14021041258462   -9.14298e-02   9.59711e-04 DIIS
   @DF-RKS iter   4:  -437.14098194434075   -7.71532e-04   2.56408e-04 DIIS
   @DF-RKS iter   5:  -437.14106356216610   -8.16178e-05   4.06120e-05 DIIS
   @DF-RKS iter   6:  -437.14106598559749   -2.42343e-06   8.32874e-06 DIIS
   @DF-RKS iter   7:  -437.14106617779134   -1.92194e-07   1.24687e-06 DIIS
   @DF-RKS iter   8:  -437.14106618343891   -5.64756e-09   2.10883e-07 DIIS
   @DF-RKS iter   9:  -437.14106618355981   -1.20906e-10   2.70469e-08 DIIS
   @DF-RKS iter  10:  -437.14106618356271   -2.89901e-12   5.64904e-09 DIIS
  Energy and wave function converged.


  ==> Post-Iterations <==

    Orbital Energies [Eh]
    ---------------------

    Doubly Occupied:                                                      

       1A1   -89.154081     2A1   -10.374174     3A1    -8.111572  
       4A1    -6.021288     1B2    -6.016192     1B1    -6.007078  
       5A1    -1.043919     6A1    -0.669216     2B1    -0.617864  
       2B2    -0.511720     7A1    -0.510161     3B1    -0.291319  

    Virtual:                                                              

       8A1     0.020760     4B1     0.034138     3B2     0.036288  
       9A1     0.049866     4B2     0.074500    10A1     0.095360  
       5B1     0.114645     5B2     0.141181    11A1     0.142183  
       6B1     0.145587    12A1     0.198565    13A1     0.227161  
       1A2     0.255660     7B1     0.265017    14A1     0.314920  
      15A1     0.356592    16A1     0.371919     6B2     0.377153  
       2A2     0.400642     8B1     0.423429     9B1     0.468643  
      17A1     0.474422     7B2     0.499841    10B1     0.523142  
      18A1     0.545498    19A1     0.600842     8B2     0.612516  
       3A2     0.636409    20A1     0.641629    11B1     0.664740  
       9B2     0.701559    12B1     0.799016    21A1     0.799908  
      10B2     0.836414    22A1     0.865078     4A2     0.928336  
      23A1     0.943234    13B1     1.026669    11B2     1.029450  
      14B1     1.075919    24A1     1.302116    25A1     1.442660  
       5A2     1.448216    15B1     1.486205    26A1     1.533335  
      12B2     1.649962    27A1     1.718744    16B1     1.767111  
      28A1     2.013803     6A2     2.038606    13B2     2.042715  
      29A1     2.177821    17B1     2.240021    30A1     2.573716  
      31A1     2.626867    18B1     2.764667     7A2     4.715840  
      32A1     4.738107    14B2     4.755832    19B1     4.807047  
      33A1     4.852122  

    Final Occupation by Irrep:
             A1    A2    B1    B2 
    DOCC [     7,    0,    3,    2 ]

  @DF-RKS Final Energy:  -437.14106618356271

   => Energetics <=

    Nuclear Repulsion Energy =             56.5260015038223358
    One-Electron Energy =                -713.5224577239928294
    Two-Electron Energy =                 244.0301801407206312
    DFT Exchange-Correlation Energy =     -24.2738502753396510
    Empirical Dispersion Energy =           0.0000000000000000
    VV10 Nonlocal Energy =                  0.0990601712267483
    Total Energy =                       -437.1410661835627138

Computation Completed


Properties will be evaluated at   0.000000,   0.000000,   0.000000 [a0]

Properties computed using the SCF density matrix

  Nuclear Dipole Moment: [e a0]
     X:     0.0000      Y:     0.0000      Z:     2.6031

  Electronic Dipole Moment: [e a0]
     X:     0.0000      Y:     0.0000      Z:    -2.2265

  Dipole Moment: [e a0]
     X:     0.0000      Y:     0.0000      Z:     0.3766     Total:     0.3766

  Dipole Moment: [D]
     X:     0.0000      Y:     0.0000      Z:     0.9573     Total:     0.9573


*** tstop() called on bp1-compute00090.data.bp.acrc.priv at Tue Apr 27 17:59:01 2021
Module time:
	user time   =      84.89 seconds =       1.41 minutes
	system time =       2.54 seconds =       0.04 minutes
	total time  =          3 seconds =       0.05 minutes
Total time:
	user time   =     611.98 seconds =      10.20 minutes
	system time =      20.35 seconds =       0.34 minutes
	total time  =         27 seconds =       0.45 minutes

         ----------------------------------------------------------
                                   FINDIF
                     R. A. King and Jonathon Misiewicz
         ---------------------------------------------------------

  Computing gradient from energies.
    Using 3-point formula.
    Energy without displacement: -437.1410916856
    Check energies below for precision!
    Forces are for mass-weighted, symmetry-adapted cartesians (in au).

     Coord      Energy(-1)        Energy(+1)            Force
        0   -437.1428202401   -437.1393551090      0.3465131110
        1   -437.1406738585   -437.1415046787     -0.0830820145
        2   -437.1411109141   -437.1410661836      0.0044730520


-------------------------------------------------------------
  ## New Matrix (Symmetry 0) ##
  Irrep: 1 Size: 4 x 3

                 1                   2                   3

    1     0.00000000000000     0.00000000000000     1.08165991355530
    2     0.00000000000000     0.00000000000000    -1.03524549346684
    3     0.00317527628114     0.00000000000000    -0.02320721004423
    4    -0.00317527628114     0.00000000000000    -0.02320721004423




			-----------------------------------------
			 OPTKING 2.0: for geometry optimizations 
			  - R.A. King,  Bethel University        
			-----------------------------------------
	At level 1: Red. Int., RFO, no backsteps, dynamic trust

	Internal coordinates to be generated automatically.
	Detected frag 1 with atoms:  1 2 3 4
	---Fragment 1 Bond Connectivity---
	 1 : 2
	 2 : 1 3 4
	 3 : 2
	 4 : 2

	---Fragment 1 Geometry and Gradient---
	 S           0.0000000000       -0.0000000000       -0.7429977122
	 C           0.0000000000       -0.0000000000        1.5371458308
	 H           1.7705872275        0.0000000000        2.6341009579
	 H          -1.7705872275       -0.0000000000        2.6341009579
	             0.0000000000        0.0000000000        1.0816599136
	             0.0000000000        0.0000000000       -1.0352454935
	             0.0031752763        0.0000000000       -0.0232072100
	            -0.0031752763        0.0000000000       -0.0232072100

	Previous optimization step data not found.  Starting new optimization.

	---Fragment 1 Intrafragment Coordinates---
	 - Coordinate -           - BOHR/RAD -       - ANG/DEG -
	 R(1,2)           =         2.280144	       1.206600
	 R(2,3)           =         2.082856	       1.102200
	 R(2,4)           =         2.082856	       1.102200
	 B(1,2,3)         =         2.125462	     121.780000
	 B(1,2,4)         =         2.125462	     121.780000
	 B(3,2,4)         =         2.032261	     116.440000

	Current energy   :      -437.1410916856

	Generating empirical Hessian (Schlegel '84) for each fragment.
	Taking RFO optimization step.
	Going to follow RFO solution 1.
	Using RFO vector 1.
	Norm of target step-size    0.26821
	Projected energy change by RFO approximation:        -0.2517381646

	Back-transformation to cartesian coordinates...
	Successfully converged to displaced geometry.

	--- Internal Coordinate Step in ANG or DEG, aJ/ANG or AJ/DEG ---
	 ---------------------------------------------------------------------------
	   Coordinate                Previous        Force       Change         New 
	   ----------                --------       ------       ------       ------
	    1 R(1,2)          =      1.206600     8.911495     0.134448     1.341048
	    2 R(2,3)          =      1.102200     0.078458     0.008227     1.110427
	    3 R(2,4)          =      1.102200     0.078458     0.008227     1.110427
	    4 B(1,2,3)        =    121.780000     0.001131     1.942982   123.722982
	    5 B(1,2,4)        =    121.780000     0.001131     1.942982   123.722982
	    6 B(3,2,4)        =    116.440000    -0.002261    -3.885963   112.554037
	 ---------------------------------------------------------------------------
	Successfully symmetrized geometry.

  ==> Convergence Check <==

  Measures of convergence in internal coordinates in au.
  Criteria marked as inactive (o), active & met (*), and active & unmet ( ).
  --------------------------------------------------------------------------------------------- ~
   Step     Total Energy     Delta E     MAX Force     RMS Force      MAX Disp      RMS Disp    ~
  --------------------------------------------------------------------------------------------- ~
    Convergence Criteria    1.00e-06 *    3.00e-04 *             o    1.20e-03 *             o  ~
  --------------------------------------------------------------------------------------------- ~
      1    -437.14109169   -4.37e+02      1.08e+00      4.42e-01 o    2.54e-01      1.09e-01 o  ~
  ---------------------------------------------------------------------------------------------

	Writing optimization data to binary file.
	Structure for next step:
	Cartesian Geometry (in Angstrom)
	    S     0.0000000000   0.0000000000  -0.5120141215
	    C     0.0000000000  -0.0000000000   0.8290340131
	    H     0.9235771793   0.0000000000   1.4455187886
	    H    -0.9235771793  -0.0000000000   1.4455187886
			--------------------------
			 OPTKING Finished Execution 
			--------------------------

    Structure for next step:
    Molecular point group: c2v
    Full point group: C2v

    Geometry (in Angstrom), charge = 0, multiplicity = 1:

    S            0.000000000000    -0.000000000000    -0.435731071054
    C            0.000000000000    -0.000000000000     0.905317068837
    H            0.923577182906     0.000000000000     1.521801846789
    H           -0.923577182906    -0.000000000000     1.521801846789

gradient() will perform gradient computation by finite difference of analytic energies.

[...]
  //   Loading displacement 18 of 18   //
  //<<<<<<<<<<<<<<<<<<<<<<<<<<<<<<<<<<<//

*** tstart() called on bp1-compute00090.data.bp.acrc.priv
*** at Tue Apr 27 18:03:04 2021

   => Loading Basis Set <=

    Name: AUG-CC-PV(D+D)Z
    Role: ORBITAL
    Keyword: BASIS
    atoms 1   entry S          line   724 file /work/zw18965/.conda/envs/p4env/share/psi4/basis/aug-cc-pv_dpd_z.gbs 
    atoms 2   entry C          line   198 file /work/zw18965/.conda/envs/p4env/share/psi4/basis/aug-cc-pv_dpd_z.gbs 
    atoms 3-4 entry H          line    56 file /work/zw18965/.conda/envs/p4env/share/psi4/basis/aug-cc-pv_dpd_z.gbs 


         ---------------------------------------------------------
                                   SCF
               by Justin Turney, Rob Parrish, Andy Simmonett
                          and Daniel G. A. Smith
                              RKS Reference
                       24 Threads, 137329 MiB Core
         ---------------------------------------------------------

  ==> Geometry <==

    Molecular point group: cs
    Full point group: Cs

    Geometry (in Angstrom), charge = 0, multiplicity = 1:

       Center              X                  Y                   Z               Mass       
    ------------   -----------------  -----------------  -----------------  -----------------
         S            0.000000000000    -0.000036888405    -0.514783763342    31.972071174400
         C            0.000000000000     0.000370835607     1.091031581526    12.000000000000
         H            0.930010983958    -0.001622617247     1.670093535602     1.007825032230
         H           -0.930010983958    -0.001622617247     1.670093535602     1.007825032230

  Running in cs symmetry.

  Rotational constants: A =      9.66949  B =      0.59402  C =      0.55964 [cm^-1]
  Rotational constants: A = 289883.94497  B =  17808.23163  C =  16777.55637 [MHz]
  Nuclear repulsion =   44.847662066246158

  Charge       = 0
  Multiplicity = 1
  Electrons    = 24
  Nalpha       = 12
  Nbeta        = 12

  ==> Algorithm <==

  SCF Algorithm Type is DF.
  DIIS enabled.
  MOM disabled.
  Fractional occupation disabled.
  Guess Type is SAD.
  Energy threshold   = 1.00e-10
  Density threshold  = 1.00e-10
  Integral threshold = 0.00e+00

  ==> Primary Basis <==

  Basis Set: AUG-CC-PV(D+D)Z
    Blend: AUG-CC-PV(D+D)Z
    Number of shells: 31
    Number of basis function: 73
    Number of Cartesian functions: 78
    Spherical Harmonics?: true
    Max angular momentum: 2

  ==> DFT Potential <==

   => Composite Functional: WB97M-V <= 

    wB97M-V Hyb-GGA Exchange-Correlation Functional

    N. Mardirossian and M. Head-Gordon, J. Chem. Phys. 144, 214110 (2016)

    Deriv               =              1
    GGA                 =           TRUE
    Meta                =           TRUE

    Exchange Hybrid     =           TRUE
    MP2 Hybrid          =          FALSE

   => Exchange-Correlation Functionals <=

    1.0000   wB97M-V exchange-correlation functional

   => Exact (HF) Exchange <=

    0.8500            HF,LR [omega = 0.3000]
    0.1500               HF 

   => VV10 Non-Local Parameters <=

    VV10 B              =     6.0000E+00
    VV10 C              =     1.0000E-02

   => Molecular Quadrature <=

    Radial Scheme          =       TREUTLER
    Pruning Scheme         =           FLAT
    Nuclear Scheme         =       TREUTLER

    BS radius alpha        =              1
    Pruning alpha          =              1
    Radial Points          =             75
    Spherical Points       =            302
    Total Points           =          90600
    Total Blocks           =            754
    Max Points             =            256
    Max Functions          =             73

   => Loading Basis Set <=

    Name: (AUG-CC-PV(D+D)Z AUX)
    Role: JKFIT
    Keyword: DF_BASIS_SCF
    atoms 1   entry S          line   690 file /work/zw18965/.conda/envs/p4env/share/psi4/basis/aug-cc-pvdz-jkfit.gbs 
    atoms 2   entry C          line   154 file /work/zw18965/.conda/envs/p4env/share/psi4/basis/aug-cc-pvdz-jkfit.gbs 
    atoms 3-4 entry H          line    70 file /work/zw18965/.conda/envs/p4env/share/psi4/basis/aug-cc-pvdz-jkfit.gbs 

  ==> Pre-Iterations <==

   -------------------------------------------------------
    Irrep   Nso     Nmo     Nalpha   Nbeta   Ndocc  Nsocc
   -------------------------------------------------------
     A'        47      47       0       0       0       0
     A"        26      26       0       0       0       0
   -------------------------------------------------------
    Total      73      73      12      12      12       0
   -------------------------------------------------------

  ==> Integral Setup <==

  ==> DiskDFJK: Density-Fitted J/K Matrices <==

    J tasked:                  Yes
    K tasked:                  Yes
    wK tasked:                 Yes
    Omega:               3.000E-01
    OpenMP threads:             24
    Integrals threads:          24
    Memory [MiB]:           102536
    Algorithm:                Core
    Integral Cache:           NONE
    Schwarz Cutoff:          1E-12
    Fitting Condition:       1E-10

   => Auxiliary Basis Set <=

  Basis Set: (AUG-CC-PV(D+D)Z AUX)
    Blend: AUG-CC-PVDZ-JKFIT
    Number of shells: 92
    Number of basis function: 278
    Number of Cartesian functions: 321
    Spherical Harmonics?: true
    Max angular momentum: 3

  Cached 100.0% of DFT collocation blocks in 0.449 [GiB].

  Minimum eigenvalue in the overlap matrix is 5.1925175795E-04.
  Using Symmetric Orthogonalization.

  SCF Guess: Superposition of Atomic Densities via on-the-fly atomic UHF.

  ==> Iterations <==

                           Total Energy        Delta E     RMS |[F,P]|

   @DF-RKS iter SAD:  -436.94796215540953   -4.36948e+02   0.00000e+00 
   @DF-RKS iter   1:  -437.37281195312846   -4.24850e-01   5.84176e-03 DIIS
   @DF-RKS iter   2:  -437.39118446741224   -1.83725e-02   4.96515e-03 DIIS
   @DF-RKS iter   3:  -437.42785222105766   -3.66678e-02   8.62005e-04 DIIS
   @DF-RKS iter   4:  -437.42914081673490   -1.28860e-03   2.05533e-04 DIIS
   @DF-RKS iter   5:  -437.42924491308946   -1.04096e-04   4.82903e-05 DIIS
   @DF-RKS iter   6:  -437.42925044186507   -5.52878e-06   1.72944e-05 DIIS
   @DF-RKS iter   7:  -437.42925149000848   -1.04814e-06   3.65590e-06 DIIS
   @DF-RKS iter   8:  -437.42925156082367   -7.08152e-08   5.97675e-07 DIIS
   @DF-RKS iter   9:  -437.42925156250107   -1.67739e-09   1.17480e-07 DIIS
   @DF-RKS iter  10:  -437.42925156254853   -4.74643e-11   1.29529e-08 DIIS
   @DF-RKS iter  11:  -437.42925156254950   -9.66338e-13   3.01228e-09 DIIS
   @DF-RKS iter  12:  -437.42925156254944    5.68434e-14   4.64787e-10 DIIS
   @DF-RKS iter  13:  -437.42925156254967   -2.27374e-13   1.71282e-10 DIIS
   @DF-RKS iter  14:  -437.42925156254915    5.11591e-13   4.17325e-11 DIIS
  Energy and wave function converged.


  ==> Post-Iterations <==

    Orbital Energies [Eh]
    ---------------------

    Doubly Occupied:                                                      

       1Ap   -89.206357     2Ap   -10.433766     3Ap    -8.126885  
       4Ap    -6.036636     5Ap    -6.035161     1App   -6.027170  
       6Ap    -0.926648     7Ap    -0.717088     2App   -0.571546  
       8Ap    -0.499272     9Ap    -0.419286     3App   -0.328819  

    Virtual:                                                              

      10Ap    -0.016754    11Ap     0.016436     4App    0.036164  
      12Ap     0.048701    13Ap     0.082939    14Ap     0.096371  
       5App    0.117177    15Ap     0.125391    16Ap     0.139069  
       6App    0.153579    17Ap     0.199153    18Ap     0.224721  
       7App    0.243173    19Ap     0.244150     8App    0.266945  
      20Ap     0.340678    21Ap     0.361647    22Ap     0.361774  
       9App    0.377812    10App    0.418101    23Ap     0.455422  
      11App    0.458574    24Ap     0.475200    12App    0.526968  
      25Ap     0.537166    26Ap     0.572046    27Ap     0.592728  
      13App    0.601163    28Ap     0.607324    14App    0.618467  
      29Ap     0.711965    30Ap     0.793965    15App    0.796767  
      31Ap     0.845421    32Ap     0.846529    33Ap     0.934355  
      16App    0.938877    34Ap     0.954590    17App    0.956969  
      18App    1.066843    35Ap     1.114906    36Ap     1.238164  
      19App    1.376214    37Ap     1.379886    20App    1.400186  
      38Ap     1.515495    39Ap     1.649691    21App    1.736464  
      40Ap     1.777018    41Ap     1.922522    22App    2.023349  
      42Ap     2.042311    23App    2.049089    43Ap     2.337044  
      44Ap     2.562120    24App    2.606815    25App    4.700185  
      45Ap     4.711249    46Ap     4.749703    26App    4.798597  
      47Ap     4.823194  

    Final Occupation by Irrep:
             Ap   App 
    DOCC [     9,    3 ]

  @DF-RKS Final Energy:  -437.42925156254915

   => Energetics <=

    Nuclear Repulsion Energy =             44.8476620662461585
    One-Electron Energy =                -690.9061079820718305
    Two-Electron Energy =                 232.5263654997026208
    DFT Exchange-Correlation Energy =     -23.9964230935406349
    Empirical Dispersion Energy =           0.0000000000000000
    VV10 Nonlocal Energy =                  0.0992519471145532
    Total Energy =                       -437.4292515625491546

Computation Completed


Properties will be evaluated at   0.000000,   0.000000,   0.000000 [a0]

Properties computed using the SCF density matrix

  Nuclear Dipole Moment: [e a0]
     X:     0.0000      Y:    -0.0030      Z:     3.1177

  Electronic Dipole Moment: [e a0]
     X:     0.0000      Y:     0.0020      Z:    -2.4224

  Dipole Moment: [e a0]
     X:     0.0000      Y:    -0.0011      Z:     0.6953     Total:     0.6953

  Dipole Moment: [D]
     X:     0.0000      Y:    -0.0027      Z:     1.7674     Total:     1.7674


*** tstop() called on bp1-compute00090.data.bp.acrc.priv at Tue Apr 27 18:03:08 2021
Module time:
	user time   =     100.74 seconds =       1.68 minutes
	system time =       2.24 seconds =       0.04 minutes
	total time  =          4 seconds =       0.07 minutes
Total time:
	user time   =    6377.75 seconds =     106.30 minutes
	system time =     155.62 seconds =       2.59 minutes
	total time  =        274 seconds =       4.57 minutes

         ----------------------------------------------------------
                                   FINDIF
                     R. A. King and Jonathon Misiewicz
         ---------------------------------------------------------

  Computing second-derivative from energies using projected, 
  symmetry-adapted, cartesian coordinates.

  18 energies passed in, including the reference geometry.
    Using 3-point formula.
    Energy without displacement: -437.4292520813
    Check energies below for precision!
    0: -1        :      -437.4292514994
    0: 1         :      -437.4292514384
    1: -1        :      -437.4292500861
    1: 1         :      -437.4292500497
    2: -1        :      -437.4292485484
    2: 1         :      -437.4292485399
    0: 1, 1: 1   :      -437.4292495803
    0: -1, 1: -1 :      -437.4292496785
    0: 1, 2: 1   :      -437.4292478727
    0: -1, 2: -1 :      -437.4292479413
    1: 1, 2: 1   :      -437.4292496401
    1: -1, 2: -1 :      -437.4292497033
    3: -1        :      -437.4292516056
    4: -1        :      -437.4292472755
    3: 1, 4: 1   :      -437.4292468424
    3: -1, 4: -1 :      -437.4292468418
    5: -1        :      -437.4292515625

-------------------------------------------------------------


  ==> Harmonic Vibrational Analysis <==

  non-mass-weighted Hessian:       Symmetric? True   Hermitian? True   Lin Dep Dim?  6 (0)
  projection of translations (True) and rotations (True) removed 6 degrees of freedom (6)
  total projector:                 Symmetric? True   Hermitian? True   Lin Dep Dim?  6 (6)
  mass-weighted Hessian:           Symmetric? True   Hermitian? True   Lin Dep Dim?  6 (0)
  pre-proj  low-frequency mode:    0.0000  [cm^-1]
  pre-proj  low-frequency mode:    0.0000  [cm^-1]
  pre-proj  low-frequency mode:    0.0000  [cm^-1]
  pre-proj  low-frequency mode:    0.0000  [cm^-1]
  pre-proj  low-frequency mode:    0.0000  [cm^-1]
  pre-proj  low-frequency mode:    0.0000  [cm^-1]
  pre-proj  all modes:['0.0000' '0.0000' '0.0000' '0.0000' '0.0000' '0.0000' '1002.7279'
 '1047.2038' '1127.2462' '1482.9274' '3091.6982' '3187.4008']
  projected mass-weighted Hessian: Symmetric? True   Hermitian? True   Lin Dep Dim?  6 (6)
  post-proj low-frequency mode:    0.0001i [cm^-1] (TR)
  post-proj low-frequency mode:    0.0000i [cm^-1] (TR)
  post-proj low-frequency mode:    0.0000i [cm^-1] (TR)
  post-proj low-frequency mode:    0.0000  [cm^-1] (TR)
  post-proj low-frequency mode:    0.0000  [cm^-1] (TR)
  post-proj low-frequency mode:    0.0000  [cm^-1] (TR)
  post-proj  all modes:['0.0001i' '0.0000i' '0.0000i' '0.0000' '0.0000' '0.0000' '1002.7279'
 '1047.2038' '1127.2462' '1482.9274' '3091.6982' '3187.4008']

  Vibration                       7                   8                   9           
  Freq [cm^-1]                1002.7279           1047.2038           1127.2462       
  Irrep                           B1                  B2                  A1          
  Reduced mass [u]              1.2074              1.2953              4.0192        
  Force const [mDyne/A]         0.7153              0.8369              3.0090        
  Turning point v=0 [a0]        0.3154              0.2979              0.1630        
  RMS dev v=0 [a0 u^1/2]        0.2450              0.2398              0.2311        
  Char temp [K]               1442.7021           1506.6931           1621.8563       
  ----------------------------------------------------------------------------------
      1   S               -0.03  0.00 -0.00    0.00  0.02 -0.00    0.00  0.00 -0.19   
      2   C                0.13  0.00  0.00    0.00 -0.16  0.00   -0.00  0.00  0.41   
      3   H               -0.27 -0.00  0.65   -0.00  0.70  0.00   -0.10 -0.00  0.62   
      4   H               -0.27 -0.00 -0.65    0.00  0.70  0.00    0.10 -0.00  0.62   

  Vibration                       10                  11                  12          
  Freq [cm^-1]                1482.9274           3091.6982           3187.4008       
  Irrep                           A1                  A1                  B1          
  Reduced mass [u]              1.2313              1.0514              1.1199        
  Force const [mDyne/A]         1.5953              5.9212              6.7035        
  Turning point v=0 [a0]        0.2568              0.1925              0.1837        
  RMS dev v=0 [a0 u^1/2]        0.2015              0.1395              0.1374        
  Char temp [K]               2133.6024           4448.2653           4585.9601       
  ----------------------------------------------------------------------------------
      1   S                0.00 -0.00  0.02   -0.00  0.00  0.00    0.00  0.00 -0.00   
      2   C               -0.00  0.00 -0.14    0.00  0.00 -0.06   -0.10  0.00 -0.00   
      3   H               -0.41 -0.00  0.57    0.61  0.00  0.35    0.60  0.00  0.37   
      4   H                0.41 -0.00  0.57   -0.61 -0.00  0.35    0.60  0.00 -0.37   

  ==> Thermochemistry Components <==

  Entropy, S
    Electronic S            0.000 [cal/(mol K)]        0.000 [J/(mol K)]       0.00000000 [mEh/K] (multiplicity = 1)
    Translational S        37.403 [cal/(mol K)]      156.492 [J/(mol K)]       0.05960470 [mEh/K] (mol. weight = 45.9877 [u], P = 101325.00 [Pa])
    Rotational S           17.480 [cal/(mol K)]       73.135 [J/(mol K)]       0.02785554 [mEh/K] (symmetry no. = 2)
    Vibrational S           0.238 [cal/(mol K)]        0.997 [J/(mol K)]       0.00037967 [mEh/K]
  Total S                  55.120 [cal/(mol K)]      230.624 [J/(mol K)]       0.08783991 [mEh/K]
  Correction S              0.000 [cal/(mol K)]        0.000 [J/(mol K)]       0.00000000 [mEh/K]

  Constant volume heat capacity, Cv
    Electronic Cv           0.000 [cal/(mol K)]        0.000 [J/(mol K)]       0.00000000 [mEh/K]
    Translational Cv        2.981 [cal/(mol K)]       12.472 [J/(mol K)]       0.00475022 [mEh/K]
    Rotational Cv           2.981 [cal/(mol K)]       12.472 [J/(mol K)]       0.00475022 [mEh/K]
    Vibrational Cv          1.040 [cal/(mol K)]        4.350 [J/(mol K)]       0.00165699 [mEh/K]
  Total Cv                  7.001 [cal/(mol K)]       29.294 [J/(mol K)]       0.01115742 [mEh/K]
  Correction Cv             0.000 [cal/(mol K)]        0.000 [J/(mol K)]       0.00000000 [mEh/K]

  Constant pressure heat capacity, Cp
    Electronic Cp           0.000 [cal/(mol K)]        0.000 [J/(mol K)]       0.00000000 [mEh/K]
    Translational Cp        4.968 [cal/(mol K)]       20.786 [J/(mol K)]       0.00791703 [mEh/K]
    Rotational Cp           2.981 [cal/(mol K)]       12.472 [J/(mol K)]       0.00475022 [mEh/K]
    Vibrational Cp          1.040 [cal/(mol K)]        4.350 [J/(mol K)]       0.00165699 [mEh/K]
  Total Cp                  8.989 [cal/(mol K)]       37.608 [J/(mol K)]       0.01432423 [mEh/K]
  Correction Cp             0.000 [cal/(mol K)]        0.000 [J/(mol K)]       0.00000000 [mEh/K]

  ==> Thermochemistry Energy Analysis <==

  Raw electronic energy, E0
  Total E0, Electronic energy at well bottom at 0 [K]                 -437.42925208 [Eh]

  Zero-point energy, ZPE_vib = Sum_i nu_i / 2
    Electronic ZPE          0.000 [kcal/mol]        0.000 [kJ/mol]       0.00000000 [Eh]
    Translational ZPE       0.000 [kcal/mol]        0.000 [kJ/mol]       0.00000000 [Eh]
    Rotational ZPE          0.000 [kcal/mol]        0.000 [kJ/mol]       0.00000000 [Eh]
    Vibrational ZPE        15.638 [kcal/mol]       65.431 [kJ/mol]       0.02492134 [Eh]        5469.602 [cm^-1]
  Correction ZPE           15.638 [kcal/mol]       65.431 [kJ/mol]       0.02492134 [Eh]        5469.602 [cm^-1]
  Total ZPE, Electronic energy at 0 [K]                               -437.40433074 [Eh]

  Thermal Energy, E (includes ZPE)
    Electronic E            0.000 [kcal/mol]        0.000 [kJ/mol]       0.00000000 [Eh]
    Translational E         0.889 [kcal/mol]        3.718 [kJ/mol]       0.00141628 [Eh]
    Rotational E            0.889 [kcal/mol]        3.718 [kJ/mol]       0.00141628 [Eh]
    Vibrational E          15.698 [kcal/mol]       65.680 [kJ/mol]       0.02501614 [Eh]
  Correction E             17.475 [kcal/mol]       73.117 [kJ/mol]       0.02784870 [Eh]
  Total E, Electronic energy at  298.15 [K]                           -437.40140339 [Eh]

  Enthalpy, H_trans = E_trans + k_B * T
    Electronic H            0.000 [kcal/mol]        0.000 [kJ/mol]       0.00000000 [Eh]
    Translational H         1.481 [kcal/mol]        6.197 [kJ/mol]       0.00236046 [Eh]
    Rotational H            0.889 [kcal/mol]        3.718 [kJ/mol]       0.00141628 [Eh]
    Vibrational H          15.698 [kcal/mol]       65.680 [kJ/mol]       0.02501614 [Eh]
  Correction H             18.068 [kcal/mol]       75.596 [kJ/mol]       0.02879288 [Eh]
  Total H, Enthalpy at  298.15 [K]                                    -437.40045920 [Eh]

  Gibbs free energy, G = H - T * S
    Electronic G            0.000 [kcal/mol]        0.000 [kJ/mol]       0.00000000 [Eh]
    Translational G        -9.670 [kcal/mol]      -40.461 [kJ/mol]      -0.01541068 [Eh]
    Rotational G           -4.323 [kcal/mol]      -18.087 [kJ/mol]      -0.00688885 [Eh]
    Vibrational G          15.627 [kcal/mol]       65.383 [kJ/mol]       0.02490294 [Eh]
  Correction G              1.634 [kcal/mol]        6.835 [kJ/mol]       0.00260341 [Eh]
  Total G, Free enthalpy at  298.15 [K]                               -437.42664867 [Eh]

    Psi4 stopped on: Tuesday, 27 April 2021 06:03PM
    Psi4 wall time for execution: 0:04:34.20

*** Psi4 exiting successfully. Buy a developer a beer!
