
    -----------------------------------------------------------------------
          Psi4: An Open-Source Ab Initio Electronic Structure Package
                               Psi4 1.3.2 release

                         Git: Rev {HEAD} ecbda83 


    R. M. Parrish, L. A. Burns, D. G. A. Smith, A. C. Simmonett,
    A. E. DePrince III, E. G. Hohenstein, U. Bozkaya, A. Yu. Sokolov,
    R. Di Remigio, R. M. Richard, J. F. Gonthier, A. M. James,
    H. R. McAlexander, A. Kumar, M. Saitow, X. Wang, B. P. Pritchard,
    P. Verma, H. F. Schaefer III, K. Patkowski, R. A. King, E. F. Valeev,
    F. A. Evangelista, J. M. Turney, T. D. Crawford, and C. D. Sherrill,
    J. Chem. Theory Comput. 13(7) pp 3185--3197 (2017).
    (doi: 10.1021/acs.jctc.7b00174)


                         Additional Contributions by
    P. Kraus, H. Kruse, M. H. Lechner, M. C. Schieber, R. A. Shaw,
    A. Alenaizan, R. Galvelis, Z. L. Glick, S. Lehtola, and J. P. Misiewicz

    -----------------------------------------------------------------------


    Psi4 started on: Tuesday, 27 April 2021 05:58PM

    Process ID: 199381
    Host:       bp1-compute00115.data.bp.acrc.priv
    PSIDATADIR: /work/zw18965/.conda/envs/p4env/share/psi4
    Memory:     500.0 MiB
    Threads:    24
    
  ==> Input File <==

--------------------------------------------------------------------------
memory 144 GB

molecule {
0 1
S 0.0000000000 0.0000000000 0.0000000000
H 0.0000000000 0.0000000000 1.3377284100
H 1.3366219004 0.0000000000 -0.0543984776
}

set dynamic_level 1
set basis aug-cc-pV(D+d)Z
 
optimize("wB97M-V")
frequencies("wB97M-V")
--------------------------------------------------------------------------

  Memory set to 134.110 GiB by Python driver.
gradient() will perform gradient computation by finite difference of analytic energies.

         ----------------------------------------------------------
                                   FINDIF
                     R. A. King and Jonathon Misiewicz
         ---------------------------------------------------------

  Using finite-differences of energies to determine gradients.
    Generating geometries for use with 3-point formula.
    Displacement size will be 5.00e-03.
    Number of atoms is 3.
    Number of symmetric SALCs is 2.
    Translations projected? 1. Rotations projected? 1.
    Number of geometries (including reference) is 5.

  //>>>>>>>>>>>>>>>>>>>>>>>>>>>>>>>>>>>//
  //    Loading displacement 1 of 5    //
  //<<<<<<<<<<<<<<<<<<<<<<<<<<<<<<<<<<<//

*** tstart() called on bp1-compute00115.data.bp.acrc.priv
*** at Tue Apr 27 17:58:44 2021

   => Loading Basis Set <=

    Name: AUG-CC-PV(D+D)Z
    Role: ORBITAL
    Keyword: BASIS
    atoms 1   entry S          line   724 file /work/zw18965/.conda/envs/p4env/share/psi4/basis/aug-cc-pv_dpd_z.gbs 
    atoms 2-3 entry H          line    56 file /work/zw18965/.conda/envs/p4env/share/psi4/basis/aug-cc-pv_dpd_z.gbs 


         ---------------------------------------------------------
                                   SCF
               by Justin Turney, Rob Parrish, Andy Simmonett
                          and Daniel G. A. Smith
                              RKS Reference
                       24 Threads, 137329 MiB Core
         ---------------------------------------------------------

  ==> Geometry <==

    Molecular point group: c2v
    Full point group: C2v

    Geometry (in Angstrom), charge = 0, multiplicity = 1:

       Center              X                  Y                   Z               Mass       
    ------------   -----------------  -----------------  -----------------  -----------------
         S           -0.000000000000     0.000000000000    -0.054945385977    31.972071174400
         H           -0.000000000000     0.964957949318     0.871539074231     1.007825032230
         H            0.000000000000    -0.964957949318     0.871539074231     1.007825032230

  Running in c2v symmetry.

  Rotational constants: A =     10.35753  B =      8.98182  C =      4.81037 [cm^-1]
  Rotational constants: A = 310511.05038  B = 269268.33579  C = 144211.39450 [MHz]
  Nuclear repulsion =   12.932723691197257

  Charge       = 0
  Multiplicity = 1
  Electrons    = 18
  Nalpha       = 9
  Nbeta        = 9

  ==> Algorithm <==

  SCF Algorithm Type is DF.
  DIIS enabled.
  MOM disabled.
  Fractional occupation disabled.
  Guess Type is SAD.
  Energy threshold   = 1.00e-08
  Density threshold  = 1.00e-08
  Integral threshold = 0.00e+00

  ==> Primary Basis <==

  Basis Set: AUG-CC-PV(D+D)Z
    Blend: AUG-CC-PV(D+D)Z
    Number of shells: 22
    Number of basis function: 50
    Number of Cartesian functions: 53
    Spherical Harmonics?: true
    Max angular momentum: 2

  ==> DFT Potential <==

   => Composite Functional: WB97M-V <= 

    wB97M-V Hyb-GGA Exchange-Correlation Functional

    N. Mardirossian and M. Head-Gordon, J. Chem. Phys. 144, 214110 (2016)

    Deriv               =              1
    GGA                 =           TRUE
    Meta                =           TRUE

    Exchange Hybrid     =           TRUE
    MP2 Hybrid          =          FALSE

   => Exchange-Correlation Functionals <=

    1.0000   wB97M-V exchange-correlation functional

   => Exact (HF) Exchange <=

    0.8500            HF,LR [omega = 0.3000]
    0.1500               HF 

   => VV10 Non-Local Parameters <=

    VV10 B              =     6.0000E+00
    VV10 C              =     1.0000E-02

   => Molecular Quadrature <=

    Radial Scheme          =       TREUTLER
    Pruning Scheme         =           FLAT
    Nuclear Scheme         =       TREUTLER

    BS radius alpha        =              1
    Pruning alpha          =              1
    Radial Points          =             75
    Spherical Points       =            302
    Total Points           =          67950
    Total Blocks           =            574
    Max Points             =            252
    Max Functions          =             50

   => Loading Basis Set <=

    Name: (AUG-CC-PV(D+D)Z AUX)
    Role: JKFIT
    Keyword: DF_BASIS_SCF
    atoms 1   entry S          line   690 file /work/zw18965/.conda/envs/p4env/share/psi4/basis/aug-cc-pvdz-jkfit.gbs 
    atoms 2-3 entry H          line    70 file /work/zw18965/.conda/envs/p4env/share/psi4/basis/aug-cc-pvdz-jkfit.gbs 

  ==> Pre-Iterations <==

   -------------------------------------------------------
    Irrep   Nso     Nmo     Nalpha   Nbeta   Ndocc  Nsocc
   -------------------------------------------------------
     A1        22      22       0       0       0       0
     A2         5       5       0       0       0       0
     B1         9       9       0       0       0       0
     B2        14      14       0       0       0       0
   -------------------------------------------------------
    Total      50      50       9       9       9       0
   -------------------------------------------------------

  ==> Integral Setup <==

  ==> DiskDFJK: Density-Fitted J/K Matrices <==

    J tasked:                  Yes
    K tasked:                  Yes
    wK tasked:                 Yes
    Omega:               3.000E-01
    OpenMP threads:             24
    Integrals threads:          24
    Memory [MiB]:           102753
    Algorithm:                Core
    Integral Cache:           NONE
    Schwarz Cutoff:          1E-12
    Fitting Condition:       1E-10

   => Auxiliary Basis Set <=

  Basis Set: (AUG-CC-PV(D+D)Z AUX)
    Blend: AUG-CC-PVDZ-JKFIT
    Number of shells: 64
    Number of basis function: 192
    Number of Cartesian functions: 220
    Spherical Harmonics?: true
    Max angular momentum: 3

  Cached 100.0% of DFT collocation blocks in 0.238 [GiB].

  Minimum eigenvalue in the overlap matrix is 9.4819881710E-04.
  Using Symmetric Orthogonalization.

  SCF Guess: Superposition of Atomic Densities via on-the-fly atomic UHF.

  ==> Iterations <==

                           Total Energy        Delta E     RMS |[F,P]|

   @DF-RKS iter SAD:  -399.11588830842675   -3.99116e+02   0.00000e+00 
   @DF-RKS iter   1:  -399.33129418884761   -2.15406e-01   7.99775e-03 DIIS
   @DF-RKS iter   2:  -399.35694596657714   -2.56518e-02   4.66296e-03 DIIS
   @DF-RKS iter   3:  -399.36621309153401   -9.26712e-03   3.43174e-04 DIIS
   @DF-RKS iter   4:  -399.36636488276099   -1.51791e-04   8.78239e-05 DIIS
   @DF-RKS iter   5:  -399.36637327444072   -8.39168e-06   1.88088e-05 DIIS
   @DF-RKS iter   6:  -399.36637355579455   -2.81354e-07   3.18859e-06 DIIS
   @DF-RKS iter   7:  -399.36637356526506   -9.47051e-09   5.12881e-07 DIIS
   @DF-RKS iter   8:  -399.36637356551483   -2.49770e-10   6.65532e-08 DIIS
   @DF-RKS iter   9:  -399.36637356552291   -8.07177e-12   8.24069e-09 DIIS
  Energy and wave function converged.


  ==> Post-Iterations <==

    Orbital Energies [Eh]
    ---------------------

    Doubly Occupied:                                                      

       1A1   -89.210535     2A1    -8.131435     1B2    -6.041430  
       3A1    -6.038667     1B1    -6.032566     4A1    -0.864966  
       2B2    -0.543991     5A1    -0.467551     2B1    -0.360573  

    Virtual:                                                              

       6A1     0.012184     3B2     0.042439     4B2     0.081437  
       7A1     0.084790     3B1     0.096958     8A1     0.143930  
       5B2     0.159219     9A1     0.189955    10A1     0.225560  
       1A2     0.260196     4B1     0.266771     6B2     0.362579  
      11A1     0.404713     7B2     0.427139    12A1     0.467277  
       5B1     0.471596     2A2     0.476692    13A1     0.505772  
       8B2     0.549910    14A1     0.711317     6B1     0.750804  
       9B2     0.751865    15A1     0.769389     3A2     0.927946  
       7B1     0.949606    16A1     0.982472    10B2     1.006656  
      17A1     1.029872    11B2     1.171393    18A1     1.455388  
       4A2     1.652346    12B2     1.673530     8B1     1.702795  
      19A1     1.798039    20A1     2.139986    13B2     2.206316  
       5A2     4.736617     9B1     4.740143    21A1     4.757015  
      22A1     4.773771    14B2     4.875065  

    Final Occupation by Irrep:
             A1    A2    B1    B2 
    DOCC [     5,    0,    2,    2 ]

  @DF-RKS Final Energy:  -399.36637356552291

   => Energetics <=

    Nuclear Repulsion Energy =             12.9327236911972570
    One-Electron Energy =                -576.6325371821313865
    Two-Electron Energy =                 184.4157914764116981
    DFT Exchange-Correlation Energy =     -20.1581054394254551
    Empirical Dispersion Energy =           0.0000000000000000
    VV10 Nonlocal Energy =                  0.0757538884250069
    Total Energy =                       -399.3663735655229061

Computation Completed


Properties will be evaluated at   0.000000,   0.000000,   0.000000 [a0]

Properties computed using the SCF density matrix

  Nuclear Dipole Moment: [e a0]
     X:    -0.0000      Y:     0.0000      Z:     1.6326

  Electronic Dipole Moment: [e a0]
     X:     0.0000      Y:     0.0000      Z:    -1.2369

  Dipole Moment: [e a0]
     X:    -0.0000      Y:     0.0000      Z:     0.3957     Total:     0.3957

  Dipole Moment: [D]
     X:    -0.0000      Y:     0.0000      Z:     1.0059     Total:     1.0059


*** tstop() called on bp1-compute00115.data.bp.acrc.priv at Tue Apr 27 17:58:47 2021
Module time:
	user time   =      60.21 seconds =       1.00 minutes
	system time =       3.09 seconds =       0.05 minutes
	total time  =          3 seconds =       0.05 minutes
Total time:
	user time   =      60.21 seconds =       1.00 minutes
	system time =       3.09 seconds =       0.05 minutes
	total time  =          3 seconds =       0.05 minutes

  //>>>>>>>>>>>>>>>>>>>>>>>>>>>>>>>>>>>//
  //    Loading displacement 2 of 5    //
  //<<<<<<<<<<<<<<<<<<<<<<<<<<<<<<<<<<<//

*** tstart() called on bp1-compute00115.data.bp.acrc.priv
*** at Tue Apr 27 17:58:47 2021

   => Loading Basis Set <=

    Name: AUG-CC-PV(D+D)Z
    Role: ORBITAL
    Keyword: BASIS
    atoms 1   entry S          line   724 file /work/zw18965/.conda/envs/p4env/share/psi4/basis/aug-cc-pv_dpd_z.gbs 
    atoms 2-3 entry H          line    56 file /work/zw18965/.conda/envs/p4env/share/psi4/basis/aug-cc-pv_dpd_z.gbs 


         ---------------------------------------------------------
                                   SCF
               by Justin Turney, Rob Parrish, Andy Simmonett
                          and Daniel G. A. Smith
                              RKS Reference
                       24 Threads, 137329 MiB Core
         ---------------------------------------------------------

  ==> Geometry <==

    Molecular point group: c2v
    Full point group: C2v

    Geometry (in Angstrom), charge = 0, multiplicity = 1:

       Center              X                  Y                   Z               Mass       
    ------------   -----------------  -----------------  -----------------  -----------------
         S           -0.000000000000     0.000000000000    -0.055059340691    31.972071174400
         H           -0.000000000000     0.964957949318     0.873346614288     1.007825032230
         H            0.000000000000    -0.964957949318     0.873346614288     1.007825032230

  Running in c2v symmetry.

  Rotational constants: A =     10.31470  B =      8.98182  C =      4.80112 [cm^-1]
  Rotational constants: A = 309227.06911  B = 269268.33579  C = 143933.82830 [MHz]
  Nuclear repulsion =   12.920136565049020

  Charge       = 0
  Multiplicity = 1
  Electrons    = 18
  Nalpha       = 9
  Nbeta        = 9

  ==> Algorithm <==

  SCF Algorithm Type is DF.
  DIIS enabled.
  MOM disabled.
  Fractional occupation disabled.
  Guess Type is SAD.
  Energy threshold   = 1.00e-08
  Density threshold  = 1.00e-08
  Integral threshold = 0.00e+00

  ==> Primary Basis <==

  Basis Set: AUG-CC-PV(D+D)Z
    Blend: AUG-CC-PV(D+D)Z
    Number of shells: 22
    Number of basis function: 50
    Number of Cartesian functions: 53
    Spherical Harmonics?: true
    Max angular momentum: 2

  ==> DFT Potential <==

   => Composite Functional: WB97M-V <= 

    wB97M-V Hyb-GGA Exchange-Correlation Functional

    N. Mardirossian and M. Head-Gordon, J. Chem. Phys. 144, 214110 (2016)

    Deriv               =              1
    GGA                 =           TRUE
    Meta                =           TRUE

    Exchange Hybrid     =           TRUE
    MP2 Hybrid          =          FALSE

   => Exchange-Correlation Functionals <=

    1.0000   wB97M-V exchange-correlation functional

   => Exact (HF) Exchange <=

    0.8500            HF,LR [omega = 0.3000]
    0.1500               HF 

   => VV10 Non-Local Parameters <=

    VV10 B              =     6.0000E+00
    VV10 C              =     1.0000E-02

   => Molecular Quadrature <=

    Radial Scheme          =       TREUTLER
    Pruning Scheme         =           FLAT
    Nuclear Scheme         =       TREUTLER

    BS radius alpha        =              1
    Pruning alpha          =              1
    Radial Points          =             75
    Spherical Points       =            302
    Total Points           =          67950
    Total Blocks           =            575
    Max Points             =            255
    Max Functions          =             50

   => Loading Basis Set <=

    Name: (AUG-CC-PV(D+D)Z AUX)
    Role: JKFIT
    Keyword: DF_BASIS_SCF
    atoms 1   entry S          line   690 file /work/zw18965/.conda/envs/p4env/share/psi4/basis/aug-cc-pvdz-jkfit.gbs 
    atoms 2-3 entry H          line    70 file /work/zw18965/.conda/envs/p4env/share/psi4/basis/aug-cc-pvdz-jkfit.gbs 

  ==> Pre-Iterations <==

   -------------------------------------------------------
    Irrep   Nso     Nmo     Nalpha   Nbeta   Ndocc  Nsocc
   -------------------------------------------------------
     A1        22      22       0       0       0       0
     A2         5       5       0       0       0       0
     B1         9       9       0       0       0       0
     B2        14      14       0       0       0       0
   -------------------------------------------------------
    Total      50      50       9       9       9       0
   -------------------------------------------------------

  ==> Integral Setup <==

  ==> DiskDFJK: Density-Fitted J/K Matrices <==

    J tasked:                  Yes
    K tasked:                  Yes
    wK tasked:                 Yes
    Omega:               3.000E-01
    OpenMP threads:             24
    Integrals threads:          24
    Memory [MiB]:           102753
    Algorithm:                Core
    Integral Cache:           NONE
    Schwarz Cutoff:          1E-12
    Fitting Condition:       1E-10

   => Auxiliary Basis Set <=

  Basis Set: (AUG-CC-PV(D+D)Z AUX)
    Blend: AUG-CC-PVDZ-JKFIT
    Number of shells: 64
    Number of basis function: 192
    Number of Cartesian functions: 220
    Spherical Harmonics?: true
    Max angular momentum: 3

  Cached 100.0% of DFT collocation blocks in 0.238 [GiB].

  Minimum eigenvalue in the overlap matrix is 9.5250720029E-04.
  Using Symmetric Orthogonalization.

  SCF Guess: Superposition of Atomic Densities via on-the-fly atomic UHF.

  ==> Iterations <==

                           Total Energy        Delta E     RMS |[F,P]|

   @DF-RKS iter SAD:  -399.11474717200707   -3.99115e+02   0.00000e+00 
   @DF-RKS iter   1:  -399.33127742614636   -2.16530e-01   7.99954e-03 DIIS
   @DF-RKS iter   2:  -399.35692360582124   -2.56462e-02   4.67177e-03 DIIS
   @DF-RKS iter   3:  -399.36623448220257   -9.31088e-03   3.43173e-04 DIIS
   @DF-RKS iter   4:  -399.36638628727388   -1.51805e-04   8.79485e-05 DIIS
   @DF-RKS iter   5:  -399.36639471351748   -8.42624e-06   1.88412e-05 DIIS
   @DF-RKS iter   6:  -399.36639499663369   -2.83116e-07   3.20256e-06 DIIS
   @DF-RKS iter   7:  -399.36639500617997   -9.54628e-09   5.14971e-07 DIIS
   @DF-RKS iter   8:  -399.36639500643366   -2.53692e-10   6.69583e-08 DIIS
   @DF-RKS iter   9:  -399.36639500644145   -7.78755e-12   8.22875e-09 DIIS
  Energy and wave function converged.


  ==> Post-Iterations <==

    Orbital Energies [Eh]
    ---------------------

    Doubly Occupied:                                                      

       1A1   -89.210707     2A1    -8.131541     1B2    -6.041536  
       3A1    -6.038785     1B1    -6.032673     4A1    -0.864697  
       2B2    -0.543477     5A1    -0.467664     2B1    -0.360552  

    Virtual:                                                              

       6A1     0.012154     3B2     0.042429     4B2     0.081256  
       7A1     0.084788     3B1     0.096963     8A1     0.143802  
       5B2     0.158991     9A1     0.190038    10A1     0.225356  
       1A2     0.260240     4B1     0.266623     6B2     0.362757  
      11A1     0.404697     7B2     0.426987    12A1     0.467102  
       5B1     0.471569     2A2     0.476540    13A1     0.505600  
       8B2     0.550158    14A1     0.711368     6B1     0.750727  
       9B2     0.751734    15A1     0.769414     3A2     0.928006  
       7B1     0.949716    16A1     0.982215    10B2     1.006720  
      17A1     1.029469    11B2     1.169417    18A1     1.454719  
       4A2     1.651983    12B2     1.673924     8B1     1.702499  
      19A1     1.797189    20A1     2.138533    13B2     2.203958  
       5A2     4.736330     9B1     4.740043    21A1     4.756921  
      22A1     4.773452    14B2     4.875140  

    Final Occupation by Irrep:
             A1    A2    B1    B2 
    DOCC [     5,    0,    2,    2 ]

  @DF-RKS Final Energy:  -399.36639500644145

   => Energetics <=

    Nuclear Repulsion Energy =             12.9201365650490203
    One-Electron Energy =                -576.6079438594796329
    Two-Electron Energy =                 184.4031224760838654
    DFT Exchange-Correlation Energy =     -20.1574631886199427
    Empirical Dispersion Energy =           0.0000000000000000
    VV10 Nonlocal Energy =                  0.0757530005252320
    Total Energy =                       -399.3663950064414507

Computation Completed


Properties will be evaluated at   0.000000,   0.000000,   0.000000 [a0]

Properties computed using the SCF density matrix

  Nuclear Dipole Moment: [e a0]
     X:    -0.0000      Y:     0.0000      Z:     1.6360

  Electronic Dipole Moment: [e a0]
     X:     0.0000      Y:     0.0000      Z:    -1.2404

  Dipole Moment: [e a0]
     X:    -0.0000      Y:     0.0000      Z:     0.3956     Total:     0.3956

  Dipole Moment: [D]
     X:    -0.0000      Y:     0.0000      Z:     1.0056     Total:     1.0056


*** tstop() called on bp1-compute00115.data.bp.acrc.priv at Tue Apr 27 17:58:50 2021
Module time:
	user time   =      60.45 seconds =       1.01 minutes
	system time =       2.53 seconds =       0.04 minutes
	total time  =          3 seconds =       0.05 minutes
Total time:
	user time   =     120.82 seconds =       2.01 minutes
	system time =       5.63 seconds =       0.09 minutes
	total time  =          6 seconds =       0.10 minutes

  //>>>>>>>>>>>>>>>>>>>>>>>>>>>>>>>>>>>//
  //    Loading displacement 3 of 5    //
  //<<<<<<<<<<<<<<<<<<<<<<<<<<<<<<<<<<<//

*** tstart() called on bp1-compute00115.data.bp.acrc.priv
*** at Tue Apr 27 17:58:50 2021

   => Loading Basis Set <=

    Name: AUG-CC-PV(D+D)Z
    Role: ORBITAL
    Keyword: BASIS
    atoms 1   entry S          line   724 file /work/zw18965/.conda/envs/p4env/share/psi4/basis/aug-cc-pv_dpd_z.gbs 
    atoms 2-3 entry H          line    56 file /work/zw18965/.conda/envs/p4env/share/psi4/basis/aug-cc-pv_dpd_z.gbs 


         ---------------------------------------------------------
                                   SCF
               by Justin Turney, Rob Parrish, Andy Simmonett
                          and Daniel G. A. Smith
                              RKS Reference
                       24 Threads, 137329 MiB Core
         ---------------------------------------------------------

  ==> Geometry <==

    Molecular point group: c2v
    Full point group: C2v

    Geometry (in Angstrom), charge = 0, multiplicity = 1:

       Center              X                  Y                   Z               Mass       
    ------------   -----------------  -----------------  -----------------  -----------------
         S           -0.000000000000     0.000000000000    -0.054831431263    31.972071174400
         H           -0.000000000000     0.964957949318     0.869731534174     1.007825032230
         H            0.000000000000    -0.964957949318     0.869731534174     1.007825032230

  Running in c2v symmetry.

  Rotational constants: A =     10.40063  B =      8.98182  C =      4.81965 [cm^-1]
  Rotational constants: A = 311803.04537  B = 269268.33579  C = 144489.45490 [MHz]
  Nuclear repulsion =   12.945322282799047

  Charge       = 0
  Multiplicity = 1
  Electrons    = 18
  Nalpha       = 9
  Nbeta        = 9

  ==> Algorithm <==

  SCF Algorithm Type is DF.
  DIIS enabled.
  MOM disabled.
  Fractional occupation disabled.
  Guess Type is SAD.
  Energy threshold   = 1.00e-08
  Density threshold  = 1.00e-08
  Integral threshold = 0.00e+00

  ==> Primary Basis <==

  Basis Set: AUG-CC-PV(D+D)Z
    Blend: AUG-CC-PV(D+D)Z
    Number of shells: 22
    Number of basis function: 50
    Number of Cartesian functions: 53
    Spherical Harmonics?: true
    Max angular momentum: 2

  ==> DFT Potential <==

   => Composite Functional: WB97M-V <= 

    wB97M-V Hyb-GGA Exchange-Correlation Functional

    N. Mardirossian and M. Head-Gordon, J. Chem. Phys. 144, 214110 (2016)

    Deriv               =              1
    GGA                 =           TRUE
    Meta                =           TRUE

    Exchange Hybrid     =           TRUE
    MP2 Hybrid          =          FALSE

   => Exchange-Correlation Functionals <=

    1.0000   wB97M-V exchange-correlation functional

   => Exact (HF) Exchange <=

    0.8500            HF,LR [omega = 0.3000]
    0.1500               HF 

   => VV10 Non-Local Parameters <=

    VV10 B              =     6.0000E+00
    VV10 C              =     1.0000E-02

   => Molecular Quadrature <=

    Radial Scheme          =       TREUTLER
    Pruning Scheme         =           FLAT
    Nuclear Scheme         =       TREUTLER

    BS radius alpha        =              1
    Pruning alpha          =              1
    Radial Points          =             75
    Spherical Points       =            302
    Total Points           =          67950
    Total Blocks           =            574
    Max Points             =            256
    Max Functions          =             50

   => Loading Basis Set <=

    Name: (AUG-CC-PV(D+D)Z AUX)
    Role: JKFIT
    Keyword: DF_BASIS_SCF
    atoms 1   entry S          line   690 file /work/zw18965/.conda/envs/p4env/share/psi4/basis/aug-cc-pvdz-jkfit.gbs 
    atoms 2-3 entry H          line    70 file /work/zw18965/.conda/envs/p4env/share/psi4/basis/aug-cc-pvdz-jkfit.gbs 

  ==> Pre-Iterations <==

   -------------------------------------------------------
    Irrep   Nso     Nmo     Nalpha   Nbeta   Ndocc  Nsocc
   -------------------------------------------------------
     A1        22      22       0       0       0       0
     A2         5       5       0       0       0       0
     B1         9       9       0       0       0       0
     B2        14      14       0       0       0       0
   -------------------------------------------------------
    Total      50      50       9       9       9       0
   -------------------------------------------------------

  ==> Integral Setup <==

  ==> DiskDFJK: Density-Fitted J/K Matrices <==

    J tasked:                  Yes
    K tasked:                  Yes
    wK tasked:                 Yes
    Omega:               3.000E-01
    OpenMP threads:             24
    Integrals threads:          24
    Memory [MiB]:           102753
    Algorithm:                Core
    Integral Cache:           NONE
    Schwarz Cutoff:          1E-12
    Fitting Condition:       1E-10

   => Auxiliary Basis Set <=

  Basis Set: (AUG-CC-PV(D+D)Z AUX)
    Blend: AUG-CC-PVDZ-JKFIT
    Number of shells: 64
    Number of basis function: 192
    Number of Cartesian functions: 220
    Spherical Harmonics?: true
    Max angular momentum: 3

  Cached 100.0% of DFT collocation blocks in 0.238 [GiB].

  Minimum eigenvalue in the overlap matrix is 9.4393520251E-04.
  Using Symmetric Orthogonalization.

  SCF Guess: Superposition of Atomic Densities via on-the-fly atomic UHF.

  ==> Iterations <==

                           Total Energy        Delta E     RMS |[F,P]|

   @DF-RKS iter SAD:  -399.11703045481846   -3.99117e+02   0.00000e+00 
   @DF-RKS iter   1:  -399.33130559822894   -2.14275e-01   7.99603e-03 DIIS
   @DF-RKS iter   2:  -399.35696374031596   -2.56581e-02   4.65423e-03 DIIS
   @DF-RKS iter   3:  -399.36618753166897   -9.22379e-03   3.43187e-04 DIIS
   @DF-RKS iter   4:  -399.36633932208633   -1.51790e-04   8.77005e-05 DIIS
   @DF-RKS iter   5:  -399.36634767933634   -8.35725e-06   1.87766e-05 DIIS
   @DF-RKS iter   6:  -399.36634795893320   -2.79597e-07   3.17460e-06 DIIS
   @DF-RKS iter   7:  -399.36634796834358   -9.41037e-09   5.10818e-07 DIIS
   @DF-RKS iter   8:  -399.36634796859033   -2.46757e-10   6.61457e-08 DIIS
   @DF-RKS iter   9:  -399.36634796859744   -7.10543e-12   8.25269e-09 DIIS
  Energy and wave function converged.


  ==> Post-Iterations <==

    Orbital Energies [Eh]
    ---------------------

    Doubly Occupied:                                                      

       1A1   -89.210363     2A1    -8.131329     1B2    -6.041324  
       3A1    -6.038549     1B1    -6.032459     4A1    -0.865235  
       2B2    -0.544506     5A1    -0.467437     2B1    -0.360595  

    Virtual:                                                              

       6A1     0.012213     3B2     0.042449     4B2     0.081618  
       7A1     0.084793     3B1     0.096953     8A1     0.144056  
       5B2     0.159448     9A1     0.189869    10A1     0.225766  
       1A2     0.260151     4B1     0.266920     6B2     0.362399  
      11A1     0.404727     7B2     0.427292    12A1     0.467453  
       5B1     0.471623     2A2     0.476844    13A1     0.505943  
       8B2     0.549661    14A1     0.711264     6B1     0.750880  
       9B2     0.752000    15A1     0.769369     3A2     0.927885  
       7B1     0.949496    16A1     0.982729    10B2     1.006590  
      17A1     1.030278    11B2     1.173374    18A1     1.456059  
       4A2     1.652711    12B2     1.673130     8B1     1.703091  
      19A1     1.798887    20A1     2.141440    13B2     2.208679  
       5A2     4.736904     9B1     4.740242    21A1     4.757098  
      22A1     4.774101    14B2     4.874987  

    Final Occupation by Irrep:
             A1    A2    B1    B2 
    DOCC [     5,    0,    2,    2 ]

  @DF-RKS Final Energy:  -399.36634796859744

   => Energetics <=

    Nuclear Repulsion Energy =             12.9453222827990473
    One-Electron Energy =                -576.6571431963981240
    Two-Electron Energy =                 184.4284664033477839
    DFT Exchange-Correlation Energy =     -20.1587482344424771
    Empirical Dispersion Energy =           0.0000000000000000
    VV10 Nonlocal Energy =                  0.0757547760964034
    Total Energy =                       -399.3663479685974380

Computation Completed


Properties will be evaluated at   0.000000,   0.000000,   0.000000 [a0]

Properties computed using the SCF density matrix

  Nuclear Dipole Moment: [e a0]
     X:    -0.0000      Y:     0.0000      Z:     1.6292

  Electronic Dipole Moment: [e a0]
     X:     0.0000      Y:     0.0000      Z:    -1.2334

  Dipole Moment: [e a0]
     X:    -0.0000      Y:     0.0000      Z:     0.3959     Total:     0.3959

  Dipole Moment: [D]
     X:    -0.0000      Y:     0.0000      Z:     1.0062     Total:     1.0062


*** tstop() called on bp1-compute00115.data.bp.acrc.priv at Tue Apr 27 17:58:52 2021
Module time:
	user time   =      57.94 seconds =       0.97 minutes
	system time =       1.90 seconds =       0.03 minutes
	total time  =          2 seconds =       0.03 minutes
Total time:
	user time   =     178.92 seconds =       2.98 minutes
	system time =       7.54 seconds =       0.13 minutes
	total time  =          8 seconds =       0.13 minutes

  //>>>>>>>>>>>>>>>>>>>>>>>>>>>>>>>>>>>//
  //    Loading displacement 4 of 5    //
  //<<<<<<<<<<<<<<<<<<<<<<<<<<<<<<<<<<<//

*** tstart() called on bp1-compute00115.data.bp.acrc.priv
*** at Tue Apr 27 17:58:52 2021

   => Loading Basis Set <=

    Name: AUG-CC-PV(D+D)Z
    Role: ORBITAL
    Keyword: BASIS
    atoms 1   entry S          line   724 file /work/zw18965/.conda/envs/p4env/share/psi4/basis/aug-cc-pv_dpd_z.gbs 
    atoms 2-3 entry H          line    56 file /work/zw18965/.conda/envs/p4env/share/psi4/basis/aug-cc-pv_dpd_z.gbs 


         ---------------------------------------------------------
                                   SCF
               by Justin Turney, Rob Parrish, Andy Simmonett
                          and Daniel G. A. Smith
                              RKS Reference
                       24 Threads, 137329 MiB Core
         ---------------------------------------------------------

  ==> Geometry <==

    Molecular point group: c2v
    Full point group: C2v

    Geometry (in Angstrom), charge = 0, multiplicity = 1:

       Center              X                  Y                   Z               Mass       
    ------------   -----------------  -----------------  -----------------  -----------------
         S           -0.000000000000     0.000000000000    -0.054945385977    31.972071174400
         H           -0.000000000000     0.963094302686     0.871539074231     1.007825032230
         H            0.000000000000    -0.963094302686     0.871539074231     1.007825032230

  Running in c2v symmetry.

  Rotational constants: A =     10.35753  B =      9.01662  C =      4.82034 [cm^-1]
  Rotational constants: A = 310511.05038  B = 270311.44559  C = 144510.05511 [MHz]
  Nuclear repulsion =   12.945982106081932

  Charge       = 0
  Multiplicity = 1
  Electrons    = 18
  Nalpha       = 9
  Nbeta        = 9

  ==> Algorithm <==

  SCF Algorithm Type is DF.
  DIIS enabled.
  MOM disabled.
  Fractional occupation disabled.
  Guess Type is SAD.
  Energy threshold   = 1.00e-08
  Density threshold  = 1.00e-08
  Integral threshold = 0.00e+00

  ==> Primary Basis <==

  Basis Set: AUG-CC-PV(D+D)Z
    Blend: AUG-CC-PV(D+D)Z
    Number of shells: 22
    Number of basis function: 50
    Number of Cartesian functions: 53
    Spherical Harmonics?: true
    Max angular momentum: 2

  ==> DFT Potential <==

   => Composite Functional: WB97M-V <= 

    wB97M-V Hyb-GGA Exchange-Correlation Functional

    N. Mardirossian and M. Head-Gordon, J. Chem. Phys. 144, 214110 (2016)

    Deriv               =              1
    GGA                 =           TRUE
    Meta                =           TRUE

    Exchange Hybrid     =           TRUE
    MP2 Hybrid          =          FALSE

   => Exchange-Correlation Functionals <=

    1.0000   wB97M-V exchange-correlation functional

   => Exact (HF) Exchange <=

    0.8500            HF,LR [omega = 0.3000]
    0.1500               HF 

   => VV10 Non-Local Parameters <=

    VV10 B              =     6.0000E+00
    VV10 C              =     1.0000E-02

   => Molecular Quadrature <=

    Radial Scheme          =       TREUTLER
    Pruning Scheme         =           FLAT
    Nuclear Scheme         =       TREUTLER

    BS radius alpha        =              1
    Pruning alpha          =              1
    Radial Points          =             75
    Spherical Points       =            302
    Total Points           =          67950
    Total Blocks           =            575
    Max Points             =            255
    Max Functions          =             50

   => Loading Basis Set <=

    Name: (AUG-CC-PV(D+D)Z AUX)
    Role: JKFIT
    Keyword: DF_BASIS_SCF
    atoms 1   entry S          line   690 file /work/zw18965/.conda/envs/p4env/share/psi4/basis/aug-cc-pvdz-jkfit.gbs 
    atoms 2-3 entry H          line    70 file /work/zw18965/.conda/envs/p4env/share/psi4/basis/aug-cc-pvdz-jkfit.gbs 

  ==> Pre-Iterations <==

   -------------------------------------------------------
    Irrep   Nso     Nmo     Nalpha   Nbeta   Ndocc  Nsocc
   -------------------------------------------------------
     A1        22      22       0       0       0       0
     A2         5       5       0       0       0       0
     B1         9       9       0       0       0       0
     B2        14      14       0       0       0       0
   -------------------------------------------------------
    Total      50      50       9       9       9       0
   -------------------------------------------------------

  ==> Integral Setup <==

  ==> DiskDFJK: Density-Fitted J/K Matrices <==

    J tasked:                  Yes
    K tasked:                  Yes
    wK tasked:                 Yes
    Omega:               3.000E-01
    OpenMP threads:             24
    Integrals threads:          24
    Memory [MiB]:           102753
    Algorithm:                Core
    Integral Cache:           NONE
    Schwarz Cutoff:          1E-12
    Fitting Condition:       1E-10

   => Auxiliary Basis Set <=

  Basis Set: (AUG-CC-PV(D+D)Z AUX)
    Blend: AUG-CC-PVDZ-JKFIT
    Number of shells: 64
    Number of basis function: 192
    Number of Cartesian functions: 220
    Spherical Harmonics?: true
    Max angular momentum: 3

  Cached 100.0% of DFT collocation blocks in 0.238 [GiB].

  Minimum eigenvalue in the overlap matrix is 9.4271619766E-04.
  Using Symmetric Orthogonalization.

  SCF Guess: Superposition of Atomic Densities via on-the-fly atomic UHF.

  ==> Iterations <==

                           Total Energy        Delta E     RMS |[F,P]|

   @DF-RKS iter SAD:  -399.11721425416584   -3.99117e+02   0.00000e+00 
   @DF-RKS iter   1:  -399.33132563357771   -2.14111e-01   7.99457e-03 DIIS
   @DF-RKS iter   2:  -399.35695701011679   -2.56314e-02   4.65557e-03 DIIS
   @DF-RKS iter   3:  -399.36618834913622   -9.23134e-03   3.43236e-04 DIIS
   @DF-RKS iter   4:  -399.36633995062846   -1.51601e-04   8.82959e-05 DIIS
   @DF-RKS iter   5:  -399.36634838276711   -8.43214e-06   1.88695e-05 DIIS
   @DF-RKS iter   6:  -399.36634866653640   -2.83769e-07   3.18602e-06 DIIS
   @DF-RKS iter   7:  -399.36634867604891   -9.51252e-09   5.12502e-07 DIIS
   @DF-RKS iter   8:  -399.36634867629874   -2.49827e-10   6.65617e-08 DIIS
   @DF-RKS iter   9:  -399.36634867630636   -7.61702e-12   8.22694e-09 DIIS
  Energy and wave function converged.


  ==> Post-Iterations <==

    Orbital Energies [Eh]
    ---------------------

    Doubly Occupied:                                                      

       1A1   -89.210373     2A1    -8.131337     1B2    -6.041325  
       3A1    -6.038567     1B1    -6.032466     4A1    -0.865278  
       2B2    -0.544093     5A1    -0.467789     2B1    -0.360598  

    Virtual:                                                              

       6A1     0.012219     3B2     0.042485     4B2     0.081462  
       7A1     0.084771     3B1     0.096951     8A1     0.144149  
       5B2     0.159374     9A1     0.190283    10A1     0.225530  
       1A2     0.260324     4B1     0.266732     6B2     0.362514  
      11A1     0.404743     7B2     0.427349    12A1     0.467268  
       5B1     0.471715     2A2     0.476783    13A1     0.505836  
       8B2     0.549932    14A1     0.711950     6B1     0.750846  
       9B2     0.751899    15A1     0.769477     3A2     0.927860  
       7B1     0.949609    16A1     0.982157    10B2     1.006786  
      17A1     1.030265    11B2     1.171763    18A1     1.456161  
       4A2     1.652541    12B2     1.674783     8B1     1.703413  
      19A1     1.798532    20A1     2.142117    13B2     2.208258  
       5A2     4.736728     9B1     4.740420    21A1     4.756958  
      22A1     4.774160    14B2     4.874867  

    Final Occupation by Irrep:
             A1    A2    B1    B2 
    DOCC [     5,    0,    2,    2 ]

  @DF-RKS Final Energy:  -399.36634867630636

   => Energetics <=

    Nuclear Repulsion Energy =             12.9459821060819316
    One-Electron Energy =                -576.6583825940371071
    Two-Electron Energy =                 184.4290774859483975
    DFT Exchange-Correlation Energy =     -20.1587802030364358
    Empirical Dispersion Energy =           0.0000000000000000
    VV10 Nonlocal Energy =                  0.0757545287368329
    Total Energy =                       -399.3663486763064157

Computation Completed


Properties will be evaluated at   0.000000,   0.000000,   0.000000 [a0]

Properties computed using the SCF density matrix

  Nuclear Dipole Moment: [e a0]
     X:     0.0000      Y:     0.0000      Z:     1.6326

  Electronic Dipole Moment: [e a0]
     X:     0.0000      Y:     0.0000      Z:    -1.2370

  Dipole Moment: [e a0]
     X:     0.0000      Y:     0.0000      Z:     0.3957     Total:     0.3957

  Dipole Moment: [D]
     X:     0.0000      Y:     0.0000      Z:     1.0057     Total:     1.0057


*** tstop() called on bp1-compute00115.data.bp.acrc.priv at Tue Apr 27 17:58:55 2021
Module time:
	user time   =      58.30 seconds =       0.97 minutes
	system time =       1.93 seconds =       0.03 minutes
	total time  =          3 seconds =       0.05 minutes
Total time:
	user time   =     237.35 seconds =       3.96 minutes
	system time =       9.48 seconds =       0.16 minutes
	total time  =         11 seconds =       0.18 minutes

  //>>>>>>>>>>>>>>>>>>>>>>>>>>>>>>>>>>>//
  //    Loading displacement 5 of 5    //
  //<<<<<<<<<<<<<<<<<<<<<<<<<<<<<<<<<<<//

*** tstart() called on bp1-compute00115.data.bp.acrc.priv
*** at Tue Apr 27 17:58:55 2021

   => Loading Basis Set <=

    Name: AUG-CC-PV(D+D)Z
    Role: ORBITAL
    Keyword: BASIS
    atoms 1   entry S          line   724 file /work/zw18965/.conda/envs/p4env/share/psi4/basis/aug-cc-pv_dpd_z.gbs 
    atoms 2-3 entry H          line    56 file /work/zw18965/.conda/envs/p4env/share/psi4/basis/aug-cc-pv_dpd_z.gbs 


         ---------------------------------------------------------
                                   SCF
               by Justin Turney, Rob Parrish, Andy Simmonett
                          and Daniel G. A. Smith
                              RKS Reference
                       24 Threads, 137329 MiB Core
         ---------------------------------------------------------

  ==> Geometry <==

    Molecular point group: c2v
    Full point group: C2v

    Geometry (in Angstrom), charge = 0, multiplicity = 1:

       Center              X                  Y                   Z               Mass       
    ------------   -----------------  -----------------  -----------------  -----------------
         S           -0.000000000000     0.000000000000    -0.054945385977    31.972071174400
         H           -0.000000000000     0.966821595950     0.871539074231     1.007825032230
         H            0.000000000000    -0.966821595950     0.871539074231     1.007825032230

  Running in c2v symmetry.

  Rotational constants: A =     10.35753  B =      8.94723  C =      4.80043 [cm^-1]
  Rotational constants: A = 310511.05038  B = 268231.25227  C = 143913.39203 [MHz]
  Nuclear repulsion =   12.919481104525435

  Charge       = 0
  Multiplicity = 1
  Electrons    = 18
  Nalpha       = 9
  Nbeta        = 9

  ==> Algorithm <==

  SCF Algorithm Type is DF.
  DIIS enabled.
  MOM disabled.
  Fractional occupation disabled.
  Guess Type is SAD.
  Energy threshold   = 1.00e-08
  Density threshold  = 1.00e-08
  Integral threshold = 0.00e+00

  ==> Primary Basis <==

  Basis Set: AUG-CC-PV(D+D)Z
    Blend: AUG-CC-PV(D+D)Z
    Number of shells: 22
    Number of basis function: 50
    Number of Cartesian functions: 53
    Spherical Harmonics?: true
    Max angular momentum: 2

  ==> DFT Potential <==

   => Composite Functional: WB97M-V <= 

    wB97M-V Hyb-GGA Exchange-Correlation Functional

    N. Mardirossian and M. Head-Gordon, J. Chem. Phys. 144, 214110 (2016)

    Deriv               =              1
    GGA                 =           TRUE
    Meta                =           TRUE

    Exchange Hybrid     =           TRUE
    MP2 Hybrid          =          FALSE

   => Exchange-Correlation Functionals <=

    1.0000   wB97M-V exchange-correlation functional

   => Exact (HF) Exchange <=

    0.8500            HF,LR [omega = 0.3000]
    0.1500               HF 

   => VV10 Non-Local Parameters <=

    VV10 B              =     6.0000E+00
    VV10 C              =     1.0000E-02

   => Molecular Quadrature <=

    Radial Scheme          =       TREUTLER
    Pruning Scheme         =           FLAT
    Nuclear Scheme         =       TREUTLER

    BS radius alpha        =              1
    Pruning alpha          =              1
    Radial Points          =             75
    Spherical Points       =            302
    Total Points           =          67950
    Total Blocks           =            574
    Max Points             =            252
    Max Functions          =             50

   => Loading Basis Set <=

    Name: (AUG-CC-PV(D+D)Z AUX)
    Role: JKFIT
    Keyword: DF_BASIS_SCF
    atoms 1   entry S          line   690 file /work/zw18965/.conda/envs/p4env/share/psi4/basis/aug-cc-pvdz-jkfit.gbs 
    atoms 2-3 entry H          line    70 file /work/zw18965/.conda/envs/p4env/share/psi4/basis/aug-cc-pvdz-jkfit.gbs 

  ==> Pre-Iterations <==

   -------------------------------------------------------
    Irrep   Nso     Nmo     Nalpha   Nbeta   Ndocc  Nsocc
   -------------------------------------------------------
     A1        22      22       0       0       0       0
     A2         5       5       0       0       0       0
     B1         9       9       0       0       0       0
     B2        14      14       0       0       0       0
   -------------------------------------------------------
    Total      50      50       9       9       9       0
   -------------------------------------------------------

  ==> Integral Setup <==

  ==> DiskDFJK: Density-Fitted J/K Matrices <==

    J tasked:                  Yes
    K tasked:                  Yes
    wK tasked:                 Yes
    Omega:               3.000E-01
    OpenMP threads:             24
    Integrals threads:          24
    Memory [MiB]:           102753
    Algorithm:                Core
    Integral Cache:           NONE
    Schwarz Cutoff:          1E-12
    Fitting Condition:       1E-10

   => Auxiliary Basis Set <=

  Basis Set: (AUG-CC-PV(D+D)Z AUX)
    Blend: AUG-CC-PVDZ-JKFIT
    Number of shells: 64
    Number of basis function: 192
    Number of Cartesian functions: 220
    Spherical Harmonics?: true
    Max angular momentum: 3

  Cached 100.0% of DFT collocation blocks in 0.238 [GiB].

  Minimum eigenvalue in the overlap matrix is 9.5372476817E-04.
  Using Symmetric Orthogonalization.

  SCF Guess: Superposition of Atomic Densities via on-the-fly atomic UHF.

  ==> Iterations <==

                           Total Energy        Delta E     RMS |[F,P]|

   @DF-RKS iter SAD:  -399.11456199877642   -3.99115e+02   0.00000e+00 
   @DF-RKS iter   1:  -399.33125788344239   -2.16696e-01   8.00097e-03 DIIS
   @DF-RKS iter   2:  -399.35693025940679   -2.56724e-02   4.67038e-03 DIIS
   @DF-RKS iter   3:  -399.36623336378676   -9.30310e-03   3.43116e-04 DIIS
   @DF-RKS iter   4:  -399.36638534726569   -1.51983e-04   8.73533e-05 DIIS
   @DF-RKS iter   5:  -399.36639369895340   -8.35169e-06   1.87460e-05 DIIS
   @DF-RKS iter   6:  -399.36639397784859   -2.78895e-07   3.19118e-06 DIIS
   @DF-RKS iter   7:  -399.36639398729176   -9.44317e-09   5.13282e-07 DIIS
   @DF-RKS iter   8:  -399.36639398754176   -2.49997e-10   6.65486e-08 DIIS
   @DF-RKS iter   9:  -399.36639398754932   -7.56017e-12   8.25504e-09 DIIS
  Energy and wave function converged.


  ==> Post-Iterations <==

    Orbital Energies [Eh]
    ---------------------

    Doubly Occupied:                                                      

       1A1   -89.210697     2A1    -8.131533     1B2    -6.041535  
       3A1    -6.038767     1B1    -6.032667     4A1    -0.864655  
       2B2    -0.543888     5A1    -0.467313     2B1    -0.360548  

    Virtual:                                                              

       6A1     0.012148     3B2     0.042393     4B2     0.081412  
       7A1     0.084810     3B1     0.096964     8A1     0.143707  
       5B2     0.159065     9A1     0.189629    10A1     0.225590  
       1A2     0.260068     4B1     0.266810     6B2     0.362643  
      11A1     0.404681     7B2     0.426929    12A1     0.467286  
       5B1     0.471476     2A2     0.476601    13A1     0.505709  
       8B2     0.549886    14A1     0.710686     6B1     0.750761  
       9B2     0.751832    15A1     0.769303     3A2     0.928032  
       7B1     0.949603    16A1     0.982785    10B2     1.006522  
      17A1     1.029482    11B2     1.171023    18A1     1.454614  
       4A2     1.652152    12B2     1.672293     8B1     1.702178  
      19A1     1.797535    20A1     2.137856    13B2     2.204375  
       5A2     4.736505     9B1     4.739866    21A1     4.757069  
      22A1     4.773387    14B2     4.875259  

    Final Occupation by Irrep:
             A1    A2    B1    B2 
    DOCC [     5,    0,    2,    2 ]

  @DF-RKS Final Energy:  -399.36639398754932

   => Energetics <=

    Nuclear Repulsion Energy =             12.9194811045254347
    One-Electron Energy =                -576.6067142440667794
    Two-Electron Energy =                 184.4025174301424954
    DFT Exchange-Correlation Energy =     -20.1574315267695283
    Empirical Dispersion Energy =           0.0000000000000000
    VV10 Nonlocal Energy =                  0.0757532486190516
    Total Energy =                       -399.3663939875493725

Computation Completed


Properties will be evaluated at   0.000000,   0.000000,   0.000000 [a0]

Properties computed using the SCF density matrix

  Nuclear Dipole Moment: [e a0]
     X:     0.0000      Y:     0.0000      Z:     1.6326

  Electronic Dipole Moment: [e a0]
     X:     0.0000      Y:     0.0000      Z:    -1.2368

  Dipole Moment: [e a0]
     X:     0.0000      Y:     0.0000      Z:     0.3958     Total:     0.3958

  Dipole Moment: [D]
     X:     0.0000      Y:     0.0000      Z:     1.0060     Total:     1.0060


*** tstop() called on bp1-compute00115.data.bp.acrc.priv at Tue Apr 27 17:58:57 2021
Module time:
	user time   =      57.41 seconds =       0.96 minutes
	system time =       1.71 seconds =       0.03 minutes
	total time  =          2 seconds =       0.03 minutes
Total time:
	user time   =     294.89 seconds =       4.91 minutes
	system time =      11.19 seconds =       0.19 minutes
	total time  =         13 seconds =       0.22 minutes

         ----------------------------------------------------------
                                   FINDIF
                     R. A. King and Jonathon Misiewicz
         ---------------------------------------------------------

  Computing gradient from energies.
    Using 3-point formula.
    Energy without displacement: -399.3663735655
    Check energies below for precision!
    Forces are for mass-weighted, symmetry-adapted cartesians (in au).

     Coord      Energy(-1)        Energy(+1)            Force
        0   -399.3663950064   -399.3663479686      0.0047037844
        1   -399.3663486763   -399.3663939875     -0.0045311243


-------------------------------------------------------------
  ## New Matrix (Symmetry 0) ##
  Irrep: 1 Size: 3 x 3

                 1                   2                   3

    1     0.00000000000000     0.00000000000000     0.00647708114153
    2     0.00000000000000    -0.00321649994586    -0.00323854057076
    3     0.00000000000000     0.00321649994586    -0.00323854057076




			-----------------------------------------
			 OPTKING 2.0: for geometry optimizations 
			  - R.A. King,  Bethel University        
			-----------------------------------------
	At level 1: Red. Int., RFO, no backsteps, dynamic trust

	Internal coordinates to be generated automatically.
	Detected frag 1 with atoms:  1 2 3
	---Fragment 1 Bond Connectivity---
	 1 : 2 3
	 2 : 1
	 3 : 1

	---Fragment 1 Geometry and Gradient---
	 S          -0.0000000000        0.0000000000       -0.1038317314
	 H          -0.0000000000        1.8235062468        1.6469701579
	 H           0.0000000000       -1.8235062468        1.6469701579
	             0.0000000000        0.0000000000        0.0064770811
	             0.0000000000       -0.0032164999       -0.0032385406
	             0.0000000000        0.0032164999       -0.0032385406

	Previous optimization step data not found.  Starting new optimization.

	---Fragment 1 Intrafragment Coordinates---
	 - Coordinate -           - BOHR/RAD -       - ANG/DEG -
	 R(1,2)           =         2.527940	       1.337728
	 R(1,3)           =         2.527940	       1.337728
	 B(2,1,3)         =         1.611472	      92.330565

	Current energy   :      -399.3663735655

	Generating empirical Hessian (Schlegel '84) for each fragment.
	Taking RFO optimization step.
	Going to follow RFO solution 1.
	Using RFO vector 1.
	Norm of target step-size    0.02430
	Projected energy change by RFO approximation:        -0.0001685081

	Back-transformation to cartesian coordinates...
	Successfully converged to displaced geometry.

	--- Internal Coordinate Step in ANG or DEG, aJ/ANG or AJ/DEG ---
	 ---------------------------------------------------------------------------
	   Coordinate                Previous        Force       Change         New 
	   ----------                --------       ------       ------       ------
	    1 R(1,2)          =      1.337728     0.037594     0.009071     1.346799
	    2 R(1,3)          =      1.337728     0.037594     0.009071     1.346799
	    3 B(2,1,3)        =     92.330565    -0.000021    -0.098039    92.232526
	 ---------------------------------------------------------------------------
	Successfully symmetrized geometry.

  ==> Convergence Check <==

  Measures of convergence in internal coordinates in au.
  Criteria marked as inactive (o), active & met (*), and active & unmet ( ).
  --------------------------------------------------------------------------------------------- ~
   Step     Total Energy     Delta E     MAX Force     RMS Force      MAX Disp      RMS Disp    ~
  --------------------------------------------------------------------------------------------- ~
    Convergence Criteria    1.00e-06 *    3.00e-04 *             o    1.20e-03 *             o  ~
  --------------------------------------------------------------------------------------------- ~
      1    -399.36637357   -3.99e+02      4.56e-03      3.73e-03 o    1.71e-02      1.40e-02 o  ~
  ---------------------------------------------------------------------------------------------

	Writing optimization data to binary file.
	Structure for next step:
	Cartesian Geometry (in Angstrom)
	    S    -0.0000000000   0.0000000000  -0.0596874752
	    H    -0.0000000000   0.9707027486   0.8739101155
	    H     0.0000000000  -0.9707027486   0.8739101155
			--------------------------
			 OPTKING Finished Execution 
			--------------------------

    Structure for next step:
    Molecular point group: c2v
    Full point group: C2v

    Geometry (in Angstrom), charge = 0, multiplicity = 1:

    S           -0.000000000000     0.000000000000    -0.055367232124
    H           -0.000000000000     0.970702752375     0.878230362204
    H            0.000000000000    -0.970702752375     0.878230362204

gradient() will perform gradient computation by finite difference of analytic energies.

         ----------------------------------------------------------
                                   FINDIF
                     R. A. King and Jonathon Misiewicz
         ---------------------------------------------------------

  Using finite-differences of energies to determine gradients.
    Generating geometries for use with 3-point formula.
    Displacement size will be 5.00e-03.
    Number of atoms is 3.
    Number of symmetric SALCs is 2.
    Translations projected? 1. Rotations projected? 1.
    Number of geometries (including reference) is 5.

  //>>>>>>>>>>>>>>>>>>>>>>>>>>>>>>>>>>>//
  //    Loading displacement 1 of 5    //
  //<<<<<<<<<<<<<<<<<<<<<<<<<<<<<<<<<<<//

*** tstart() called on bp1-compute00115.data.bp.acrc.priv
*** at Tue Apr 27 17:58:57 2021

   => Loading Basis Set <=

    Name: AUG-CC-PV(D+D)Z
    Role: ORBITAL
    Keyword: BASIS
    atoms 1   entry S          line   724 file /work/zw18965/.conda/envs/p4env/share/psi4/basis/aug-cc-pv_dpd_z.gbs 
    atoms 2-3 entry H          line    56 file /work/zw18965/.conda/envs/p4env/share/psi4/basis/aug-cc-pv_dpd_z.gbs 


         ---------------------------------------------------------
                                   SCF
               by Justin Turney, Rob Parrish, Andy Simmonett
                          and Daniel G. A. Smith
                              RKS Reference
                       24 Threads, 137329 MiB Core
         ---------------------------------------------------------

  ==> Geometry <==

    Molecular point group: c2v
    Full point group: C2v

    Geometry (in Angstrom), charge = 0, multiplicity = 1:

       Center              X                  Y                   Z               Mass       
    ------------   -----------------  -----------------  -----------------  -----------------
         S           -0.000000000000     0.000000000000    -0.055367232124    31.972071174400
         H           -0.000000000000     0.970702752375     0.878230362204     1.007825032230
         H            0.000000000000    -0.970702752375     0.878230362204     1.007825032230

  Running in c2v symmetry.

  Rotational constants: A =     10.20031  B =      8.87583  C =      4.74604 [cm^-1]
  Rotational constants: A = 305797.47223  B = 266090.60470  C = 142282.79551 [MHz]
  Nuclear repulsion =   12.845844098575560

  Charge       = 0
  Multiplicity = 1
  Electrons    = 18
  Nalpha       = 9
  Nbeta        = 9

  ==> Algorithm <==

  SCF Algorithm Type is DF.
  DIIS enabled.
  MOM disabled.
  Fractional occupation disabled.
  Guess Type is READ.
  Energy threshold   = 1.00e-08
  Density threshold  = 1.00e-08
  Integral threshold = 0.00e+00

  ==> Primary Basis <==

  Basis Set: AUG-CC-PV(D+D)Z
    Blend: AUG-CC-PV(D+D)Z
    Number of shells: 22
    Number of basis function: 50
    Number of Cartesian functions: 53
    Spherical Harmonics?: true
    Max angular momentum: 2

  ==> DFT Potential <==

   => Composite Functional: WB97M-V <= 

    wB97M-V Hyb-GGA Exchange-Correlation Functional

    N. Mardirossian and M. Head-Gordon, J. Chem. Phys. 144, 214110 (2016)

    Deriv               =              1
    GGA                 =           TRUE
    Meta                =           TRUE

    Exchange Hybrid     =           TRUE
    MP2 Hybrid          =          FALSE

   => Exchange-Correlation Functionals <=

    1.0000   wB97M-V exchange-correlation functional

   => Exact (HF) Exchange <=

    0.8500            HF,LR [omega = 0.3000]
    0.1500               HF 

   => VV10 Non-Local Parameters <=

    VV10 B              =     6.0000E+00
    VV10 C              =     1.0000E-02

   => Molecular Quadrature <=

    Radial Scheme          =       TREUTLER
    Pruning Scheme         =           FLAT
    Nuclear Scheme         =       TREUTLER

    BS radius alpha        =              1
    Pruning alpha          =              1
    Radial Points          =             75
    Spherical Points       =            302
    Total Points           =          67950
    Total Blocks           =            572
    Max Points             =            254
    Max Functions          =             50

   => Loading Basis Set <=

    Name: (AUG-CC-PV(D+D)Z AUX)
    Role: JKFIT
    Keyword: DF_BASIS_SCF
    atoms 1   entry S          line   690 file /work/zw18965/.conda/envs/p4env/share/psi4/basis/aug-cc-pvdz-jkfit.gbs 
    atoms 2-3 entry H          line    70 file /work/zw18965/.conda/envs/p4env/share/psi4/basis/aug-cc-pvdz-jkfit.gbs 

   => Loading Basis Set <=

    Name: AUG-CC-PV(D+D)Z
    Role: ORBITAL
    Keyword: BASIS
    atoms 1   entry S          line   724 file /work/zw18965/.conda/envs/p4env/share/psi4/basis/aug-cc-pv_dpd_z.gbs 
    atoms 2-3 entry H          line    56 file /work/zw18965/.conda/envs/p4env/share/psi4/basis/aug-cc-pv_dpd_z.gbs 

  Reading orbitals from file 180, no projection.

  ==> Pre-Iterations <==

   -------------------------------------------------------
    Irrep   Nso     Nmo     Nalpha   Nbeta   Ndocc  Nsocc
   -------------------------------------------------------
     A1        22      22       0       0       0       0
     A2         5       5       0       0       0       0
     B1         9       9       0       0       0       0
     B2        14      14       0       0       0       0
   -------------------------------------------------------
    Total      50      50       9       9       9       0
   -------------------------------------------------------

  ==> Integral Setup <==

  ==> DiskDFJK: Density-Fitted J/K Matrices <==

    J tasked:                  Yes
    K tasked:                  Yes
    wK tasked:                 Yes
    Omega:               3.000E-01
    OpenMP threads:             24
    Integrals threads:          24
    Memory [MiB]:           102753
    Algorithm:                Core
    Integral Cache:           NONE
    Schwarz Cutoff:          1E-12
    Fitting Condition:       1E-10

   => Auxiliary Basis Set <=

  Basis Set: (AUG-CC-PV(D+D)Z AUX)
    Blend: AUG-CC-PVDZ-JKFIT
    Number of shells: 64
    Number of basis function: 192
    Number of Cartesian functions: 220
    Spherical Harmonics?: true
    Max angular momentum: 3

  Cached 100.0% of DFT collocation blocks in 0.238 [GiB].

  Minimum eigenvalue in the overlap matrix is 9.8187239440E-04.
  Using Symmetric Orthogonalization.

  SCF Guess: Orbitals guess was supplied from a previous computation.

  ==> Iterations <==

                           Total Energy        Delta E     RMS |[F,P]|

   @DF-RKS iter   0:  -399.35727185998900   -3.99357e+02   8.58991e-04 
   @DF-RKS iter   1:  -399.36644003835914   -9.16818e-03   1.22416e-04 DIIS
   @DF-RKS iter   2:  -399.36644663868714   -6.60033e-06   5.98717e-05 DIIS
   @DF-RKS iter   3:  -399.36644775068390   -1.11200e-06   4.76028e-06 DIIS
   @DF-RKS iter   4:  -399.36644777437090   -2.36870e-08   1.39502e-06 DIIS
   @DF-RKS iter   5:  -399.36644777657949   -2.20859e-09   5.98097e-07 DIIS
   @DF-RKS iter   6:  -399.36644777683580   -2.56307e-10   7.91933e-08 DIIS
   @DF-RKS iter   7:  -399.36644777684592   -1.01181e-11   6.72109e-09 DIIS
  Energy and wave function converged.


  ==> Post-Iterations <==

    Orbital Energies [Eh]
    ---------------------

    Doubly Occupied:                                                      

       1A1   -89.211663     2A1    -8.132129     1B2    -6.042146  
       3A1    -6.039410     1B1    -6.033271     4A1    -0.863028  
       2B2    -0.541781     5A1    -0.467234     2B1    -0.360420  

    Virtual:                                                              

       6A1     0.011961     3B2     0.042253     4B2     0.080685  
       7A1     0.084841     3B1     0.096997     8A1     0.142751  
       5B2     0.157913     9A1     0.189279    10A1     0.224903  
       1A2     0.259968     4B1     0.266345     6B2     0.363419  
      11A1     0.404554     7B2     0.425934    12A1     0.466659  
       5B1     0.471126     2A2     0.475847    13A1     0.504922  
       8B2     0.550748    14A1     0.709609     6B1     0.750387  
       9B2     0.751311    15A1     0.769209     3A2     0.928435  
       7B1     0.950005    16A1     0.982480    10B2     1.006421  
      17A1     1.027221    11B2     1.163060    18A1     1.450500  
       4A2     1.650433    12B2     1.671206     8B1     1.699836  
      19A1     1.793376    20A1     2.128193    13B2     2.191745  
       5A2     4.735206     9B1     4.738914    21A1     4.756827  
      22A1     4.771404    14B2     4.875894  

    Final Occupation by Irrep:
             A1    A2    B1    B2 
    DOCC [     5,    0,    2,    2 ]

  @DF-RKS Final Energy:  -399.36644777684592

   => Energetics <=

    Nuclear Repulsion Energy =             12.8458440985755598
    One-Electron Energy =                -576.4627902563599946
    Two-Electron Energy =                 184.3284304959793474
    DFT Exchange-Correlation Energy =     -20.1536807937639004
    Empirical Dispersion Energy =           0.0000000000000000
    VV10 Nonlocal Energy =                  0.0757486787231404
    Total Energy =                       -399.3664477768459165

Computation Completed


Properties will be evaluated at   0.000000,   0.000000,   0.000000 [a0]

Properties computed using the SCF density matrix

  Nuclear Dipole Moment: [e a0]
     X:     0.0000      Y:     0.0000      Z:     1.6452

  Electronic Dipole Moment: [e a0]
     X:     0.0000      Y:     0.0000      Z:    -1.2497

  Dipole Moment: [e a0]
     X:     0.0000      Y:     0.0000      Z:     0.3955     Total:     0.3955

  Dipole Moment: [D]
     X:     0.0000      Y:     0.0000      Z:     1.0053     Total:     1.0053


*** tstop() called on bp1-compute00115.data.bp.acrc.priv at Tue Apr 27 17:58:59 2021
Module time:
	user time   =      44.99 seconds =       0.75 minutes
	system time =       1.40 seconds =       0.02 minutes
	total time  =          2 seconds =       0.03 minutes
Total time:
	user time   =     340.25 seconds =       5.67 minutes
	system time =      12.61 seconds =       0.21 minutes
	total time  =         15 seconds =       0.25 minutes

  //>>>>>>>>>>>>>>>>>>>>>>>>>>>>>>>>>>>//
  //    Loading displacement 2 of 5    //
  //<<<<<<<<<<<<<<<<<<<<<<<<<<<<<<<<<<<//

*** tstart() called on bp1-compute00115.data.bp.acrc.priv
*** at Tue Apr 27 17:58:59 2021

   => Loading Basis Set <=

    Name: AUG-CC-PV(D+D)Z
    Role: ORBITAL
    Keyword: BASIS
    atoms 1   entry S          line   724 file /work/zw18965/.conda/envs/p4env/share/psi4/basis/aug-cc-pv_dpd_z.gbs 
    atoms 2-3 entry H          line    56 file /work/zw18965/.conda/envs/p4env/share/psi4/basis/aug-cc-pv_dpd_z.gbs 


         ---------------------------------------------------------
                                   SCF
               by Justin Turney, Rob Parrish, Andy Simmonett
                          and Daniel G. A. Smith
                              RKS Reference
                       24 Threads, 137329 MiB Core
         ---------------------------------------------------------

  ==> Geometry <==

    Molecular point group: c2v
    Full point group: C2v

    Geometry (in Angstrom), charge = 0, multiplicity = 1:

       Center              X                  Y                   Z               Mass       
    ------------   -----------------  -----------------  -----------------  -----------------
         S           -0.000000000000     0.000000000000    -0.055481186838    31.972071174400
         H           -0.000000000000     0.970702752375     0.880037902261     1.007825032230
         H            0.000000000000    -0.970702752375     0.880037902261     1.007825032230

  Running in c2v symmetry.

  Rotational constants: A =     10.15845  B =      8.87583  C =      4.73696 [cm^-1]
  Rotational constants: A = 304542.58643  B = 266090.60470  C = 142010.52837 [MHz]
  Nuclear repulsion =   12.833414881882511

  Charge       = 0
  Multiplicity = 1
  Electrons    = 18
  Nalpha       = 9
  Nbeta        = 9

  ==> Algorithm <==

  SCF Algorithm Type is DF.
  DIIS enabled.
  MOM disabled.
  Fractional occupation disabled.
  Guess Type is READ.
  Energy threshold   = 1.00e-08
  Density threshold  = 1.00e-08
  Integral threshold = 0.00e+00

  ==> Primary Basis <==

  Basis Set: AUG-CC-PV(D+D)Z
    Blend: AUG-CC-PV(D+D)Z
    Number of shells: 22
    Number of basis function: 50
    Number of Cartesian functions: 53
    Spherical Harmonics?: true
    Max angular momentum: 2

  ==> DFT Potential <==

   => Composite Functional: WB97M-V <= 

    wB97M-V Hyb-GGA Exchange-Correlation Functional

    N. Mardirossian and M. Head-Gordon, J. Chem. Phys. 144, 214110 (2016)

    Deriv               =              1
    GGA                 =           TRUE
    Meta                =           TRUE

    Exchange Hybrid     =           TRUE
    MP2 Hybrid          =          FALSE

   => Exchange-Correlation Functionals <=

    1.0000   wB97M-V exchange-correlation functional

   => Exact (HF) Exchange <=

    0.8500            HF,LR [omega = 0.3000]
    0.1500               HF 

   => VV10 Non-Local Parameters <=

    VV10 B              =     6.0000E+00
    VV10 C              =     1.0000E-02

   => Molecular Quadrature <=

    Radial Scheme          =       TREUTLER
    Pruning Scheme         =           FLAT
    Nuclear Scheme         =       TREUTLER

    BS radius alpha        =              1
    Pruning alpha          =              1
    Radial Points          =             75
    Spherical Points       =            302
    Total Points           =          67950
    Total Blocks           =            572
    Max Points             =            254
    Max Functions          =             50

   => Loading Basis Set <=

    Name: (AUG-CC-PV(D+D)Z AUX)
    Role: JKFIT
    Keyword: DF_BASIS_SCF
    atoms 1   entry S          line   690 file /work/zw18965/.conda/envs/p4env/share/psi4/basis/aug-cc-pvdz-jkfit.gbs 
    atoms 2-3 entry H          line    70 file /work/zw18965/.conda/envs/p4env/share/psi4/basis/aug-cc-pvdz-jkfit.gbs 

   => Loading Basis Set <=

    Name: AUG-CC-PV(D+D)Z
    Role: ORBITAL
    Keyword: BASIS
    atoms 1   entry S          line   724 file /work/zw18965/.conda/envs/p4env/share/psi4/basis/aug-cc-pv_dpd_z.gbs 
    atoms 2-3 entry H          line    56 file /work/zw18965/.conda/envs/p4env/share/psi4/basis/aug-cc-pv_dpd_z.gbs 

  Reading orbitals from file 180, no projection.

  ==> Pre-Iterations <==

   -------------------------------------------------------
    Irrep   Nso     Nmo     Nalpha   Nbeta   Ndocc  Nsocc
   -------------------------------------------------------
     A1        22      22       0       0       0       0
     A2         5       5       0       0       0       0
     B1         9       9       0       0       0       0
     B2        14      14       0       0       0       0
   -------------------------------------------------------
    Total      50      50       9       9       9       0
   -------------------------------------------------------

  ==> Integral Setup <==

  ==> DiskDFJK: Density-Fitted J/K Matrices <==

    J tasked:                  Yes
    K tasked:                  Yes
    wK tasked:                 Yes
    Omega:               3.000E-01
    OpenMP threads:             24
    Integrals threads:          24
    Memory [MiB]:           102753
    Algorithm:                Core
    Integral Cache:           NONE
    Schwarz Cutoff:          1E-12
    Fitting Condition:       1E-10

   => Auxiliary Basis Set <=

  Basis Set: (AUG-CC-PV(D+D)Z AUX)
    Blend: AUG-CC-PVDZ-JKFIT
    Number of shells: 64
    Number of basis function: 192
    Number of Cartesian functions: 220
    Spherical Harmonics?: true
    Max angular momentum: 3

  Cached 100.0% of DFT collocation blocks in 0.238 [GiB].

  Minimum eigenvalue in the overlap matrix is 9.8643874686E-04.
  Using Symmetric Orthogonalization.

  SCF Guess: Orbitals guess was supplied from a previous computation.

  ==> Iterations <==

                           Total Energy        Delta E     RMS |[F,P]|

   @DF-RKS iter   0:  -399.36493473356563   -3.99365e+02   1.22516e-04 
   @DF-RKS iter   1:  -399.36644497695914   -1.51024e-03   2.02382e-05 DIIS
   @DF-RKS iter   2:  -399.36644516571283   -1.88754e-07   9.82367e-06 DIIS
   @DF-RKS iter   3:  -399.36644519584644   -3.01336e-08   8.50287e-07 DIIS
   @DF-RKS iter   4:  -399.36644519667055   -8.24116e-10   2.39780e-07 DIIS
   @DF-RKS iter   5:  -399.36644519674053   -6.99742e-11   1.05568e-07 DIIS
   @DF-RKS iter   6:  -399.36644519674826   -7.73070e-12   1.44304e-08 DIIS
   @DF-RKS iter   7:  -399.36644519674866   -3.97904e-13   1.33761e-09 DIIS
  Energy and wave function converged.


  ==> Post-Iterations <==

    Orbital Energies [Eh]
    ---------------------

    Doubly Occupied:                                                      

       1A1   -89.211833     2A1    -8.132236     1B2    -6.042252  
       3A1    -6.039528     1B1    -6.033377     4A1    -0.862764  
       2B2    -0.541273     5A1    -0.467344     2B1    -0.360399  

    Virtual:                                                              

       6A1     0.011930     3B2     0.042240     4B2     0.080502  
       7A1     0.084838     3B1     0.097002     8A1     0.142618  
       5B2     0.157691     9A1     0.189360    10A1     0.224706  
       1A2     0.260012     4B1     0.266197     6B2     0.363591  
      11A1     0.404537     7B2     0.425786    12A1     0.466484  
       5B1     0.471098     2A2     0.475694    13A1     0.504741  
       8B2     0.550995    14A1     0.709667     6B1     0.750309  
       9B2     0.751196    15A1     0.769240     3A2     0.928495  
       7B1     0.950115    16A1     0.982224    10B2     1.006466  
      17A1     1.026835    11B2     1.161128    18A1     1.449829  
       4A2     1.650082    12B2     1.671579     8B1     1.699548  
      19A1     1.792541    20A1     2.126782    13B2     2.189436  
       5A2     4.734920     9B1     4.738809    21A1     4.756706  
      22A1     4.771110    14B2     4.875953  

    Final Occupation by Irrep:
             A1    A2    B1    B2 
    DOCC [     5,    0,    2,    2 ]

  @DF-RKS Final Energy:  -399.36644519674866

   => Energetics <=

    Nuclear Repulsion Energy =             12.8334148818825113
    One-Electron Energy =                -576.4384490940295791
    Two-Electron Energy =                 184.3158884874574994
    DFT Exchange-Correlation Energy =     -20.1530472755290226
    Empirical Dispersion Energy =           0.0000000000000000
    VV10 Nonlocal Energy =                  0.0757478034698982
    Total Energy =                       -399.3664451967487139

Computation Completed


Properties will be evaluated at   0.000000,   0.000000,   0.000000 [a0]

Properties computed using the SCF density matrix

  Nuclear Dipole Moment: [e a0]
     X:     0.0000      Y:     0.0000      Z:     1.6486

  Electronic Dipole Moment: [e a0]
     X:     0.0000      Y:     0.0000      Z:    -1.2532

  Dipole Moment: [e a0]
     X:     0.0000      Y:     0.0000      Z:     0.3954     Total:     0.3954

  Dipole Moment: [D]
     X:     0.0000      Y:     0.0000      Z:     1.0050     Total:     1.0050


*** tstop() called on bp1-compute00115.data.bp.acrc.priv at Tue Apr 27 17:59:01 2021
Module time:
	user time   =      45.83 seconds =       0.76 minutes
	system time =       1.48 seconds =       0.02 minutes
	total time  =          2 seconds =       0.03 minutes
Total time:
	user time   =     386.22 seconds =       6.44 minutes
	system time =      14.09 seconds =       0.23 minutes
	total time  =         17 seconds =       0.28 minutes

  //>>>>>>>>>>>>>>>>>>>>>>>>>>>>>>>>>>>//
  //    Loading displacement 3 of 5    //
  //<<<<<<<<<<<<<<<<<<<<<<<<<<<<<<<<<<<//

*** tstart() called on bp1-compute00115.data.bp.acrc.priv
*** at Tue Apr 27 17:59:01 2021

   => Loading Basis Set <=

    Name: AUG-CC-PV(D+D)Z
    Role: ORBITAL
    Keyword: BASIS
    atoms 1   entry S          line   724 file /work/zw18965/.conda/envs/p4env/share/psi4/basis/aug-cc-pv_dpd_z.gbs 
    atoms 2-3 entry H          line    56 file /work/zw18965/.conda/envs/p4env/share/psi4/basis/aug-cc-pv_dpd_z.gbs 


         ---------------------------------------------------------
                                   SCF
               by Justin Turney, Rob Parrish, Andy Simmonett
                          and Daniel G. A. Smith
                              RKS Reference
                       24 Threads, 137329 MiB Core
         ---------------------------------------------------------

  ==> Geometry <==

    Molecular point group: c2v
    Full point group: C2v

    Geometry (in Angstrom), charge = 0, multiplicity = 1:

       Center              X                  Y                   Z               Mass       
    ------------   -----------------  -----------------  -----------------  -----------------
         S           -0.000000000000     0.000000000000    -0.055253277409    31.972071174400
         H           -0.000000000000     0.970702752375     0.876422822147     1.007825032230
         H            0.000000000000    -0.970702752375     0.876422822147     1.007825032230

  Running in c2v symmetry.

  Rotational constants: A =     10.24242  B =      8.87583  C =      4.75514 [cm^-1]
  Rotational constants: A = 307060.13028  B = 266090.60470  C = 142555.54562 [MHz]
  Nuclear repulsion =   12.858284616251783

  Charge       = 0
  Multiplicity = 1
  Electrons    = 18
  Nalpha       = 9
  Nbeta        = 9

  ==> Algorithm <==

  SCF Algorithm Type is DF.
  DIIS enabled.
  MOM disabled.
  Fractional occupation disabled.
  Guess Type is READ.
  Energy threshold   = 1.00e-08
  Density threshold  = 1.00e-08
  Integral threshold = 0.00e+00

  ==> Primary Basis <==

  Basis Set: AUG-CC-PV(D+D)Z
    Blend: AUG-CC-PV(D+D)Z
    Number of shells: 22
    Number of basis function: 50
    Number of Cartesian functions: 53
    Spherical Harmonics?: true
    Max angular momentum: 2

  ==> DFT Potential <==

   => Composite Functional: WB97M-V <= 

    wB97M-V Hyb-GGA Exchange-Correlation Functional

    N. Mardirossian and M. Head-Gordon, J. Chem. Phys. 144, 214110 (2016)

    Deriv               =              1
    GGA                 =           TRUE
    Meta                =           TRUE

    Exchange Hybrid     =           TRUE
    MP2 Hybrid          =          FALSE

   => Exchange-Correlation Functionals <=

    1.0000   wB97M-V exchange-correlation functional

   => Exact (HF) Exchange <=

    0.8500            HF,LR [omega = 0.3000]
    0.1500               HF 

   => VV10 Non-Local Parameters <=

    VV10 B              =     6.0000E+00
    VV10 C              =     1.0000E-02

   => Molecular Quadrature <=

    Radial Scheme          =       TREUTLER
    Pruning Scheme         =           FLAT
    Nuclear Scheme         =       TREUTLER

    BS radius alpha        =              1
    Pruning alpha          =              1
    Radial Points          =             75
    Spherical Points       =            302
    Total Points           =          67950
    Total Blocks           =            572
    Max Points             =            254
    Max Functions          =             50

   => Loading Basis Set <=

    Name: (AUG-CC-PV(D+D)Z AUX)
    Role: JKFIT
    Keyword: DF_BASIS_SCF
    atoms 1   entry S          line   690 file /work/zw18965/.conda/envs/p4env/share/psi4/basis/aug-cc-pvdz-jkfit.gbs 
    atoms 2-3 entry H          line    70 file /work/zw18965/.conda/envs/p4env/share/psi4/basis/aug-cc-pvdz-jkfit.gbs 

   => Loading Basis Set <=

    Name: AUG-CC-PV(D+D)Z
    Role: ORBITAL
    Keyword: BASIS
    atoms 1   entry S          line   724 file /work/zw18965/.conda/envs/p4env/share/psi4/basis/aug-cc-pv_dpd_z.gbs 
    atoms 2-3 entry H          line    56 file /work/zw18965/.conda/envs/p4env/share/psi4/basis/aug-cc-pv_dpd_z.gbs 

  Reading orbitals from file 180, no projection.

  ==> Pre-Iterations <==

   -------------------------------------------------------
    Irrep   Nso     Nmo     Nalpha   Nbeta   Ndocc  Nsocc
   -------------------------------------------------------
     A1        22      22       0       0       0       0
     A2         5       5       0       0       0       0
     B1         9       9       0       0       0       0
     B2        14      14       0       0       0       0
   -------------------------------------------------------
    Total      50      50       9       9       9       0
   -------------------------------------------------------

  ==> Integral Setup <==

  ==> DiskDFJK: Density-Fitted J/K Matrices <==

    J tasked:                  Yes
    K tasked:                  Yes
    wK tasked:                 Yes
    Omega:               3.000E-01
    OpenMP threads:             24
    Integrals threads:          24
    Memory [MiB]:           102753
    Algorithm:                Core
    Integral Cache:           NONE
    Schwarz Cutoff:          1E-12
    Fitting Condition:       1E-10

   => Auxiliary Basis Set <=

  Basis Set: (AUG-CC-PV(D+D)Z AUX)
    Blend: AUG-CC-PVDZ-JKFIT
    Number of shells: 64
    Number of basis function: 192
    Number of Cartesian functions: 220
    Spherical Harmonics?: true
    Max angular momentum: 3

  Cached 100.0% of DFT collocation blocks in 0.238 [GiB].

  Minimum eigenvalue in the overlap matrix is 9.7735296775E-04.
  Using Symmetric Orthogonalization.

  SCF Guess: Orbitals guess was supplied from a previous computation.

  ==> Iterations <==

                           Total Energy        Delta E     RMS |[F,P]|

   @DF-RKS iter   0:  -399.36795552122743   -3.99368e+02   1.22809e-04 
   @DF-RKS iter   1:  -399.36644612722603    1.50939e-03   2.01767e-05 DIIS
   @DF-RKS iter   2:  -399.36644631497882   -1.87753e-07   9.78669e-06 DIIS
   @DF-RKS iter   3:  -399.36644634486640   -2.98876e-08   8.47018e-07 DIIS
   @DF-RKS iter   4:  -399.36644634568472   -8.18318e-10   2.37210e-07 DIIS
   @DF-RKS iter   5:  -399.36644634575333   -6.86100e-11   1.04275e-07 DIIS
[...]
       2B2    -0.541299     5A1    -0.467740     2B1    -0.360432  

    Virtual:                                                              

       6A1     0.011980     3B2     0.042310     4B2     0.080497  
       7A1     0.084807     3B1     0.096994     8A1     0.142942  
       5B2     0.157867     9A1     0.189859    10A1     0.224616  
       1A2     0.260220     4B1     0.266099     6B2     0.363548  
      11A1     0.404585     7B2     0.426073    12A1     0.466422  
       5B1     0.471274     2A2     0.475796    13A1     0.504797  
       8B2     0.551102    14A1     0.710623     6B1     0.750354  
       9B2     0.751204    15A1     0.769396     3A2     0.928378  
       7B1     0.950146    16A1     0.981677    10B2     1.006718  
      17A1     1.027318    11B2     1.161145    18A1     1.450879  
       4A2     1.650281    12B2     1.673540     8B1     1.700402  
      19A1     1.793085    20A1     2.129624    13B2     2.191776  
       5A2     4.735024     9B1     4.739209    21A1     4.756561  
      22A1     4.771667    14B2     4.875694  

    Final Occupation by Irrep:
             A1    A2    B1    B2 
    DOCC [     5,    0,    2,    2 ]

  @DF-RKS Final Energy:  -399.36644676176388

   => Energetics <=

    Nuclear Repulsion Energy =             12.8504207330031548
    One-Electron Energy =                -576.4716573321328497
    Two-Electron Energy =                 184.3329516233297340
    DFT Exchange-Correlation Energy =     -20.1539103223702760
    Empirical Dispersion Energy =           0.0000000000000000
    VV10 Nonlocal Energy =                  0.0757485364063592
    Total Energy =                       -399.3664467617638820

Computation Completed


Properties will be evaluated at   0.000000,   0.000000,   0.000000 [a0]

Properties computed using the SCF density matrix

  Nuclear Dipole Moment: [e a0]
     X:     0.0000      Y:     0.0000      Z:     1.6494

  Electronic Dipole Moment: [e a0]
     X:     0.0000      Y:     0.0000      Z:    -1.2541

  Dipole Moment: [e a0]
     X:     0.0000      Y:     0.0000      Z:     0.3953     Total:     0.3953

  Dipole Moment: [D]
     X:     0.0000      Y:     0.0000      Z:     1.0047     Total:     1.0047


*** tstop() called on bp1-compute00115.data.bp.acrc.priv at Tue Apr 27 17:59:47 2021
Module time:
	user time   =      61.74 seconds =       1.03 minutes
	system time =       1.68 seconds =       0.03 minutes
	total time  =          3 seconds =       0.05 minutes
Total time:
	user time   =    1442.42 seconds =      24.04 minutes
	system time =      45.31 seconds =       0.76 minutes
	total time  =         63 seconds =       1.05 minutes

  //>>>>>>>>>>>>>>>>>>>>>>>>>>>>>>>>>>>//
  //    Loading displacement 8 of 8    //
  //<<<<<<<<<<<<<<<<<<<<<<<<<<<<<<<<<<<//

*** tstart() called on bp1-compute00115.data.bp.acrc.priv
*** at Tue Apr 27 17:59:47 2021

   => Loading Basis Set <=

    Name: AUG-CC-PV(D+D)Z
    Role: ORBITAL
    Keyword: BASIS
    atoms 1   entry S          line   724 file /work/zw18965/.conda/envs/p4env/share/psi4/basis/aug-cc-pv_dpd_z.gbs 
    atoms 2-3 entry H          line    56 file /work/zw18965/.conda/envs/p4env/share/psi4/basis/aug-cc-pv_dpd_z.gbs 


         ---------------------------------------------------------
                                   SCF
               by Justin Turney, Rob Parrish, Andy Simmonett
                          and Daniel G. A. Smith
                              RKS Reference
                       24 Threads, 137329 MiB Core
         ---------------------------------------------------------

  ==> Geometry <==

    Molecular point group: cs
    Full point group: Cs

    Geometry (in Angstrom), charge = 0, multiplicity = 1:

       Center              X                  Y                   Z               Mass       
    ------------   -----------------  -----------------  -----------------  -----------------
         S            0.000000000000    -0.000083267150    -0.055396413820    31.972071174400
         H            0.000000000000     0.970999531931     0.879965541231     1.007825032230
         H            0.000000000000    -0.968357978934     0.877420938382     1.007825032230

  Running in cs symmetry.

  Rotational constants: A =     10.19017  B =      8.89408  C =      4.74906 [cm^-1]
  Rotational constants: A = 305493.73388  B = 266637.92628  C = 142373.20073 [MHz]
  Nuclear repulsion =   12.849859529610496

  Charge       = 0
  Multiplicity = 1
  Electrons    = 18
  Nalpha       = 9
  Nbeta        = 9

  ==> Algorithm <==

  SCF Algorithm Type is DF.
  DIIS enabled.
  MOM disabled.
  Fractional occupation disabled.
  Guess Type is SAD.
  Energy threshold   = 1.00e-10
  Density threshold  = 1.00e-10
  Integral threshold = 0.00e+00

  ==> Primary Basis <==

  Basis Set: AUG-CC-PV(D+D)Z
    Blend: AUG-CC-PV(D+D)Z
    Number of shells: 22
    Number of basis function: 50
    Number of Cartesian functions: 53
    Spherical Harmonics?: true
    Max angular momentum: 2

  ==> DFT Potential <==

   => Composite Functional: WB97M-V <= 

    wB97M-V Hyb-GGA Exchange-Correlation Functional

    N. Mardirossian and M. Head-Gordon, J. Chem. Phys. 144, 214110 (2016)

    Deriv               =              1
    GGA                 =           TRUE
    Meta                =           TRUE

    Exchange Hybrid     =           TRUE
    MP2 Hybrid          =          FALSE

   => Exchange-Correlation Functionals <=

    1.0000   wB97M-V exchange-correlation functional

   => Exact (HF) Exchange <=

    0.8500            HF,LR [omega = 0.3000]
    0.1500               HF 

   => VV10 Non-Local Parameters <=

    VV10 B              =     6.0000E+00
    VV10 C              =     1.0000E-02

   => Molecular Quadrature <=

    Radial Scheme          =       TREUTLER
    Pruning Scheme         =           FLAT
    Nuclear Scheme         =       TREUTLER

    BS radius alpha        =              1
    Pruning alpha          =              1
    Radial Points          =             75
    Spherical Points       =            302
    Total Points           =          67950
    Total Blocks           =            581
    Max Points             =            256
    Max Functions          =             50

   => Loading Basis Set <=

    Name: (AUG-CC-PV(D+D)Z AUX)
    Role: JKFIT
    Keyword: DF_BASIS_SCF
    atoms 1   entry S          line   690 file /work/zw18965/.conda/envs/p4env/share/psi4/basis/aug-cc-pvdz-jkfit.gbs 
    atoms 2-3 entry H          line    70 file /work/zw18965/.conda/envs/p4env/share/psi4/basis/aug-cc-pvdz-jkfit.gbs 

  ==> Pre-Iterations <==

   -------------------------------------------------------
    Irrep   Nso     Nmo     Nalpha   Nbeta   Ndocc  Nsocc
   -------------------------------------------------------
     A'        36      36       0       0       0       0
     A"        14      14       0       0       0       0
   -------------------------------------------------------
    Total      50      50       9       9       9       0
   -------------------------------------------------------

  ==> Integral Setup <==

  ==> DiskDFJK: Density-Fitted J/K Matrices <==

    J tasked:                  Yes
    K tasked:                  Yes
    wK tasked:                 Yes
    Omega:               3.000E-01
    OpenMP threads:             24
    Integrals threads:          24
    Memory [MiB]:           102753
    Algorithm:                Core
    Integral Cache:           NONE
    Schwarz Cutoff:          1E-12
    Fitting Condition:       1E-10

   => Auxiliary Basis Set <=

  Basis Set: (AUG-CC-PV(D+D)Z AUX)
    Blend: AUG-CC-PVDZ-JKFIT
    Number of shells: 64
    Number of basis function: 192
    Number of Cartesian functions: 220
    Spherical Harmonics?: true
    Max angular momentum: 3

  Cached 100.0% of DFT collocation blocks in 0.238 [GiB].

  Minimum eigenvalue in the overlap matrix is 9.7976417762E-04.
  Using Symmetric Orthogonalization.

  SCF Guess: Superposition of Atomic Densities via on-the-fly atomic UHF.

  ==> Iterations <==

                           Total Energy        Delta E     RMS |[F,P]|

   @DF-RKS iter SAD:  -399.10800727615128   -3.99108e+02   0.00000e+00 
   @DF-RKS iter   1:  -399.33106592921791   -2.23059e-01   5.81630e-03 DIIS
   @DF-RKS iter   2:  -399.35674789737971   -2.56820e-02   3.42378e-03 DIIS
   @DF-RKS iter   3:  -399.36628366552759   -9.53577e-03   2.48976e-04 DIIS
   @DF-RKS iter   4:  -399.36643599757963   -1.52332e-04   6.32390e-05 DIIS
   @DF-RKS iter   5:  -399.36644442500659   -8.42743e-06   1.36298e-05 DIIS
   @DF-RKS iter   6:  -399.36644470720057   -2.82194e-07   2.36162e-06 DIIS
   @DF-RKS iter   7:  -399.36644471691085   -9.71028e-09   3.80914e-07 DIIS
   @DF-RKS iter   8:  -399.36644471717642   -2.65572e-10   5.70433e-08 DIIS
   @DF-RKS iter   9:  -399.36644471718455   -8.12861e-12   1.99285e-08 DIIS
   @DF-RKS iter  10:  -399.36644471718540   -8.52651e-13   2.85348e-09 DIIS
   @DF-RKS iter  11:  -399.36644471718489    5.11591e-13   2.93839e-10 DIIS
   @DF-RKS iter  12:  -399.36644471718546   -5.68434e-13   3.78560e-11 DIIS
  Energy and wave function converged.


  ==> Post-Iterations <==

    Orbital Energies [Eh]
    ---------------------

    Doubly Occupied:                                                      

       1Ap   -89.211619     2Ap    -8.132103     3Ap    -6.042115  
       4Ap    -6.039385     1App   -6.033243     5Ap    -0.863129  
       6Ap    -0.541708     7Ap    -0.467392     2App   -0.360428  

    Virtual:                                                              

       8Ap     0.011973     9Ap     0.042276    10Ap     0.080651  
      11Ap     0.084830     3App    0.096995    12Ap     0.142840  
      13Ap     0.157943    14Ap     0.189472    15Ap     0.224837  
       4App    0.260048     5App    0.266286    16Ap     0.363431  
      17Ap     0.404567    18Ap     0.426012    19Ap     0.466608  
       6App    0.471179     7App    0.475863    20Ap     0.504912  
      21Ap     0.550826    22Ap     0.709960     8App    0.750390  
      23Ap     0.751298    24Ap     0.769267     9App    0.928402  
      10App    0.950035    25Ap     0.982243    26Ap     1.006513  
      27Ap     1.027334    28Ap     1.162753    29Ap     1.450765  
      11App    1.650442    30Ap     1.671960    12App    1.700100  
      31Ap     1.793435    32Ap     2.128883    33Ap     2.192303  
      13App    4.735185    14App    4.739049    34Ap     4.756760  
      35Ap     4.771547    36Ap     4.875809  

    Final Occupation by Irrep:
             Ap   App 
    DOCC [     7,    2 ]

  @DF-RKS Final Energy:  -399.36644471718546

   => Energetics <=

    Nuclear Repulsion Energy =             12.8498595296104963
    One-Electron Energy =                -576.4706120328430643
    Two-Electron Energy =                 184.3324435331779227
    DFT Exchange-Correlation Energy =     -20.1538845531937945
    Empirical Dispersion Energy =           0.0000000000000000
    VV10 Nonlocal Energy =                  0.0757488060629060
    Total Energy =                       -399.3664447171855159

Computation Completed


Properties will be evaluated at   0.000000,   0.000000,   0.000000 [a0]

Properties computed using the SCF density matrix

  Nuclear Dipole Moment: [e a0]
     X:     0.0000      Y:     0.0025      Z:     1.6460

  Electronic Dipole Moment: [e a0]
     X:     0.0000      Y:    -0.0025      Z:    -1.2506

  Dipole Moment: [e a0]
     X:     0.0000      Y:     0.0000      Z:     0.3954     Total:     0.3954

  Dipole Moment: [D]
     X:     0.0000      Y:     0.0000      Z:     1.0051     Total:     1.0051


*** tstop() called on bp1-compute00115.data.bp.acrc.priv at Tue Apr 27 17:59:50 2021
Module time:
	user time   =      65.23 seconds =       1.09 minutes
	system time =       1.86 seconds =       0.03 minutes
	total time  =          3 seconds =       0.05 minutes
Total time:
	user time   =    1507.78 seconds =      25.13 minutes
	system time =      47.18 seconds =       0.79 minutes
	total time  =         66 seconds =       1.10 minutes

         ----------------------------------------------------------
                                   FINDIF
                     R. A. King and Jonathon Misiewicz
         ---------------------------------------------------------

  Computing second-derivative from energies using projected, 
  symmetry-adapted, cartesian coordinates.

  8 energies passed in, including the reference geometry.
    Using 3-point formula.
    Energy without displacement: -399.3664481454
    Check energies below for precision!
    0: -1        :      -399.3664460861
    0: 1         :      -399.3664461841
    1: -1        :      -399.3664459875
    1: 1         :      -399.3664459996
    0: 1, 1: 1   :      -399.3664468702
    0: -1, 1: -1 :      -399.3664467618
    2: -1        :      -399.3664447172

-------------------------------------------------------------


  ==> Harmonic Vibrational Analysis <==

  non-mass-weighted Hessian:       Symmetric? True   Hermitian? True   Lin Dep Dim?  6 (0)
  projection of translations (True) and rotations (True) removed 6 degrees of freedom (6)
  total projector:                 Symmetric? True   Hermitian? True   Lin Dep Dim?  6 (6)
  mass-weighted Hessian:           Symmetric? True   Hermitian? True   Lin Dep Dim?  6 (0)
  pre-proj  low-frequency mode:    0.0000i [cm^-1]
  pre-proj  low-frequency mode:    0.0000i [cm^-1]
  pre-proj  low-frequency mode:    0.0000i [cm^-1]
  pre-proj  low-frequency mode:    0.0000  [cm^-1]
  pre-proj  low-frequency mode:    0.0000  [cm^-1]
  pre-proj  low-frequency mode:    0.0000  [cm^-1]
  pre-proj  all modes:['0.0000i' '0.0000i' '0.0000i' '0.0000' '0.0000' '0.0000' '1183.8107'
 '2692.0386' '2719.7542']
  projected mass-weighted Hessian: Symmetric? True   Hermitian? True   Lin Dep Dim?  6 (6)
  post-proj low-frequency mode:    0.0001i [cm^-1] (TR)
  post-proj low-frequency mode:    0.0001i [cm^-1] (TR)
  post-proj low-frequency mode:    0.0000i [cm^-1] (TR)
  post-proj low-frequency mode:    0.0000i [cm^-1] (TR)
  post-proj low-frequency mode:    0.0000i [cm^-1] (TR)
  post-proj low-frequency mode:    0.0000  [cm^-1] (TR)
  post-proj  all modes:['0.0001i' '0.0001i' '0.0000i' '0.0000i' '0.0000i' '0.0000' '1183.8107'
 '2692.0386' '2719.7542']

  Vibration                       7                   8                   9           
  Freq [cm^-1]                1183.8107           2692.0386           2719.7542       
  Irrep                           A1                  B2                  A1          
  Reduced mass [u]              1.0392              1.0397              1.0361        
  Force const [mDyne/A]         0.8580              4.4394              4.5155        
  Turning point v=0 [a0]        0.3128              0.2074              0.2067        
  RMS dev v=0 [a0 u^1/2]        0.2255              0.1495              0.1488        
  Char temp [K]               1703.2400           3873.2441           3913.1208       
  ----------------------------------------------------------------------------------
      1   S                0.00 -0.00  0.03   -0.00 -0.03 -0.00    0.00  0.00 -0.03   
      2   H               -0.00  0.49 -0.50   -0.00  0.51  0.49   -0.00  0.52  0.48   
      3   H               -0.00 -0.49 -0.50    0.00  0.51 -0.49   -0.00 -0.52  0.48   

  ==> Thermochemistry Components <==

  Entropy, S
    Electronic S            0.000 [cal/(mol K)]        0.000 [J/(mol K)]       0.00000000 [mEh/K] (multiplicity = 1)
    Translational S        36.501 [cal/(mol K)]      152.721 [J/(mol K)]       0.05816835 [mEh/K] (mol. weight = 33.9877 [u], P = 101325.00 [Pa])
    Rotational S           12.614 [cal/(mol K)]       52.776 [J/(mol K)]       0.02010147 [mEh/K] (symmetry no. = 2)
    Vibrational S           0.044 [cal/(mol K)]        0.185 [J/(mol K)]       0.00007064 [mEh/K]
  Total S                  49.159 [cal/(mol K)]      205.683 [J/(mol K)]       0.07834046 [mEh/K]
  Correction S              0.000 [cal/(mol K)]        0.000 [J/(mol K)]       0.00000000 [mEh/K]

  Constant volume heat capacity, Cv
    Electronic Cv           0.000 [cal/(mol K)]        0.000 [J/(mol K)]       0.00000000 [mEh/K]
    Translational Cv        2.981 [cal/(mol K)]       12.472 [J/(mol K)]       0.00475022 [mEh/K]
    Rotational Cv           2.981 [cal/(mol K)]       12.472 [J/(mol K)]       0.00475022 [mEh/K]
    Vibrational Cv          0.217 [cal/(mol K)]        0.908 [J/(mol K)]       0.00034601 [mEh/K]
  Total Cv                  6.179 [cal/(mol K)]       25.852 [J/(mol K)]       0.00984644 [mEh/K]
  Correction Cv             0.000 [cal/(mol K)]        0.000 [J/(mol K)]       0.00000000 [mEh/K]

  Constant pressure heat capacity, Cp
    Electronic Cp           0.000 [cal/(mol K)]        0.000 [J/(mol K)]       0.00000000 [mEh/K]
    Translational Cp        4.968 [cal/(mol K)]       20.786 [J/(mol K)]       0.00791703 [mEh/K]
    Rotational Cp           2.981 [cal/(mol K)]       12.472 [J/(mol K)]       0.00475022 [mEh/K]
    Vibrational Cp          0.217 [cal/(mol K)]        0.908 [J/(mol K)]       0.00034601 [mEh/K]
  Total Cp                  8.166 [cal/(mol K)]       34.166 [J/(mol K)]       0.01301326 [mEh/K]
  Correction Cp             0.000 [cal/(mol K)]        0.000 [J/(mol K)]       0.00000000 [mEh/K]

  ==> Thermochemistry Energy Analysis <==

  Raw electronic energy, E0
  Total E0, Electronic energy at well bottom at 0 [K]                 -399.36644815 [Eh]

  Zero-point energy, ZPE_vib = Sum_i nu_i / 2
    Electronic ZPE          0.000 [kcal/mol]        0.000 [kJ/mol]       0.00000000 [Eh]
    Translational ZPE       0.000 [kcal/mol]        0.000 [kJ/mol]       0.00000000 [Eh]
    Rotational ZPE          0.000 [kcal/mol]        0.000 [kJ/mol]       0.00000000 [Eh]
    Vibrational ZPE         9.429 [kcal/mol]       39.450 [kJ/mol]       0.01502589 [Eh]        3297.802 [cm^-1]
  Correction ZPE            9.429 [kcal/mol]       39.450 [kJ/mol]       0.01502589 [Eh]        3297.802 [cm^-1]
  Total ZPE, Electronic energy at 0 [K]                               -399.35142226 [Eh]

  Thermal Energy, E (includes ZPE)
    Electronic E            0.000 [kcal/mol]        0.000 [kJ/mol]       0.00000000 [Eh]
    Translational E         0.889 [kcal/mol]        3.718 [kJ/mol]       0.00141628 [Eh]
    Rotational E            0.889 [kcal/mol]        3.718 [kJ/mol]       0.00141628 [Eh]
    Vibrational E           9.440 [kcal/mol]       39.498 [kJ/mol]       0.01504382 [Eh]
  Correction E             11.218 [kcal/mol]       46.934 [kJ/mol]       0.01787638 [Eh]
  Total E, Electronic energy at  298.15 [K]                           -399.34857177 [Eh]

  Enthalpy, H_trans = E_trans + k_B * T
    Electronic H            0.000 [kcal/mol]        0.000 [kJ/mol]       0.00000000 [Eh]
    Translational H         1.481 [kcal/mol]        6.197 [kJ/mol]       0.00236046 [Eh]
    Rotational H            0.889 [kcal/mol]        3.718 [kJ/mol]       0.00141628 [Eh]
    Vibrational H           9.440 [kcal/mol]       39.498 [kJ/mol]       0.01504382 [Eh]
  Correction H             11.810 [kcal/mol]       49.413 [kJ/mol]       0.01882056 [Eh]
  Total H, Enthalpy at  298.15 [K]                                    -399.34762759 [Eh]

  Gibbs free energy, G = H - T * S
    Electronic G            0.000 [kcal/mol]        0.000 [kJ/mol]       0.00000000 [Eh]
    Translational G        -9.402 [kcal/mol]      -39.336 [kJ/mol]      -0.01498243 [Eh]
    Rotational G           -2.872 [kcal/mol]      -12.017 [kJ/mol]      -0.00457698 [Eh]
    Vibrational G           9.427 [kcal/mol]       39.442 [kJ/mol]       0.01502276 [Eh]
  Correction G             -2.847 [kcal/mol]      -11.911 [kJ/mol]      -0.00453665 [Eh]
  Total G, Free enthalpy at  298.15 [K]                               -399.37098479 [Eh]

    Psi4 stopped on: Tuesday, 27 April 2021 05:59PM
    Psi4 wall time for execution: 0:01:06.01

*** Psi4 exiting successfully. Buy a developer a beer!
