
    -----------------------------------------------------------------------
          Psi4: An Open-Source Ab Initio Electronic Structure Package
                               Psi4 1.3.2 release

                         Git: Rev {HEAD} ecbda83 


    R. M. Parrish, L. A. Burns, D. G. A. Smith, A. C. Simmonett,
    A. E. DePrince III, E. G. Hohenstein, U. Bozkaya, A. Yu. Sokolov,
    R. Di Remigio, R. M. Richard, J. F. Gonthier, A. M. James,
    H. R. McAlexander, A. Kumar, M. Saitow, X. Wang, B. P. Pritchard,
    P. Verma, H. F. Schaefer III, K. Patkowski, R. A. King, E. F. Valeev,
    F. A. Evangelista, J. M. Turney, T. D. Crawford, and C. D. Sherrill,
    J. Chem. Theory Comput. 13(7) pp 3185--3197 (2017).
    (doi: 10.1021/acs.jctc.7b00174)


                         Additional Contributions by
    P. Kraus, H. Kruse, M. H. Lechner, M. C. Schieber, R. A. Shaw,
    A. Alenaizan, R. Galvelis, Z. L. Glick, S. Lehtola, and J. P. Misiewicz

    -----------------------------------------------------------------------


    Psi4 started on: Tuesday, 27 April 2021 05:58PM

    Process ID: 198158
    Host:       bp1-compute00105.data.bp.acrc.priv
    PSIDATADIR: /work/zw18965/.conda/envs/p4env/share/psi4
    Memory:     500.0 MiB
    Threads:    24
    
  ==> Input File <==

--------------------------------------------------------------------------
memory 144 GB

molecule {
0 1
Cl 0.0000000000 0.0000000000 0.0000000000
H 0.0000000000 0.0000000000 1.2756042300
}

set dynamic_level 1
set basis aug-cc-pV(D+d)Z
 
optimize("wB97M-V")
frequencies("wB97M-V")
--------------------------------------------------------------------------

  Memory set to 134.110 GiB by Python driver.
gradient() will perform gradient computation by finite difference of analytic energies.

         ----------------------------------------------------------
                                   FINDIF
                     R. A. King and Jonathon Misiewicz
         ---------------------------------------------------------

  Using finite-differences of energies to determine gradients.
    Generating geometries for use with 3-point formula.
    Displacement size will be 5.00e-03.
    Number of atoms is 2.
    Number of symmetric SALCs is 1.
    Translations projected? 1. Rotations projected? 1.
    Number of geometries (including reference) is 3.

  //>>>>>>>>>>>>>>>>>>>>>>>>>>>>>>>>>>>//
  //    Loading displacement 1 of 3    //
  //<<<<<<<<<<<<<<<<<<<<<<<<<<<<<<<<<<<//

*** tstart() called on bp1-compute00105.data.bp.acrc.priv
*** at Tue Apr 27 17:58:52 2021

   => Loading Basis Set <=

    Name: AUG-CC-PV(D+D)Z
    Role: ORBITAL
    Keyword: BASIS
    atoms 1 entry CL         line   792 file /work/zw18965/.conda/envs/p4env/share/psi4/basis/aug-cc-pv_dpd_z.gbs 
    atoms 2 entry H          line    56 file /work/zw18965/.conda/envs/p4env/share/psi4/basis/aug-cc-pv_dpd_z.gbs 


         ---------------------------------------------------------
                                   SCF
               by Justin Turney, Rob Parrish, Andy Simmonett
                          and Daniel G. A. Smith
                              RKS Reference
                       24 Threads, 137329 MiB Core
         ---------------------------------------------------------

  ==> Geometry <==

    Molecular point group: c2v
    Full point group: C_inf_v

    Geometry (in Angstrom), charge = 0, multiplicity = 1:

       Center              X                  Y                   Z               Mass       
    ------------   -----------------  -----------------  -----------------  -----------------
         CL           0.000000000000     0.000000000000    -0.035733868603    34.968852682000
         H            0.000000000000     0.000000000000     1.239870361397     1.007825032230

  Running in c2v symmetry.

  Rotational constants: A = ************  B =     10.57594  C =     10.57594 [cm^-1]
  Rotational constants: A = ************  B = 317058.81273  C = 317058.81273 [MHz]
  Nuclear repulsion =    7.052353990226264

  Charge       = 0
  Multiplicity = 1
  Electrons    = 18
  Nalpha       = 9
  Nbeta        = 9

  ==> Algorithm <==

  SCF Algorithm Type is DF.
  DIIS enabled.
  MOM disabled.
  Fractional occupation disabled.
  Guess Type is SAD.
  Energy threshold   = 1.00e-08
  Density threshold  = 1.00e-08
  Integral threshold = 0.00e+00

  ==> Primary Basis <==

  Basis Set: AUG-CC-PV(D+D)Z
    Blend: AUG-CC-PV(D+D)Z
    Number of shells: 17
    Number of basis function: 41
    Number of Cartesian functions: 44
    Spherical Harmonics?: true
    Max angular momentum: 2

  ==> DFT Potential <==

   => Composite Functional: WB97M-V <= 

    wB97M-V Hyb-GGA Exchange-Correlation Functional

    N. Mardirossian and M. Head-Gordon, J. Chem. Phys. 144, 214110 (2016)

    Deriv               =              1
    GGA                 =           TRUE
    Meta                =           TRUE

    Exchange Hybrid     =           TRUE
    MP2 Hybrid          =          FALSE

   => Exchange-Correlation Functionals <=

    1.0000   wB97M-V exchange-correlation functional

   => Exact (HF) Exchange <=

    0.8500            HF,LR [omega = 0.3000]
    0.1500               HF 

   => VV10 Non-Local Parameters <=

    VV10 B              =     6.0000E+00
    VV10 C              =     1.0000E-02

   => Molecular Quadrature <=

    Radial Scheme          =       TREUTLER
    Pruning Scheme         =           FLAT
    Nuclear Scheme         =       TREUTLER

    BS radius alpha        =              1
    Pruning alpha          =              1
    Radial Points          =             75
    Spherical Points       =            302
    Total Points           =          45300
    Total Blocks           =            422
    Max Points             =            256
    Max Functions          =             41

   => Loading Basis Set <=

    Name: (AUG-CC-PV(D+D)Z AUX)
    Role: JKFIT
    Keyword: DF_BASIS_SCF
    atoms 1 entry CL         line   772 file /work/zw18965/.conda/envs/p4env/share/psi4/basis/aug-cc-pvdz-jkfit.gbs 
    atoms 2 entry H          line    70 file /work/zw18965/.conda/envs/p4env/share/psi4/basis/aug-cc-pvdz-jkfit.gbs 

  ==> Pre-Iterations <==

   -------------------------------------------------------
    Irrep   Nso     Nmo     Nalpha   Nbeta   Ndocc  Nsocc
   -------------------------------------------------------
     A1        20      20       0       0       0       0
     A2         3       3       0       0       0       0
     B1         9       9       0       0       0       0
     B2         9       9       0       0       0       0
   -------------------------------------------------------
    Total      41      41       9       9       9       0
   -------------------------------------------------------

  ==> Integral Setup <==

  ==> DiskDFJK: Density-Fitted J/K Matrices <==

    J tasked:                  Yes
    K tasked:                  Yes
    wK tasked:                 Yes
    Omega:               3.000E-01
    OpenMP threads:             24
    Integrals threads:          24
    Memory [MiB]:           102865
    Algorithm:                Core
    Integral Cache:           NONE
    Schwarz Cutoff:          1E-12
    Fitting Condition:       1E-10

   => Auxiliary Basis Set <=

  Basis Set: (AUG-CC-PV(D+D)Z AUX)
    Blend: AUG-CC-PVDZ-JKFIT
    Number of shells: 52
    Number of basis function: 160
    Number of Cartesian functions: 185
    Spherical Harmonics?: true
    Max angular momentum: 3

  Cached 100.0% of DFT collocation blocks in 0.128 [GiB].

  Minimum eigenvalue in the overlap matrix is 2.2727394568E-03.
  Using Symmetric Orthogonalization.

  SCF Guess: Superposition of Atomic Densities via on-the-fly atomic UHF.

  ==> Iterations <==

                           Total Energy        Delta E     RMS |[F,P]|

   @DF-RKS iter SAD:  -460.62892353971932   -4.60629e+02   0.00000e+00 
   @DF-RKS iter   1:  -460.76401658984054   -1.35093e-01   7.34812e-03 DIIS
   @DF-RKS iter   2:  -460.77849961583752   -1.44830e-02   4.49102e-03 DIIS
   @DF-RKS iter   3:  -460.78417815897330   -5.67854e-03   3.17463e-04 DIIS
   @DF-RKS iter   4:  -460.78423704632559   -5.88874e-05   1.01687e-04 DIIS
   @DF-RKS iter   5:  -460.78424309211425   -6.04579e-06   2.31142e-05 DIIS
   @DF-RKS iter   6:  -460.78424336352884   -2.71415e-07   4.05578e-06 DIIS
   @DF-RKS iter   7:  -460.78424337173476   -8.20592e-09   5.31112e-07 DIIS
   @DF-RKS iter   8:  -460.78424337192104   -1.86276e-10   5.90028e-08 DIIS
   @DF-RKS iter   9:  -460.78424337192445   -3.41061e-12   5.01035e-09 DIIS
  Energy and wave function converged.


  ==> Post-Iterations <==

    Orbital Energies [Eh]
    ---------------------

    Doubly Occupied:                                                      

       1A1  -101.896471     2A1    -9.661967     3A1    -7.366320  
       1B2    -7.357604     1B1    -7.357604     4A1    -0.970941  
       5A1    -0.576486     2B2    -0.436029     2B1    -0.436029  

    Virtual:                                                              

       6A1     0.011992     7A1     0.095916     3B2     0.108361  
       3B1     0.108361     8A1     0.126622     9A1     0.180169  
       4B1     0.266488     4B2     0.266488    10A1     0.390320  
       1A2     0.390320    11A1     0.416101    12A1     0.513705  
       5B2     0.516967     5B1     0.516967    13A1     0.766696  
       6B2     0.801331     6B1     0.801331    14A1     0.902287  
      15A1     1.109605     2A2     1.109607     7B2     1.144396  
       7B1     1.144396    16A1     1.167776    17A1     1.619281  
       8B1     1.654326     8B2     1.654326    18A1     2.187512  
       3A2     5.556983    19A1     5.556989     9B2     5.607352  
       9B1     5.607352    20A1     5.702250  

    Final Occupation by Irrep:
             A1    A2    B1    B2 
    DOCC [     5,    0,    2,    2 ]

  @DF-RKS Final Energy:  -460.78424337192445

   => Energetics <=

    Nuclear Repulsion Energy =              7.0523539902262637
    One-Electron Energy =                -649.8102124787939147
    Two-Electron Energy =                 203.9066833550895979
    DFT Exchange-Correlation Energy =     -22.0094680682082746
    Empirical Dispersion Energy =           0.0000000000000000
    VV10 Nonlocal Energy =                  0.0763998297618865
    Total Energy =                       -460.7842433719243900

Computation Completed


Properties will be evaluated at   0.000000,   0.000000,   0.000000 [a0]

Properties computed using the SCF density matrix

  Nuclear Dipole Moment: [e a0]
     X:     0.0000      Y:     0.0000      Z:     1.1951

  Electronic Dipole Moment: [e a0]
     X:     0.0000      Y:     0.0000      Z:    -0.7531

  Dipole Moment: [e a0]
     X:     0.0000      Y:     0.0000      Z:     0.4419     Total:     0.4419

  Dipole Moment: [D]
     X:     0.0000      Y:     0.0000      Z:     1.1232     Total:     1.1232


*** tstop() called on bp1-compute00105.data.bp.acrc.priv at Tue Apr 27 17:58:54 2021
Module time:
	user time   =      48.15 seconds =       0.80 minutes
	system time =       2.24 seconds =       0.04 minutes
	total time  =          2 seconds =       0.03 minutes
Total time:
	user time   =      48.15 seconds =       0.80 minutes
	system time =       2.24 seconds =       0.04 minutes
	total time  =          2 seconds =       0.03 minutes

  //>>>>>>>>>>>>>>>>>>>>>>>>>>>>>>>>>>>//
  //    Loading displacement 2 of 3    //
  //<<<<<<<<<<<<<<<<<<<<<<<<<<<<<<<<<<<//

*** tstart() called on bp1-compute00105.data.bp.acrc.priv
*** at Tue Apr 27 17:58:54 2021

   => Loading Basis Set <=

    Name: AUG-CC-PV(D+D)Z
    Role: ORBITAL
    Keyword: BASIS
    atoms 1 entry CL         line   792 file /work/zw18965/.conda/envs/p4env/share/psi4/basis/aug-cc-pv_dpd_z.gbs 
    atoms 2 entry H          line    56 file /work/zw18965/.conda/envs/p4env/share/psi4/basis/aug-cc-pv_dpd_z.gbs 


         ---------------------------------------------------------
                                   SCF
               by Justin Turney, Rob Parrish, Andy Simmonett
                          and Daniel G. A. Smith
                              RKS Reference
                       24 Threads, 137329 MiB Core
         ---------------------------------------------------------

  ==> Geometry <==

    Molecular point group: c2v
    Full point group: C_inf_v

    Geometry (in Angstrom), charge = 0, multiplicity = 1:

       Center              X                  Y                   Z               Mass       
    ------------   -----------------  -----------------  -----------------  -----------------
         CL           0.000000000000     0.000000000000    -0.035808756647    34.968852682000
         H            0.000000000000     0.000000000000     1.242468777688     1.007825032230

  Running in c2v symmetry.

  Rotational constants: A = ************  B =     10.53175  C =     10.53175 [cm^-1]
  Rotational constants: A = ************  B = 315734.04815  C = 315734.04815 [MHz]
  Nuclear repulsion =    7.037605167698158

  Charge       = 0
  Multiplicity = 1
  Electrons    = 18
  Nalpha       = 9
  Nbeta        = 9

  ==> Algorithm <==

  SCF Algorithm Type is DF.
  DIIS enabled.
  MOM disabled.
  Fractional occupation disabled.
  Guess Type is SAD.
  Energy threshold   = 1.00e-08
  Density threshold  = 1.00e-08
  Integral threshold = 0.00e+00

  ==> Primary Basis <==

  Basis Set: AUG-CC-PV(D+D)Z
    Blend: AUG-CC-PV(D+D)Z
    Number of shells: 17
    Number of basis function: 41
    Number of Cartesian functions: 44
    Spherical Harmonics?: true
    Max angular momentum: 2

  ==> DFT Potential <==

   => Composite Functional: WB97M-V <= 

    wB97M-V Hyb-GGA Exchange-Correlation Functional

    N. Mardirossian and M. Head-Gordon, J. Chem. Phys. 144, 214110 (2016)

    Deriv               =              1
    GGA                 =           TRUE
    Meta                =           TRUE

    Exchange Hybrid     =           TRUE
    MP2 Hybrid          =          FALSE

   => Exchange-Correlation Functionals <=

    1.0000   wB97M-V exchange-correlation functional

   => Exact (HF) Exchange <=

    0.8500            HF,LR [omega = 0.3000]
    0.1500               HF 

   => VV10 Non-Local Parameters <=

    VV10 B              =     6.0000E+00
    VV10 C              =     1.0000E-02

   => Molecular Quadrature <=

    Radial Scheme          =       TREUTLER
    Pruning Scheme         =           FLAT
    Nuclear Scheme         =       TREUTLER

    BS radius alpha        =              1
    Pruning alpha          =              1
    Radial Points          =             75
    Spherical Points       =            302
    Total Points           =          45300
    Total Blocks           =            422
    Max Points             =            256
    Max Functions          =             41

   => Loading Basis Set <=

    Name: (AUG-CC-PV(D+D)Z AUX)
    Role: JKFIT
    Keyword: DF_BASIS_SCF
    atoms 1 entry CL         line   772 file /work/zw18965/.conda/envs/p4env/share/psi4/basis/aug-cc-pvdz-jkfit.gbs 
    atoms 2 entry H          line    70 file /work/zw18965/.conda/envs/p4env/share/psi4/basis/aug-cc-pvdz-jkfit.gbs 

  ==> Pre-Iterations <==

   -------------------------------------------------------
    Irrep   Nso     Nmo     Nalpha   Nbeta   Ndocc  Nsocc
   -------------------------------------------------------
     A1        20      20       0       0       0       0
     A2         3       3       0       0       0       0
     B1         9       9       0       0       0       0
     B2         9       9       0       0       0       0
   -------------------------------------------------------
    Total      41      41       9       9       9       0
   -------------------------------------------------------

  ==> Integral Setup <==

  ==> DiskDFJK: Density-Fitted J/K Matrices <==

    J tasked:                  Yes
    K tasked:                  Yes
    wK tasked:                 Yes
    Omega:               3.000E-01
    OpenMP threads:             24
    Integrals threads:          24
    Memory [MiB]:           102865
    Algorithm:                Core
    Integral Cache:           NONE
    Schwarz Cutoff:          1E-12
    Fitting Condition:       1E-10

   => Auxiliary Basis Set <=

  Basis Set: (AUG-CC-PV(D+D)Z AUX)
    Blend: AUG-CC-PVDZ-JKFIT
    Number of shells: 52
    Number of basis function: 160
    Number of Cartesian functions: 185
    Spherical Harmonics?: true
    Max angular momentum: 3

  Cached 100.0% of DFT collocation blocks in 0.128 [GiB].

  Minimum eigenvalue in the overlap matrix is 2.2878117533E-03.
  Using Symmetric Orthogonalization.

  SCF Guess: Superposition of Atomic Densities via on-the-fly atomic UHF.

  ==> Iterations <==

                           Total Energy        Delta E     RMS |[F,P]|

   @DF-RKS iter SAD:  -460.62746186926734   -4.60627e+02   0.00000e+00 
   @DF-RKS iter   1:  -460.76396025110438   -1.36498e-01   7.35873e-03 DIIS
   @DF-RKS iter   2:  -460.77847903574127   -1.45188e-02   4.50850e-03 DIIS
   @DF-RKS iter   3:  -460.78420801089572   -5.72898e-03   3.17459e-04 DIIS
   @DF-RKS iter   4:  -460.78426689652576   -5.88856e-05   1.01571e-04 DIIS
   @DF-RKS iter   5:  -460.78427295327373   -6.05675e-06   2.31772e-05 DIIS
   @DF-RKS iter   6:  -460.78427322676754   -2.73494e-07   4.08039e-06 DIIS
   @DF-RKS iter   7:  -460.78427323507009   -8.30255e-09   5.32624e-07 DIIS
   @DF-RKS iter   8:  -460.78427323525869   -1.88606e-10   5.92273e-08 DIIS
   @DF-RKS iter   9:  -460.78427323526228   -3.58114e-12   5.02113e-09 DIIS
  Energy and wave function converged.


  ==> Post-Iterations <==

    Orbital Energies [Eh]
    ---------------------

    Doubly Occupied:                                                      

       1A1  -101.896583     2A1    -9.662012     3A1    -7.366373  
       1B1    -7.357652     1B2    -7.357652     4A1    -0.970519  
       5A1    -0.576083     2B2    -0.435956     2B1    -0.435956  

    Virtual:                                                              

       6A1     0.011881     7A1     0.095943     3B1     0.108377  
       3B2     0.108377     8A1     0.125905     9A1     0.180204  
       4B1     0.266375     4B2     0.266375    10A1     0.390365  
       1A2     0.390365    11A1     0.415993    12A1     0.513690  
       5B2     0.516794     5B1     0.516794    13A1     0.765954  
       6B1     0.801257     6B2     0.801257    14A1     0.901885  
      15A1     1.109642     2A2     1.109644     7B2     1.144507  
       7B1     1.144507    16A1     1.167231    17A1     1.617583  
       8B2     1.653468     8B1     1.653468    18A1     2.183275  
       3A2     5.556984    19A1     5.556990     9B2     5.606958  
       9B1     5.606958    20A1     5.702119  

    Final Occupation by Irrep:
             A1    A2    B1    B2 
    DOCC [     5,    0,    2,    2 ]

  @DF-RKS Final Energy:  -460.78427323526228

   => Energetics <=

    Nuclear Repulsion Energy =              7.0376051676981577
    One-Electron Energy =                -649.7825313631141171
    Two-Electron Energy =                 203.8929976473895920
    DFT Exchange-Correlation Energy =     -22.0087435465975361
    Empirical Dispersion Energy =           0.0000000000000000
    VV10 Nonlocal Energy =                  0.0763988593616176
    Total Energy =                       -460.7842732352622193

Computation Completed


Properties will be evaluated at   0.000000,   0.000000,   0.000000 [a0]

Properties computed using the SCF density matrix

  Nuclear Dipole Moment: [e a0]
     X:     0.0000      Y:     0.0000      Z:     1.1976

  Electronic Dipole Moment: [e a0]
     X:     0.0000      Y:     0.0000      Z:    -0.7546

  Dipole Moment: [e a0]
     X:     0.0000      Y:     0.0000      Z:     0.4430     Total:     0.4430

  Dipole Moment: [D]
     X:     0.0000      Y:     0.0000      Z:     1.1260     Total:     1.1260


*** tstop() called on bp1-compute00105.data.bp.acrc.priv at Tue Apr 27 17:58:56 2021
Module time:
	user time   =      49.04 seconds =       0.82 minutes
	system time =       2.09 seconds =       0.03 minutes
	total time  =          2 seconds =       0.03 minutes
Total time:
	user time   =      97.32 seconds =       1.62 minutes
	system time =       4.33 seconds =       0.07 minutes
	total time  =          4 seconds =       0.07 minutes

  //>>>>>>>>>>>>>>>>>>>>>>>>>>>>>>>>>>>//
  //    Loading displacement 3 of 3    //
  //<<<<<<<<<<<<<<<<<<<<<<<<<<<<<<<<<<<//

*** tstart() called on bp1-compute00105.data.bp.acrc.priv
*** at Tue Apr 27 17:58:56 2021

   => Loading Basis Set <=

    Name: AUG-CC-PV(D+D)Z
    Role: ORBITAL
    Keyword: BASIS
    atoms 1 entry CL         line   792 file /work/zw18965/.conda/envs/p4env/share/psi4/basis/aug-cc-pv_dpd_z.gbs 
    atoms 2 entry H          line    56 file /work/zw18965/.conda/envs/p4env/share/psi4/basis/aug-cc-pv_dpd_z.gbs 


         ---------------------------------------------------------
                                   SCF
               by Justin Turney, Rob Parrish, Andy Simmonett
                          and Daniel G. A. Smith
                              RKS Reference
                       24 Threads, 137329 MiB Core
         ---------------------------------------------------------

  ==> Geometry <==

    Molecular point group: c2v
    Full point group: C_inf_v

    Geometry (in Angstrom), charge = 0, multiplicity = 1:

       Center              X                  Y                   Z               Mass       
    ------------   -----------------  -----------------  -----------------  -----------------
         CL           0.000000000000     0.000000000000    -0.035658980559    34.968852682000
         H            0.000000000000     0.000000000000     1.237271945106     1.007825032230

  Running in c2v symmetry.

  Rotational constants: A = ************  B =     10.62041  C =     10.62041 [cm^-1]
  Rotational constants: A = ************  B = 318391.93255  C = 318391.93255 [MHz]
  Nuclear repulsion =    7.067164761270836

  Charge       = 0
  Multiplicity = 1
  Electrons    = 18
  Nalpha       = 9
  Nbeta        = 9

  ==> Algorithm <==

  SCF Algorithm Type is DF.
  DIIS enabled.
  MOM disabled.
  Fractional occupation disabled.
  Guess Type is SAD.
  Energy threshold   = 1.00e-08
  Density threshold  = 1.00e-08
  Integral threshold = 0.00e+00

  ==> Primary Basis <==

  Basis Set: AUG-CC-PV(D+D)Z
    Blend: AUG-CC-PV(D+D)Z
    Number of shells: 17
    Number of basis function: 41
    Number of Cartesian functions: 44
    Spherical Harmonics?: true
    Max angular momentum: 2

  ==> DFT Potential <==

   => Composite Functional: WB97M-V <= 

    wB97M-V Hyb-GGA Exchange-Correlation Functional

    N. Mardirossian and M. Head-Gordon, J. Chem. Phys. 144, 214110 (2016)

    Deriv               =              1
    GGA                 =           TRUE
    Meta                =           TRUE

    Exchange Hybrid     =           TRUE
    MP2 Hybrid          =          FALSE

   => Exchange-Correlation Functionals <=

    1.0000   wB97M-V exchange-correlation functional

   => Exact (HF) Exchange <=

    0.8500            HF,LR [omega = 0.3000]
    0.1500               HF 

   => VV10 Non-Local Parameters <=

    VV10 B              =     6.0000E+00
    VV10 C              =     1.0000E-02

   => Molecular Quadrature <=

    Radial Scheme          =       TREUTLER
    Pruning Scheme         =           FLAT
    Nuclear Scheme         =       TREUTLER

    BS radius alpha        =              1
    Pruning alpha          =              1
    Radial Points          =             75
    Spherical Points       =            302
    Total Points           =          45300
    Total Blocks           =            422
    Max Points             =            256
    Max Functions          =             41

   => Loading Basis Set <=

    Name: (AUG-CC-PV(D+D)Z AUX)
    Role: JKFIT
    Keyword: DF_BASIS_SCF
    atoms 1 entry CL         line   772 file /work/zw18965/.conda/envs/p4env/share/psi4/basis/aug-cc-pvdz-jkfit.gbs 
    atoms 2 entry H          line    70 file /work/zw18965/.conda/envs/p4env/share/psi4/basis/aug-cc-pvdz-jkfit.gbs 

  ==> Pre-Iterations <==

   -------------------------------------------------------
    Irrep   Nso     Nmo     Nalpha   Nbeta   Ndocc  Nsocc
   -------------------------------------------------------
     A1        20      20       0       0       0       0
     A2         3       3       0       0       0       0
     B1         9       9       0       0       0       0
     B2         9       9       0       0       0       0
   -------------------------------------------------------
    Total      41      41       9       9       9       0
   -------------------------------------------------------

  ==> Integral Setup <==

  ==> DiskDFJK: Density-Fitted J/K Matrices <==

    J tasked:                  Yes
    K tasked:                  Yes
    wK tasked:                 Yes
    Omega:               3.000E-01
    OpenMP threads:             24
    Integrals threads:          24
    Memory [MiB]:           102865
    Algorithm:                Core
    Integral Cache:           NONE
    Schwarz Cutoff:          1E-12
    Fitting Condition:       1E-10

   => Auxiliary Basis Set <=

  Basis Set: (AUG-CC-PV(D+D)Z AUX)
    Blend: AUG-CC-PVDZ-JKFIT
    Number of shells: 52
    Number of basis function: 160
    Number of Cartesian functions: 185
    Spherical Harmonics?: true
    Max angular momentum: 3

  Cached 100.0% of DFT collocation blocks in 0.128 [GiB].

  Minimum eigenvalue in the overlap matrix is 2.2578175163E-03.
  Using Symmetric Orthogonalization.

  SCF Guess: Superposition of Atomic Densities via on-the-fly atomic UHF.

  ==> Iterations <==

                           Total Energy        Delta E     RMS |[F,P]|

   @DF-RKS iter SAD:  -460.63038219883805   -4.60630e+02   0.00000e+00 
   @DF-RKS iter   1:  -460.76406338448544   -1.33681e-01   7.33759e-03 DIIS
   @DF-RKS iter   2:  -460.77851077824914   -1.44474e-02   4.47363e-03 DIIS
   @DF-RKS iter   3:  -460.78413938469333   -5.62861e-03   3.17464e-04 DIIS
   @DF-RKS iter   4:  -460.78419827250207   -5.88878e-05   1.01802e-04 DIIS
   @DF-RKS iter   5:  -460.78420430728471   -6.03478e-06   2.30519e-05 DIIS
   @DF-RKS iter   6:  -460.78420457666471   -2.69380e-07   4.03157e-06 DIIS
   @DF-RKS iter   7:  -460.78420458479263   -8.12793e-09   5.29607e-07 DIIS
   @DF-RKS iter   8:  -460.78420458497743   -1.84798e-10   5.87752e-08 DIIS
   @DF-RKS iter   9:  -460.78420458498101   -3.58114e-12   5.00009e-09 DIIS
  Energy and wave function converged.


  ==> Post-Iterations <==

    Orbital Energies [Eh]
    ---------------------

    Doubly Occupied:                                                      

       1A1  -101.896359     2A1    -9.661921     3A1    -7.366267  
       1B1    -7.357554     1B2    -7.357554     4A1    -0.971367  
       5A1    -0.576889     2B2    -0.436102     2B1    -0.436102  

    Virtual:                                                              

       6A1     0.012101     7A1     0.095888     3B2     0.108344  
       3B1     0.108344     8A1     0.127341     9A1     0.180134  
       4B2     0.266602     4B1     0.266602    10A1     0.390275  
       1A2     0.390275    11A1     0.416205    12A1     0.513725  
       5B1     0.517138     5B2     0.517138    13A1     0.767437  
       6B2     0.801405     6B1     0.801405    14A1     0.902695  
      15A1     1.109568     2A2     1.109570     7B1     1.144286  
       7B2     1.144286    16A1     1.168325    17A1     1.620978  
       8B1     1.655190     8B2     1.655190    18A1     2.191779  
       3A2     5.556983    19A1     5.556989     9B1     5.607747  
       9B2     5.607747    20A1     5.702374  

    Final Occupation by Irrep:
             A1    A2    B1    B2 
    DOCC [     5,    0,    2,    2 ]

  @DF-RKS Final Energy:  -460.78420458498101

   => Energetics <=

    Nuclear Repulsion Energy =              7.0671647612708357
    One-Electron Energy =                -649.8379955683338949
    Two-Electron Energy =                 203.9204214288340040
    DFT Exchange-Correlation Energy =     -22.0101960128814298
    Empirical Dispersion Energy =           0.0000000000000000
    VV10 Nonlocal Energy =                  0.0764008061294471
    Total Energy =                       -460.7842045849809551

Computation Completed


Properties will be evaluated at   0.000000,   0.000000,   0.000000 [a0]

Properties computed using the SCF density matrix

  Nuclear Dipole Moment: [e a0]
     X:     0.0000      Y:     0.0000      Z:     1.1925

  Electronic Dipole Moment: [e a0]
     X:     0.0000      Y:     0.0000      Z:    -0.7517

  Dipole Moment: [e a0]
     X:     0.0000      Y:     0.0000      Z:     0.4408     Total:     0.4408

  Dipole Moment: [D]
     X:     0.0000      Y:     0.0000      Z:     1.1205     Total:     1.1205


*** tstop() called on bp1-compute00105.data.bp.acrc.priv at Tue Apr 27 17:58:58 2021
Module time:
	user time   =      47.05 seconds =       0.78 minutes
	system time =       1.69 seconds =       0.03 minutes
	total time  =          2 seconds =       0.03 minutes
Total time:
	user time   =     144.50 seconds =       2.41 minutes
	system time =       6.03 seconds =       0.10 minutes
	total time  =          6 seconds =       0.10 minutes

         ----------------------------------------------------------
                                   FINDIF
                     R. A. King and Jonathon Misiewicz
         ---------------------------------------------------------

  Computing gradient from energies.
    Using 3-point formula.
    Energy without displacement: -460.7842433719
    Check energies below for precision!
    Forces are for mass-weighted, symmetry-adapted cartesians (in au).

     Coord      Energy(-1)        Energy(+1)            Force
        0   -460.7842732353   -460.7842045850      0.0068650281


-------------------------------------------------------------
  ## New Matrix (Symmetry 0) ##
  Irrep: 1 Size: 2 x 3

                 1                   2                   3

    1     0.00000000000000     0.00000000000000     0.00679461815710
    2     0.00000000000000     0.00000000000000    -0.00679461815710




			-----------------------------------------
			 OPTKING 2.0: for geometry optimizations 
			  - R.A. King,  Bethel University        
			-----------------------------------------
	At level 1: Red. Int., RFO, no backsteps, dynamic trust

	Internal coordinates to be generated automatically.
	Detected frag 1 with atoms:  1 2
	---Fragment 1 Bond Connectivity---
	 1 : 2
	 2 : 1

	---Fragment 1 Geometry and Gradient---
	 CL          0.0000000000        0.0000000000       -0.0675272251
	 H           0.0000000000        0.0000000000        2.3430154141
	             0.0000000000        0.0000000000        0.0067946182
	             0.0000000000        0.0000000000       -0.0067946182

	Previous optimization step data not found.  Starting new optimization.

	---Fragment 1 Intrafragment Coordinates---
	 - Coordinate -           - BOHR/RAD -       - ANG/DEG -
	 R(1,2)           =         2.410543	       1.275604

	Current energy   :      -460.7842433719

	Generating empirical Hessian (Schlegel '84) for each fragment.
	Taking RFO optimization step.
	Going to follow RFO solution 1.
	Using RFO vector 1.
	Norm of target step-size    0.02101
	Projected energy change by RFO approximation:         0.0000779319

	Back-transformation to cartesian coordinates...
	Successfully converged to displaced geometry.

	--- Internal Coordinate Step in ANG or DEG, aJ/ANG or AJ/DEG ---
	 ---------------------------------------------------------------------------
	   Coordinate                Previous        Force       Change         New 
	   ----------                --------       ------       ------       ------
	    1 R(1,2)          =      1.275604     0.055979     0.011118     1.286723
	 ---------------------------------------------------------------------------
	Successfully symmetrized geometry.

  ==> Convergence Check <==

  Measures of convergence in internal coordinates in au.
  Criteria marked as inactive (o), active & met (*), and active & unmet ( ).
  --------------------------------------------------------------------------------------------- ~
   Step     Total Energy     Delta E     MAX Force     RMS Force      MAX Disp      RMS Disp    ~
  --------------------------------------------------------------------------------------------- ~
    Convergence Criteria    1.00e-06 *    3.00e-04 *             o    1.20e-03 *             o  ~
  --------------------------------------------------------------------------------------------- ~
      1    -460.78424337   -4.61e+02      6.79e-03      6.79e-03 o    2.10e-02      2.10e-02 o  ~
  ---------------------------------------------------------------------------------------------

	Writing optimization data to binary file.
	Structure for next step:
	Cartesian Geometry (in Angstrom)
	   CL     0.0000000000   0.0000000000  -0.0412930828
	    H     0.0000000000   0.0000000000   1.2454295708
			--------------------------
			 OPTKING Finished Execution 
			--------------------------

    Structure for next step:
    Molecular point group: c2v
    Full point group: C_inf_v

    Geometry (in Angstrom), charge = 0, multiplicity = 1:

    CL           0.000000000000     0.000000000000    -0.036045332346
    H            0.000000000000     0.000000000000     1.250677326291

gradient() will perform gradient computation by finite difference of analytic energies.

         ----------------------------------------------------------
                                   FINDIF
                     R. A. King and Jonathon Misiewicz
         ---------------------------------------------------------

  Using finite-differences of energies to determine gradients.
    Generating geometries for use with 3-point formula.
    Displacement size will be 5.00e-03.
    Number of atoms is 2.
    Number of symmetric SALCs is 1.
    Translations projected? 1. Rotations projected? 1.
    Number of geometries (including reference) is 3.

  //>>>>>>>>>>>>>>>>>>>>>>>>>>>>>>>>>>>//
  //    Loading displacement 1 of 3    //
  //<<<<<<<<<<<<<<<<<<<<<<<<<<<<<<<<<<<//

*** tstart() called on bp1-compute00105.data.bp.acrc.priv
*** at Tue Apr 27 17:58:58 2021

   => Loading Basis Set <=

    Name: AUG-CC-PV(D+D)Z
    Role: ORBITAL
    Keyword: BASIS
    atoms 1 entry CL         line   792 file /work/zw18965/.conda/envs/p4env/share/psi4/basis/aug-cc-pv_dpd_z.gbs 
    atoms 2 entry H          line    56 file /work/zw18965/.conda/envs/p4env/share/psi4/basis/aug-cc-pv_dpd_z.gbs 


         ---------------------------------------------------------
                                   SCF
               by Justin Turney, Rob Parrish, Andy Simmonett
                          and Daniel G. A. Smith
                              RKS Reference
                       24 Threads, 137329 MiB Core
         ---------------------------------------------------------

  ==> Geometry <==

    Molecular point group: c2v
    Full point group: C_inf_v

    Geometry (in Angstrom), charge = 0, multiplicity = 1:

       Center              X                  Y                   Z               Mass       
    ------------   -----------------  -----------------  -----------------  -----------------
         CL           0.000000000000     0.000000000000    -0.036045332346    34.968852682000
         H            0.000000000000     0.000000000000     1.250677326291     1.007825032230

  Running in c2v symmetry.

  Rotational constants: A = ************  B =     10.39396  C =     10.39396 [cm^-1]
  Rotational constants: A = ************  B = 311603.14542  C = 311603.14542 [MHz]
  Nuclear repulsion =    6.991415376892113

  Charge       = 0
  Multiplicity = 1
  Electrons    = 18
  Nalpha       = 9
  Nbeta        = 9

  ==> Algorithm <==

  SCF Algorithm Type is DF.
  DIIS enabled.
  MOM disabled.
  Fractional occupation disabled.
  Guess Type is READ.
  Energy threshold   = 1.00e-08
  Density threshold  = 1.00e-08
  Integral threshold = 0.00e+00

  ==> Primary Basis <==

  Basis Set: AUG-CC-PV(D+D)Z
    Blend: AUG-CC-PV(D+D)Z
    Number of shells: 17
    Number of basis function: 41
    Number of Cartesian functions: 44
    Spherical Harmonics?: true
    Max angular momentum: 2

  ==> DFT Potential <==

   => Composite Functional: WB97M-V <= 

    wB97M-V Hyb-GGA Exchange-Correlation Functional

    N. Mardirossian and M. Head-Gordon, J. Chem. Phys. 144, 214110 (2016)

    Deriv               =              1
    GGA                 =           TRUE
    Meta                =           TRUE

    Exchange Hybrid     =           TRUE
    MP2 Hybrid          =          FALSE

   => Exchange-Correlation Functionals <=

    1.0000   wB97M-V exchange-correlation functional

   => Exact (HF) Exchange <=

    0.8500            HF,LR [omega = 0.3000]
    0.1500               HF 

   => VV10 Non-Local Parameters <=

    VV10 B              =     6.0000E+00
    VV10 C              =     1.0000E-02

   => Molecular Quadrature <=

    Radial Scheme          =       TREUTLER
    Pruning Scheme         =           FLAT
    Nuclear Scheme         =       TREUTLER

    BS radius alpha        =              1
    Pruning alpha          =              1
    Radial Points          =             75
    Spherical Points       =            302
    Total Points           =          45300
    Total Blocks           =            423
    Max Points             =            255
    Max Functions          =             41

   => Loading Basis Set <=

    Name: (AUG-CC-PV(D+D)Z AUX)
    Role: JKFIT
    Keyword: DF_BASIS_SCF
    atoms 1 entry CL         line   772 file /work/zw18965/.conda/envs/p4env/share/psi4/basis/aug-cc-pvdz-jkfit.gbs 
    atoms 2 entry H          line    70 file /work/zw18965/.conda/envs/p4env/share/psi4/basis/aug-cc-pvdz-jkfit.gbs 

   => Loading Basis Set <=

    Name: AUG-CC-PV(D+D)Z
    Role: ORBITAL
    Keyword: BASIS
    atoms 1 entry CL         line   792 file /work/zw18965/.conda/envs/p4env/share/psi4/basis/aug-cc-pv_dpd_z.gbs 
    atoms 2 entry H          line    56 file /work/zw18965/.conda/envs/p4env/share/psi4/basis/aug-cc-pv_dpd_z.gbs 

  Reading orbitals from file 180, no projection.

  ==> Pre-Iterations <==

   -------------------------------------------------------
    Irrep   Nso     Nmo     Nalpha   Nbeta   Ndocc  Nsocc
   -------------------------------------------------------
     A1        20      20       0       0       0       0
     A2         3       3       0       0       0       0
     B1         9       9       0       0       0       0
     B2         9       9       0       0       0       0
   -------------------------------------------------------
    Total      41      41       9       9       9       0
   -------------------------------------------------------

  ==> Integral Setup <==

  ==> DiskDFJK: Density-Fitted J/K Matrices <==

    J tasked:                  Yes
    K tasked:                  Yes
    wK tasked:                 Yes
    Omega:               3.000E-01
    OpenMP threads:             24
    Integrals threads:          24
    Memory [MiB]:           102865
    Algorithm:                Core
    Integral Cache:           NONE
    Schwarz Cutoff:          1E-12
    Fitting Condition:       1E-10

   => Auxiliary Basis Set <=

  Basis Set: (AUG-CC-PV(D+D)Z AUX)
    Blend: AUG-CC-PVDZ-JKFIT
    Number of shells: 52
    Number of basis function: 160
    Number of Cartesian functions: 185
    Spherical Harmonics?: true
    Max angular momentum: 3

  Cached 100.0% of DFT collocation blocks in 0.128 [GiB].

  Minimum eigenvalue in the overlap matrix is 2.3364313797E-03.
  Using Symmetric Orthogonalization.

  SCF Guess: Orbitals guess was supplied from a previous computation.

  ==> Iterations <==

                           Total Energy        Delta E     RMS |[F,P]|

   @DF-RKS iter   0:  -460.77682572183016   -4.60777e+02   1.12139e-03 
   @DF-RKS iter   1:  -460.78430182916378   -7.47611e-03   1.69459e-04 DIIS
   @DF-RKS iter   2:  -460.78430862852434   -6.79936e-06   9.41093e-05 DIIS
   @DF-RKS iter   3:  -460.78431037691166   -1.74839e-06   5.50321e-06 DIIS
   @DF-RKS iter   4:  -460.78431038976908   -1.28574e-08   1.53744e-06 DIIS
   @DF-RKS iter   5:  -460.78431039080806   -1.03898e-09   5.07334e-07 DIIS
   @DF-RKS iter   6:  -460.78431039091589   -1.07832e-10   6.03531e-08 DIIS
   @DF-RKS iter   7:  -460.78431039091828   -2.38742e-12   6.34844e-09 DIIS
  Energy and wave function converged.


  ==> Post-Iterations <==

    Orbital Energies [Eh]
    ---------------------

    Doubly Occupied:                                                      

       1A1  -101.896931     2A1    -9.662153     3A1    -7.366540  
       1B2    -7.357804     1B1    -7.357804     4A1    -0.969202  
       5A1    -0.574807     2B2    -0.435726     2B1    -0.435726  

    Virtual:                                                              

       6A1     0.011521     7A1     0.096022     3B2     0.108429  
       3B1     0.108429     8A1     0.123656     9A1     0.180317  
       4B1     0.266018     4B2     0.266018    10A1     0.390508  
       1A2     0.390508    11A1     0.415627    12A1     0.513677  
       5B2     0.516247     5B1     0.516247    13A1     0.763608  
       6B1     0.801026     6B2     0.801026    14A1     0.900654  
      15A1     1.109758     2A2     1.109760     7B2     1.144863  
       7B1     1.144863    16A1     1.165531    17A1     1.612210  
       8B1     1.650800     8B2     1.650800    18A1     2.170097  
       3A2     5.556986    19A1     5.556992     9B1     5.605723  
       9B2     5.605723    20A1     5.701663  

    Final Occupation by Irrep:
             A1    A2    B1    B2 
    DOCC [     5,    0,    2,    2 ]

  @DF-RKS Final Energy:  -460.78431039091828

   => Energetics <=

    Nuclear Repulsion Energy =              6.9914153768921130
    One-Electron Energy =                -649.6957497655677116
    Two-Electron Energy =                 203.8501052224115710
    DFT Exchange-Correlation Energy =     -22.0064770578720648
    Empirical Dispersion Energy =           0.0000000000000000
    VV10 Nonlocal Energy =                  0.0763958332178238
    Total Energy =                       -460.7843103909183355

Computation Completed


Properties will be evaluated at   0.000000,   0.000000,   0.000000 [a0]

Properties computed using the SCF density matrix

  Nuclear Dipole Moment: [e a0]
     X:     0.0000      Y:     0.0000      Z:     1.2055

  Electronic Dipole Moment: [e a0]
     X:     0.0000      Y:     0.0000      Z:    -0.7591

  Dipole Moment: [e a0]
     X:     0.0000      Y:     0.0000      Z:     0.4464     Total:     0.4464

  Dipole Moment: [D]
     X:     0.0000      Y:     0.0000      Z:     1.1347     Total:     1.1347


*** tstop() called on bp1-compute00105.data.bp.acrc.priv at Tue Apr 27 17:59:00 2021
Module time:
	user time   =      34.08 seconds =       0.57 minutes
	system time =       1.15 seconds =       0.02 minutes
	total time  =          2 seconds =       0.03 minutes
Total time:
	user time   =     178.93 seconds =       2.98 minutes
	system time =       7.19 seconds =       0.12 minutes
	total time  =          8 seconds =       0.13 minutes

  //>>>>>>>>>>>>>>>>>>>>>>>>>>>>>>>>>>>//
  //    Loading displacement 2 of 3    //
  //<<<<<<<<<<<<<<<<<<<<<<<<<<<<<<<<<<<//

*** tstart() called on bp1-compute00105.data.bp.acrc.priv
*** at Tue Apr 27 17:59:00 2021

   => Loading Basis Set <=

    Name: AUG-CC-PV(D+D)Z
    Role: ORBITAL
    Keyword: BASIS
    atoms 1 entry CL         line   792 file /work/zw18965/.conda/envs/p4env/share/psi4/basis/aug-cc-pv_dpd_z.gbs 
    atoms 2 entry H          line    56 file /work/zw18965/.conda/envs/p4env/share/psi4/basis/aug-cc-pv_dpd_z.gbs 


         ---------------------------------------------------------
                                   SCF
               by Justin Turney, Rob Parrish, Andy Simmonett
                          and Daniel G. A. Smith
                              RKS Reference
                       24 Threads, 137329 MiB Core
         ---------------------------------------------------------

  ==> Geometry <==

    Molecular point group: c2v
    Full point group: C_inf_v

    Geometry (in Angstrom), charge = 0, multiplicity = 1:

       Center              X                  Y                   Z               Mass       
    ------------   -----------------  -----------------  -----------------  -----------------
         CL           0.000000000000     0.000000000000    -0.036120220390    34.968852682000
         H            0.000000000000     0.000000000000     1.253275742582     1.007825032230

  Running in c2v symmetry.

  Rotational constants: A = ************  B =     10.35091  C =     10.35091 [cm^-1]
  Rotational constants: A = ************  B = 310312.39142  C = 310312.39142 [MHz]
  Nuclear repulsion =    6.976920077098181

  Charge       = 0
  Multiplicity = 1
  Electrons    = 18
  Nalpha       = 9
  Nbeta        = 9

  ==> Algorithm <==

  SCF Algorithm Type is DF.
  DIIS enabled.
  MOM disabled.
  Fractional occupation disabled.
  Guess Type is READ.
  Energy threshold   = 1.00e-08
  Density threshold  = 1.00e-08
  Integral threshold = 0.00e+00

  ==> Primary Basis <==

  Basis Set: AUG-CC-PV(D+D)Z
    Blend: AUG-CC-PV(D+D)Z
    Number of shells: 17
    Number of basis function: 41
    Number of Cartesian functions: 44
    Spherical Harmonics?: true
    Max angular momentum: 2

  ==> DFT Potential <==

   => Composite Functional: WB97M-V <= 

    wB97M-V Hyb-GGA Exchange-Correlation Functional

    N. Mardirossian and M. Head-Gordon, J. Chem. Phys. 144, 214110 (2016)

    Deriv               =              1
    GGA                 =           TRUE
    Meta                =           TRUE

    Exchange Hybrid     =           TRUE
    MP2 Hybrid          =          FALSE

   => Exchange-Correlation Functionals <=

    1.0000   wB97M-V exchange-correlation functional

   => Exact (HF) Exchange <=

    0.8500            HF,LR [omega = 0.3000]
    0.1500               HF 

   => VV10 Non-Local Parameters <=

    VV10 B              =     6.0000E+00
    VV10 C              =     1.0000E-02

   => Molecular Quadrature <=

    Radial Scheme          =       TREUTLER
    Pruning Scheme         =           FLAT
    Nuclear Scheme         =       TREUTLER

    BS radius alpha        =              1
    Pruning alpha          =              1
    Radial Points          =             75
    Spherical Points       =            302
    Total Points           =          45300
    Total Blocks           =            423
    Max Points             =            255
    Max Functions          =             41

   => Loading Basis Set <=

    Name: (AUG-CC-PV(D+D)Z AUX)
    Role: JKFIT
    Keyword: DF_BASIS_SCF
    atoms 1 entry CL         line   772 file /work/zw18965/.conda/envs/p4env/share/psi4/basis/aug-cc-pvdz-jkfit.gbs 
    atoms 2 entry H          line    70 file /work/zw18965/.conda/envs/p4env/share/psi4/basis/aug-cc-pvdz-jkfit.gbs 

   => Loading Basis Set <=

    Name: AUG-CC-PV(D+D)Z
    Role: ORBITAL
    Keyword: BASIS
    atoms 1 entry CL         line   792 file /work/zw18965/.conda/envs/p4env/share/psi4/basis/aug-cc-pv_dpd_z.gbs 
    atoms 2 entry H          line    56 file /work/zw18965/.conda/envs/p4env/share/psi4/basis/aug-cc-pv_dpd_z.gbs 

  Reading orbitals from file 180, no projection.

  ==> Pre-Iterations <==

   -------------------------------------------------------
    Irrep   Nso     Nmo     Nalpha   Nbeta   Ndocc  Nsocc
   -------------------------------------------------------
     A1        20      20       0       0       0       0
     A2         3       3       0       0       0       0
     B1         9       9       0       0       0       0
     B2         9       9       0       0       0       0
   -------------------------------------------------------
    Total      41      41       9       9       9       0
   -------------------------------------------------------

  ==> Integral Setup <==

  ==> DiskDFJK: Density-Fitted J/K Matrices <==

    J tasked:                  Yes
    K tasked:                  Yes
    wK tasked:                 Yes
    Omega:               3.000E-01
    OpenMP threads:             24
    Integrals threads:          24
    Memory [MiB]:           102865
    Algorithm:                Core
    Integral Cache:           NONE
    Schwarz Cutoff:          1E-12
    Fitting Condition:       1E-10

   => Auxiliary Basis Set <=

  Basis Set: (AUG-CC-PV(D+D)Z AUX)
    Blend: AUG-CC-PVDZ-JKFIT
    Number of shells: 52
    Number of basis function: 160
    Number of Cartesian functions: 185
    Spherical Harmonics?: true
    Max angular momentum: 3

  Cached 100.0% of DFT collocation blocks in 0.128 [GiB].

  Minimum eigenvalue in the overlap matrix is 2.3521458157E-03.
  Using Symmetric Orthogonalization.

  SCF Guess: Orbitals guess was supplied from a previous computation.

  ==> Iterations <==

                           Total Energy        Delta E     RMS |[F,P]|

   @DF-RKS iter   0:  -460.78251221659315   -4.60783e+02   2.62628e-04 
   @DF-RKS iter   1:  -460.78430400651013   -1.79179e-03   4.06007e-05 DIIS
   @DF-RKS iter   2:  -460.78430439731716   -3.90807e-07   2.25825e-05 DIIS
   @DF-RKS iter   3:  -460.78430449799845   -1.00681e-07   1.32548e-06 DIIS
   @DF-RKS iter   4:  -460.78430449874298   -7.44535e-10   3.71859e-07 DIIS
   @DF-RKS iter   5:  -460.78430449880364   -6.06519e-11   1.22561e-07 DIIS
   @DF-RKS iter   6:  -460.78430449881012   -6.48015e-12   1.47215e-08 DIIS
   @DF-RKS iter   7:  -460.78430449881068   -5.68434e-13   1.55589e-09 DIIS
  Energy and wave function converged.


  ==> Post-Iterations <==

    Orbital Energies [Eh]
    ---------------------

    Doubly Occupied:                                                      

       1A1  -101.897039     2A1    -9.662197     3A1    -7.366592  
       1B1    -7.357852     1B2    -7.357852     4A1    -0.968790  
       5A1    -0.574402     2B2    -0.435653     2B1    -0.435653  

    Virtual:                                                              

       6A1     0.011403     7A1     0.096044     3B2     0.108445  
       3B1     0.108445     8A1     0.122950     9A1     0.180354  
       4B1     0.265905     4B2     0.265905    10A1     0.390553  
       1A2     0.390554    11A1     0.415504    12A1     0.513684  
       5B1     0.516072     5B2     0.516072    13A1     0.762865  
       6B2     0.800953     6B1     0.800953    14A1     0.900277  
      15A1     1.109795     2A2     1.109797     7B2     1.144977  
       7B1     1.144977    16A1     1.164999    17A1     1.610506  
       8B1     1.649969     8B2     1.649969    18A1     2.165989  
       3A2     5.556987    19A1     5.556993     9B1     5.605335  
       9B2     5.605335    20A1     5.701505  

    Final Occupation by Irrep:
             A1    A2    B1    B2 
    DOCC [     5,    0,    2,    2 ]

  @DF-RKS Final Energy:  -460.78430449881068

   => Energetics <=

    Nuclear Repulsion Energy =              6.9769200770981810
    One-Electron Energy =                -649.6684883822651955
    Two-Electron Energy =                 203.8366355776683747
    DFT Exchange-Correlation Energy =     -22.0057666593434824
    Empirical Dispersion Energy =           0.0000000000000000
    VV10 Nonlocal Energy =                  0.0763948880314645
    Total Energy =                       -460.7843044988106271

Computation Completed


Properties will be evaluated at   0.000000,   0.000000,   0.000000 [a0]

Properties computed using the SCF density matrix

  Nuclear Dipole Moment: [e a0]
     X:     0.0000      Y:     0.0000      Z:     1.2080

  Electronic Dipole Moment: [e a0]
     X:     0.0000      Y:     0.0000      Z:    -0.7605

  Dipole Moment: [e a0]
     X:     0.0000      Y:     0.0000      Z:     0.4475     Total:     0.4475

  Dipole Moment: [D]
     X:     0.0000      Y:     0.0000      Z:     1.1374     Total:     1.1374


*** tstop() called on bp1-compute00105.data.bp.acrc.priv at Tue Apr 27 17:59:01 2021
Module time:
	user time   =      35.15 seconds =       0.59 minutes
	system time =       1.42 seconds =       0.02 minutes
	total time  =          1 seconds =       0.02 minutes
Total time:
	user time   =     214.21 seconds =       3.57 minutes
	system time =       8.62 seconds =       0.14 minutes
	total time  =          9 seconds =       0.15 minutes

  //>>>>>>>>>>>>>>>>>>>>>>>>>>>>>>>>>>>//
  //    Loading displacement 3 of 3    //
  //<<<<<<<<<<<<<<<<<<<<<<<<<<<<<<<<<<<//

*** tstart() called on bp1-compute00105.data.bp.acrc.priv
*** at Tue Apr 27 17:59:01 2021

   => Loading Basis Set <=

    Name: AUG-CC-PV(D+D)Z
    Role: ORBITAL
    Keyword: BASIS
    atoms 1 entry CL         line   792 file /work/zw18965/.conda/envs/p4env/share/psi4/basis/aug-cc-pv_dpd_z.gbs 
    atoms 2 entry H          line    56 file /work/zw18965/.conda/envs/p4env/share/psi4/basis/aug-cc-pv_dpd_z.gbs 


         ---------------------------------------------------------
                                   SCF
               by Justin Turney, Rob Parrish, Andy Simmonett
                          and Daniel G. A. Smith
                              RKS Reference
                       24 Threads, 137329 MiB Core
         ---------------------------------------------------------

  ==> Geometry <==

    Molecular point group: c2v
    Full point group: C_inf_v

    Geometry (in Angstrom), charge = 0, multiplicity = 1:

       Center              X                  Y                   Z               Mass       
    ------------   -----------------  -----------------  -----------------  -----------------
         CL           0.000000000000     0.000000000000    -0.035970444302    34.968852682000
         H            0.000000000000     0.000000000000     1.248078910000     1.007825032230

  Running in c2v symmetry.

  Rotational constants: A = ************  B =     10.43729  C =     10.43729 [cm^-1]
  Rotational constants: A = ************  B = 312901.96960  C = 312901.96960 [MHz]
  Nuclear repulsion =    7.005971033163231

  Charge       = 0
  Multiplicity = 1
  Electrons    = 18
  Nalpha       = 9
  Nbeta        = 9

  ==> Algorithm <==

  SCF Algorithm Type is DF.
  DIIS enabled.
  MOM disabled.
  Fractional occupation disabled.
  Guess Type is READ.
  Energy threshold   = 1.00e-08
  Density threshold  = 1.00e-08
  Integral threshold = 0.00e+00

  ==> Primary Basis <==

  Basis Set: AUG-CC-PV(D+D)Z
    Blend: AUG-CC-PV(D+D)Z
    Number of shells: 17
    Number of basis function: 41
    Number of Cartesian functions: 44
    Spherical Harmonics?: true
    Max angular momentum: 2

  ==> DFT Potential <==

   => Composite Functional: WB97M-V <= 

    wB97M-V Hyb-GGA Exchange-Correlation Functional

    N. Mardirossian and M. Head-Gordon, J. Chem. Phys. 144, 214110 (2016)

    Deriv               =              1
    GGA                 =           TRUE
    Meta                =           TRUE

    Exchange Hybrid     =           TRUE
    MP2 Hybrid          =          FALSE

   => Exchange-Correlation Functionals <=

    1.0000   wB97M-V exchange-correlation functional

   => Exact (HF) Exchange <=

    0.8500            HF,LR [omega = 0.3000]
    0.1500               HF 

   => VV10 Non-Local Parameters <=

    VV10 B              =     6.0000E+00
    VV10 C              =     1.0000E-02

   => Molecular Quadrature <=

    Radial Scheme          =       TREUTLER
    Pruning Scheme         =           FLAT
    Nuclear Scheme         =       TREUTLER

    BS radius alpha        =              1
    Pruning alpha          =              1
    Radial Points          =             75
    Spherical Points       =            302
    Total Points           =          45300
    Total Blocks           =            423
    Max Points             =            255
    Max Functions          =             41

   => Loading Basis Set <=

    Name: (AUG-CC-PV(D+D)Z AUX)
    Role: JKFIT
    Keyword: DF_BASIS_SCF
    atoms 1 entry CL         line   772 file /work/zw18965/.conda/envs/p4env/share/psi4/basis/aug-cc-pvdz-jkfit.gbs 
    atoms 2 entry H          line    70 file /work/zw18965/.conda/envs/p4env/share/psi4/basis/aug-cc-pvdz-jkfit.gbs 

   => Loading Basis Set <=

    Name: AUG-CC-PV(D+D)Z
    Role: ORBITAL
    Keyword: BASIS
    atoms 1 entry CL         line   792 file /work/zw18965/.conda/envs/p4env/share/psi4/basis/aug-cc-pv_dpd_z.gbs 
    atoms 2 entry H          line    56 file /work/zw18965/.conda/envs/p4env/share/psi4/basis/aug-cc-pv_dpd_z.gbs 

  Reading orbitals from file 180, no projection.

  ==> Pre-Iterations <==

   -------------------------------------------------------
    Irrep   Nso     Nmo     Nalpha   Nbeta   Ndocc  Nsocc
   -------------------------------------------------------
     A1        20      20       0       0       0       0
     A2         3       3       0       0       0       0
     B1         9       9       0       0       0       0
     B2         9       9       0       0       0       0
   -------------------------------------------------------
    Total      41      41       9       9       9       0
   -------------------------------------------------------

  ==> Integral Setup <==

  ==> DiskDFJK: Density-Fitted J/K Matrices <==

    J tasked:                  Yes
    K tasked:                  Yes
    wK tasked:                 Yes
    Omega:               3.000E-01
    OpenMP threads:             24
    Integrals threads:          24
    Memory [MiB]:           102865
    Algorithm:                Core
    Integral Cache:           NONE
    Schwarz Cutoff:          1E-12
    Fitting Condition:       1E-10

   => Auxiliary Basis Set <=

  Basis Set: (AUG-CC-PV(D+D)Z AUX)
    Blend: AUG-CC-PVDZ-JKFIT
    Number of shells: 52
    Number of basis function: 160
    Number of Cartesian functions: 185
    Spherical Harmonics?: true
    Max angular momentum: 3

  Cached 100.0% of DFT collocation blocks in 0.128 [GiB].

  Minimum eigenvalue in the overlap matrix is 2.3208738389E-03.
  Using Symmetric Orthogonalization.

  SCF Guess: Orbitals guess was supplied from a previous computation.

  ==> Iterations <==

                           Total Energy        Delta E     RMS |[F,P]|

   @DF-RKS iter   0:  -460.78610367038533   -4.60786e+02   2.64552e-04 
   @DF-RKS iter   1:  -460.78430739203338    1.79628e-03   4.05475e-05 DIIS
   @DF-RKS iter   2:  -460.78430778208877   -3.90055e-07   2.25467e-05 DIIS
   @DF-RKS iter   3:  -460.78430788244714   -1.00358e-07   1.32544e-06 DIIS
   @DF-RKS iter   4:  -460.78430788318934   -7.42205e-10   3.72175e-07 DIIS
   @DF-RKS iter   5:  -460.78430788325096   -6.16183e-11   1.21671e-07 DIIS
   @DF-RKS iter   6:  -460.78430788325664   -5.68434e-12   1.46408e-08 DIIS
   @DF-RKS iter   7:  -460.78430788325727   -6.25278e-13   1.53705e-09 DIIS
  Energy and wave function converged.


  ==> Post-Iterations <==

    Orbital Energies [Eh]
    ---------------------

    Doubly Occupied:                                                      

       1A1  -101.896822     2A1    -9.662109     3A1    -7.366487  
       1B2    -7.357757     1B1    -7.357757     4A1    -0.969615  
       5A1    -0.575211     2B1    -0.435799     2B2    -0.435799  

    Virtual:                                                              

       6A1     0.011637     7A1     0.095998     3B1     0.108413  
       3B2     0.108413     8A1     0.124365     9A1     0.180281  
       4B1     0.266131     4B2     0.266131    10A1     0.390462  
       1A2     0.390463    11A1     0.415747    12A1     0.513676  
       5B1     0.516421     5B2     0.516421    13A1     0.764351  
       6B1     0.801099     6B2     0.801099    14A1     0.901037  
      15A1     1.109721     2A2     1.109723     7B1     1.144750  
       7B2     1.144750    16A1     1.166065    17A1     1.613912  
       8B1     1.651638     8B2     1.651638    18A1     2.174235  
       3A2     5.556985    19A1     5.556991     9B1     5.606113  
       9B2     5.606113    20A1     5.701814  

    Final Occupation by Irrep:
             A1    A2    B1    B2 
    DOCC [     5,    0,    2,    2 ]

  @DF-RKS Final Energy:  -460.78430788325727

   => Energetics <=

    Nuclear Repulsion Energy =              7.0059710331632310
    One-Electron Energy =                -649.7231121730314953
    Two-Electron Energy =                 203.8636273667281387
    DFT Exchange-Correlation Energy =     -22.0071908949303925
    Empirical Dispersion Energy =           0.0000000000000000
    VV10 Nonlocal Energy =                  0.0763967848132908
    Total Energy =                       -460.7843078832572701

Computation Completed


Properties will be evaluated at   0.000000,   0.000000,   0.000000 [a0]

Properties computed using the SCF density matrix

  Nuclear Dipole Moment: [e a0]
     X:     0.0000      Y:     0.0000      Z:     1.2030

  Electronic Dipole Moment: [e a0]
     X:     0.0000      Y:     0.0000      Z:    -0.7576

  Dipole Moment: [e a0]
     X:     0.0000      Y:     0.0000      Z:     0.4453     Total:     0.4453

  Dipole Moment: [D]
     X:     0.0000      Y:     0.0000      Z:     1.1319     Total:     1.1319


*** tstop() called on bp1-compute00105.data.bp.acrc.priv at Tue Apr 27 17:59:03 2021
Module time:
	user time   =      33.74 seconds =       0.56 minutes
	system time =       1.08 seconds =       0.02 minutes
	total time  =          2 seconds =       0.03 minutes
Total time:
	user time   =     248.09 seconds =       4.13 minutes
	system time =       9.70 seconds =       0.16 minutes
	total time  =         11 seconds =       0.18 minutes

         ----------------------------------------------------------
                                   FINDIF
                     R. A. King and Jonathon Misiewicz
         ---------------------------------------------------------

  Computing gradient from energies.
    Using 3-point formula.
    Energy without displacement: -460.7843103909
    Check energies below for precision!
    Forces are for mass-weighted, symmetry-adapted cartesians (in au).

     Coord      Energy(-1)        Energy(+1)            Force
        0   -460.7843044988   -460.7843078833     -0.0003384447


-------------------------------------------------------------
  ## New Matrix (Symmetry 0) ##
  Irrep: 1 Size: 2 x 3

                 1                   2                   3

    1     0.00000000000000     0.00000000000000    -0.00033497345972
    2     0.00000000000000     0.00000000000000     0.00033497345972




			-----------------------------------------
			 OPTKING 2.0: for geometry optimizations 
			  - R.A. King,  Bethel University        
			-----------------------------------------
	At level 1: Red. Int., RFO, no backsteps, dynamic trust

	Previous internal coordinate definitions found.
	---Fragment 1 Geometry and Gradient---
	 CL          0.0000000000        0.0000000000       -0.0681158062
	 H           0.0000000000        0.0000000000        2.3634376180
	             0.0000000000        0.0000000000       -0.0003349735
	             0.0000000000        0.0000000000        0.0003349735

	---Fragment 1 Intrafragment Coordinates---
	 - Coordinate -           - BOHR/RAD -       - ANG/DEG -
	 R(1,2)           =         2.431553	       1.286723

	Current energy   :      -460.7843103909

	Energy change for the previous step:
		Projected    :         0.0000779319
		Actual       :        -0.0000670190

	Performing BFGS update.
	Previous computed or guess Hessian on step 1.
	Steps to be used in Hessian update: 1
	Taking RFO optimization step.
	Going to follow RFO solution 1.
	Using RFO vector 1.
	Norm of target step-size    0.00099
	Projected energy change by RFO approximation:         0.0000001566

	Back-transformation to cartesian coordinates...
	Successfully converged to displaced geometry.

	--- Internal Coordinate Step in ANG or DEG, aJ/ANG or AJ/DEG ---
	 ---------------------------------------------------------------------------
	   Coordinate                Previous        Force       Change         New 
	   ----------                --------       ------       ------       ------
	    1 R(1,2)          =      1.286723    -0.002760    -0.000522     1.286200
	 ---------------------------------------------------------------------------
	Successfully symmetrized geometry.

  ==> Convergence Check <==

  Measures of convergence in internal coordinates in au.
  Criteria marked as inactive (o), active & met (*), and active & unmet ( ).
  ---------------------------------------------------------------------------------------------
   Step     Total Energy     Delta E     MAX Force     RMS Force      MAX Disp      RMS Disp   
  ---------------------------------------------------------------------------------------------
    Convergence Criteria    1.00e-06 *    3.00e-04 *             o    1.20e-03 *             o
  ---------------------------------------------------------------------------------------------
      2    -460.78431039   -6.70e-05      3.35e-04      3.35e-04 o    9.87e-04 *    9.87e-04 o  ~
  ---------------------------------------------------------------------------------------------

	Writing optimization data to binary file.
	Structure for next step:
	Cartesian Geometry (in Angstrom)
	   CL     0.0000000000   0.0000000000  -0.0357841409
	    H     0.0000000000   0.0000000000   1.2504161301
			--------------------------
			 OPTKING Finished Execution 
			--------------------------

    Structure for next step:
    Molecular point group: c2v
    Full point group: C_inf_v

    Geometry (in Angstrom), charge = 0, multiplicity = 1:

    CL           0.000000000000     0.000000000000    -0.036030698691
    H            0.000000000000     0.000000000000     1.250169577308

gradient() will perform gradient computation by finite difference of analytic energies.

         ----------------------------------------------------------
                                   FINDIF
                     R. A. King and Jonathon Misiewicz
         ---------------------------------------------------------

  Using finite-differences of energies to determine gradients.
    Generating geometries for use with 3-point formula.
    Displacement size will be 5.00e-03.
    Number of atoms is 2.
    Number of symmetric SALCs is 1.
    Translations projected? 1. Rotations projected? 1.
    Number of geometries (including reference) is 3.

  //>>>>>>>>>>>>>>>>>>>>>>>>>>>>>>>>>>>//
  //    Loading displacement 1 of 3    //
  //<<<<<<<<<<<<<<<<<<<<<<<<<<<<<<<<<<<//

*** tstart() called on bp1-compute00105.data.bp.acrc.priv
*** at Tue Apr 27 17:59:03 2021

   => Loading Basis Set <=

    Name: AUG-CC-PV(D+D)Z
    Role: ORBITAL
    Keyword: BASIS
    atoms 1 entry CL         line   792 file /work/zw18965/.conda/envs/p4env/share/psi4/basis/aug-cc-pv_dpd_z.gbs 
    atoms 2 entry H          line    56 file /work/zw18965/.conda/envs/p4env/share/psi4/basis/aug-cc-pv_dpd_z.gbs 


         ---------------------------------------------------------
                                   SCF
               by Justin Turney, Rob Parrish, Andy Simmonett
                          and Daniel G. A. Smith
                              RKS Reference
                       24 Threads, 137329 MiB Core
         ---------------------------------------------------------

  ==> Geometry <==

    Molecular point group: c2v
    Full point group: C_inf_v

    Geometry (in Angstrom), charge = 0, multiplicity = 1:

       Center              X                  Y                   Z               Mass       
    ------------   -----------------  -----------------  -----------------  -----------------
         CL           0.000000000000     0.000000000000    -0.036030698691    34.968852682000
         H            0.000000000000     0.000000000000     1.250169577308     1.007825032230

  Running in c2v symmetry.

  Rotational constants: A = ************  B =     10.40241  C =     10.40241 [cm^-1]
  Rotational constants: A = ************  B = 311856.30837  C = 311856.30837 [MHz]
  Nuclear repulsion =    6.994254898914619

  Charge       = 0
  Multiplicity = 1
  Electrons    = 18
  Nalpha       = 9
  Nbeta        = 9

  ==> Algorithm <==

  SCF Algorithm Type is DF.
  DIIS enabled.
  MOM disabled.
  Fractional occupation disabled.
  Guess Type is READ.
  Energy threshold   = 1.00e-08
  Density threshold  = 1.00e-08
  Integral threshold = 0.00e+00

  ==> Primary Basis <==

  Basis Set: AUG-CC-PV(D+D)Z
    Blend: AUG-CC-PV(D+D)Z
    Number of shells: 17
    Number of basis function: 41
    Number of Cartesian functions: 44
    Spherical Harmonics?: true
    Max angular momentum: 2

  ==> DFT Potential <==

   => Composite Functional: WB97M-V <= 

    wB97M-V Hyb-GGA Exchange-Correlation Functional

    N. Mardirossian and M. Head-Gordon, J. Chem. Phys. 144, 214110 (2016)

    Deriv               =              1
    GGA                 =           TRUE
    Meta                =           TRUE

    Exchange Hybrid     =           TRUE
    MP2 Hybrid          =          FALSE

   => Exchange-Correlation Functionals <=

    1.0000   wB97M-V exchange-correlation functional

   => Exact (HF) Exchange <=

    0.8500            HF,LR [omega = 0.3000]
    0.1500               HF 

   => VV10 Non-Local Parameters <=

    VV10 B              =     6.0000E+00
    VV10 C              =     1.0000E-02

   => Molecular Quadrature <=

    Radial Scheme          =       TREUTLER
    Pruning Scheme         =           FLAT
    Nuclear Scheme         =       TREUTLER

    BS radius alpha        =              1
    Pruning alpha          =              1
    Radial Points          =             75
    Spherical Points       =            302
    Total Points           =          45300
    Total Blocks           =            423
    Max Points             =            255
    Max Functions          =             41

   => Loading Basis Set <=

    Name: (AUG-CC-PV(D+D)Z AUX)
    Role: JKFIT
    Keyword: DF_BASIS_SCF
    atoms 1 entry CL         line   772 file /work/zw18965/.conda/envs/p4env/share/psi4/basis/aug-cc-pvdz-jkfit.gbs 
    atoms 2 entry H          line    70 file /work/zw18965/.conda/envs/p4env/share/psi4/basis/aug-cc-pvdz-jkfit.gbs 

   => Loading Basis Set <=

    Name: AUG-CC-PV(D+D)Z
    Role: ORBITAL
    Keyword: BASIS
    atoms 1 entry CL         line   792 file /work/zw18965/.conda/envs/p4env/share/psi4/basis/aug-cc-pv_dpd_z.gbs 
    atoms 2 entry H          line    56 file /work/zw18965/.conda/envs/p4env/share/psi4/basis/aug-cc-pv_dpd_z.gbs 

  Reading orbitals from file 180, no projection.

  ==> Pre-Iterations <==

   -------------------------------------------------------
    Irrep   Nso     Nmo     Nalpha   Nbeta   Ndocc  Nsocc
   -------------------------------------------------------
     A1        20      20       0       0       0       0
     A2         3       3       0       0       0       0
     B1         9       9       0       0       0       0
     B2         9       9       0       0       0       0
   -------------------------------------------------------
    Total      41      41       9       9       9       0
   -------------------------------------------------------

  ==> Integral Setup <==

  ==> DiskDFJK: Density-Fitted J/K Matrices <==

    J tasked:                  Yes
    K tasked:                  Yes
    wK tasked:                 Yes
    Omega:               3.000E-01
    OpenMP threads:             24
    Integrals threads:          24
    Memory [MiB]:           102865
    Algorithm:                Core
    Integral Cache:           NONE
    Schwarz Cutoff:          1E-12
    Fitting Condition:       1E-10

   => Auxiliary Basis Set <=

  Basis Set: (AUG-CC-PV(D+D)Z AUX)
    Blend: AUG-CC-PVDZ-JKFIT
    Number of shells: 52
    Number of basis function: 160
    Number of Cartesian functions: 185
    Spherical Harmonics?: true
    Max angular momentum: 3

  Cached 100.0% of DFT collocation blocks in 0.128 [GiB].

  Minimum eigenvalue in the overlap matrix is 2.3333790421E-03.
  Using Symmetric Orthogonalization.

  SCF Guess: Orbitals guess was supplied from a previous computation.

  ==> Iterations <==

                           Total Energy        Delta E     RMS |[F,P]|

   @DF-RKS iter   0:  -460.78466119832137   -4.60785e+02   5.15437e-05 
   @DF-RKS iter   1:  -460.78431054628754    3.50652e-04   7.92745e-06 DIIS
   @DF-RKS iter   2:  -460.78431056119359   -1.49060e-08   4.40858e-06 DIIS
   @DF-RKS iter   3:  -460.78431056503030   -3.83670e-09   2.59001e-07 DIIS
   @DF-RKS iter   4:  -460.78431056505929   -2.89901e-11   7.26989e-08 DIIS
   @DF-RKS iter   5:  -460.78431056506105   -1.76215e-12   2.38446e-08 DIIS
   @DF-RKS iter   6:  -460.78431056506179   -7.38964e-13   2.86681e-09 DIIS
  Energy and wave function converged.


  ==> Post-Iterations <==

    Orbital Energies [Eh]
    ---------------------

    Doubly Occupied:                                                      

       1A1  -101.896910     2A1    -9.662144     3A1    -7.366529  
       1B1    -7.357795     1B2    -7.357795     4A1    -0.969282  
       5A1    -0.574886     2B1    -0.435740     2B2    -0.435740  

    Virtual:                                                              

       6A1     0.011544     7A1     0.096017     3B2     0.108426  
       3B1     0.108426     8A1     0.123795     9A1     0.180310  
       4B1     0.266040     4B2     0.266040    10A1     0.390499  
       1A2     0.390499    11A1     0.415651    12A1     0.513677  
       5B2     0.516281     5B1     0.516281    13A1     0.763753  
       6B1     0.801040     6B2     0.801040    14A1     0.900728  
      15A1     1.109751     2A2     1.109753     7B1     1.144841  
       7B2     1.144841    16A1     1.165635    17A1     1.612542  
       8B1     1.650963     8B2     1.650963    18A1     2.170903  
       3A2     5.556986    19A1     5.556992     9B1     5.605799  
       9B2     5.605799    20A1     5.701693  

    Final Occupation by Irrep:
             A1    A2    B1    B2 
    DOCC [     5,    0,    2,    2 ]

  @DF-RKS Final Energy:  -460.78431056506179

   => Energetics <=

    Nuclear Repulsion Energy =              6.9942548989146189
    One-Electron Energy =                -649.7010887998092130
    Two-Electron Energy =                 203.8527436160183868
    DFT Exchange-Correlation Energy =     -22.0066162990337730
    Empirical Dispersion Energy =           0.0000000000000000
    VV10 Nonlocal Energy =                  0.0763960188481505
    Total Energy =                       -460.7843105650618440

Computation Completed


Properties will be evaluated at   0.000000,   0.000000,   0.000000 [a0]

Properties computed using the SCF density matrix

  Nuclear Dipole Moment: [e a0]
     X:     0.0000      Y:     0.0000      Z:     1.2050

  Electronic Dipole Moment: [e a0]
     X:     0.0000      Y:     0.0000      Z:    -0.7588

  Dipole Moment: [e a0]
     X:     0.0000      Y:     0.0000      Z:     0.4462     Total:     0.4462

  Dipole Moment: [D]
     X:     0.0000      Y:     0.0000      Z:     1.1341     Total:     1.1341


*** tstop() called on bp1-compute00105.data.bp.acrc.priv at Tue Apr 27 17:59:04 2021
Module time:
	user time   =      31.95 seconds =       0.53 minutes
	system time =       0.98 seconds =       0.02 minutes
	total time  =          1 seconds =       0.02 minutes
Total time:
	user time   =     280.34 seconds =       4.67 minutes
	system time =      10.70 seconds =       0.18 minutes
	total time  =         12 seconds =       0.20 minutes

  //>>>>>>>>>>>>>>>>>>>>>>>>>>>>>>>>>>>//
  //    Loading displacement 2 of 3    //
  //<<<<<<<<<<<<<<<<<<<<<<<<<<<<<<<<<<<//

*** tstart() called on bp1-compute00105.data.bp.acrc.priv
*** at Tue Apr 27 17:59:04 2021

   => Loading Basis Set <=

    Name: AUG-CC-PV(D+D)Z
    Role: ORBITAL
    Keyword: BASIS
    atoms 1 entry CL         line   792 file /work/zw18965/.conda/envs/p4env/share/psi4/basis/aug-cc-pv_dpd_z.gbs 
    atoms 2 entry H          line    56 file /work/zw18965/.conda/envs/p4env/share/psi4/basis/aug-cc-pv_dpd_z.gbs 


         ---------------------------------------------------------
                                   SCF
               by Justin Turney, Rob Parrish, Andy Simmonett
                          and Daniel G. A. Smith
                              RKS Reference
                       24 Threads, 137329 MiB Core
         ---------------------------------------------------------

  ==> Geometry <==

    Molecular point group: c2v
    Full point group: C_inf_v

    Geometry (in Angstrom), charge = 0, multiplicity = 1:

       Center              X                  Y                   Z               Mass       
    ------------   -----------------  -----------------  -----------------  -----------------
         CL           0.000000000000     0.000000000000    -0.036105586735    34.968852682000
         H            0.000000000000     0.000000000000     1.252767993599     1.007825032230

  Running in c2v symmetry.

  Rotational constants: A = ************  B =     10.35930  C =     10.35930 [cm^-1]
  Rotational constants: A = ************  B = 310563.98267  C = 310563.98267 [MHz]
  Nuclear repulsion =    6.979747834584807

  Charge       = 0
  Multiplicity = 1
  Electrons    = 18
  Nalpha       = 9
  Nbeta        = 9

  ==> Algorithm <==

  SCF Algorithm Type is DF.
  DIIS enabled.
  MOM disabled.
  Fractional occupation disabled.
  Guess Type is READ.
  Energy threshold   = 1.00e-08
  Density threshold  = 1.00e-08
  Integral threshold = 0.00e+00

  ==> Primary Basis <==

  Basis Set: AUG-CC-PV(D+D)Z
    Blend: AUG-CC-PV(D+D)Z
    Number of shells: 17
    Number of basis function: 41
    Number of Cartesian functions: 44
    Spherical Harmonics?: true
    Max angular momentum: 2

  ==> DFT Potential <==

   => Composite Functional: WB97M-V <= 

    wB97M-V Hyb-GGA Exchange-Correlation Functional

    N. Mardirossian and M. Head-Gordon, J. Chem. Phys. 144, 214110 (2016)

    Deriv               =              1
    GGA                 =           TRUE
    Meta                =           TRUE

    Exchange Hybrid     =           TRUE
    MP2 Hybrid          =          FALSE

   => Exchange-Correlation Functionals <=

    1.0000   wB97M-V exchange-correlation functional

   => Exact (HF) Exchange <=

    0.8500            HF,LR [omega = 0.3000]
    0.1500               HF 

   => VV10 Non-Local Parameters <=

    VV10 B              =     6.0000E+00
    VV10 C              =     1.0000E-02

   => Molecular Quadrature <=

    Radial Scheme          =       TREUTLER
    Pruning Scheme         =           FLAT
    Nuclear Scheme         =       TREUTLER

    BS radius alpha        =              1
    Pruning alpha          =              1
    Radial Points          =             75
    Spherical Points       =            302
    Total Points           =          45300
    Total Blocks           =            423
    Max Points             =            255
    Max Functions          =             41

   => Loading Basis Set <=

    Name: (AUG-CC-PV(D+D)Z AUX)
    Role: JKFIT
    Keyword: DF_BASIS_SCF
    atoms 1 entry CL         line   772 file /work/zw18965/.conda/envs/p4env/share/psi4/basis/aug-cc-pvdz-jkfit.gbs 
    atoms 2 entry H          line    70 file /work/zw18965/.conda/envs/p4env/share/psi4/basis/aug-cc-pvdz-jkfit.gbs 

   => Loading Basis Set <=

    Name: AUG-CC-PV(D+D)Z
    Role: ORBITAL
    Keyword: BASIS
    atoms 1 entry CL         line   792 file /work/zw18965/.conda/envs/p4env/share/psi4/basis/aug-cc-pv_dpd_z.gbs 
[...]

                           Total Energy        Delta E     RMS |[F,P]|

   @DF-RKS iter SAD:  -460.62168176600005   -4.60622e+02   0.00000e+00 
   @DF-RKS iter   1:  -460.76364346330291   -1.41962e-01   7.40147e-03 DIIS
   @DF-RKS iter   2:  -460.77830748776955   -1.46640e-02   4.57855e-03 DIIS
   @DF-RKS iter   3:  -460.78424099004832   -5.93350e-03   3.17530e-04 DIIS
   @DF-RKS iter   4:  -460.78429991257843   -5.89225e-05   1.01133e-04 DIIS
   @DF-RKS iter   5:  -460.78430601394541   -6.10137e-06   2.34265e-05 DIIS
   @DF-RKS iter   6:  -460.78430629575280   -2.81807e-07   4.17927e-06 DIIS
   @DF-RKS iter   7:  -460.78430630436407   -8.61127e-09   5.38419e-07 DIIS
   @DF-RKS iter   8:  -460.78430630455875   -1.94689e-10   6.01199e-08 DIIS
   @DF-RKS iter   9:  -460.78430630456302   -4.26326e-12   5.06528e-09 DIIS
   @DF-RKS iter  10:  -460.78430630456336   -3.41061e-13   3.51328e-10 DIIS
   @DF-RKS iter  11:  -460.78430630456336    0.00000e+00   3.22648e-11 DIIS
  Energy and wave function converged.


  ==> Post-Iterations <==

    Orbital Energies [Eh]
    ---------------------

    Doubly Occupied:                                                      

       1A1  -101.897018     2A1    -9.662189     3A1    -7.366582  
       1B1    -7.357843     1B2    -7.357843     4A1    -0.968871  
       5A1    -0.574481     2B2    -0.435668     2B1    -0.435668  

    Virtual:                                                              

       6A1     0.011426     7A1     0.096040     3B2     0.108442  
       3B1     0.108442     8A1     0.123087     9A1     0.180347  
       4B1     0.265927     4B2     0.265927    10A1     0.390544  
       1A2     0.390545    11A1     0.415528    12A1     0.513682  
       5B1     0.516106     5B2     0.516106    13A1     0.763010  
       6B2     0.800967     6B1     0.800967    14A1     0.900350  
      15A1     1.109788     2A2     1.109789     7B2     1.144954  
       7B1     1.144954    16A1     1.165103    17A1     1.610839  
       8B1     1.650131     8B2     1.650131    18A1     2.166789  
       3A2     5.556987    19A1     5.556993     9B2     5.605411  
       9B1     5.605411    20A1     5.701537  

    Final Occupation by Irrep:
             A1    A2    B1    B2 
    DOCC [     5,    0,    2,    2 ]

  @DF-RKS Final Energy:  -460.78430630456336

   => Energetics <=

    Nuclear Repulsion Energy =              6.9797478345848072
    One-Electron Energy =                -649.6738077732564989
    Two-Electron Energy =                 203.8392637874646027
    DFT Exchange-Correlation Energy =     -22.0059052256795304
    Empirical Dispersion Energy =           0.0000000000000000
    VV10 Nonlocal Energy =                  0.0763950723232850
    Total Energy =                       -460.7843063045633585

Computation Completed


Properties will be evaluated at   0.000000,   0.000000,   0.000000 [a0]

Properties computed using the SCF density matrix

  Nuclear Dipole Moment: [e a0]
     X:     0.0000      Y:     0.0000      Z:     1.2075

  Electronic Dipole Moment: [e a0]
     X:     0.0000      Y:     0.0000      Z:    -0.7602

  Dipole Moment: [e a0]
     X:     0.0000      Y:     0.0000      Z:     0.4473     Total:     0.4473

  Dipole Moment: [D]
     X:     0.0000      Y:     0.0000      Z:     1.1369     Total:     1.1369


*** tstop() called on bp1-compute00105.data.bp.acrc.priv at Tue Apr 27 17:59:18 2021
Module time:
	user time   =      50.29 seconds =       0.84 minutes
	system time =       1.49 seconds =       0.02 minutes
	total time  =          2 seconds =       0.03 minutes
Total time:
	user time   =     589.55 seconds =       9.83 minutes
	system time =      20.86 seconds =       0.35 minutes
	total time  =         26 seconds =       0.43 minutes

  //>>>>>>>>>>>>>>>>>>>>>>>>>>>>>>>>>>>//
  //    Loading displacement 3 of 3    //
  //<<<<<<<<<<<<<<<<<<<<<<<<<<<<<<<<<<<//

*** tstart() called on bp1-compute00105.data.bp.acrc.priv
*** at Tue Apr 27 17:59:18 2021

   => Loading Basis Set <=

    Name: AUG-CC-PV(D+D)Z
    Role: ORBITAL
    Keyword: BASIS
    atoms 1 entry CL         line   792 file /work/zw18965/.conda/envs/p4env/share/psi4/basis/aug-cc-pv_dpd_z.gbs 
    atoms 2 entry H          line    56 file /work/zw18965/.conda/envs/p4env/share/psi4/basis/aug-cc-pv_dpd_z.gbs 


         ---------------------------------------------------------
                                   SCF
               by Justin Turney, Rob Parrish, Andy Simmonett
                          and Daniel G. A. Smith
                              RKS Reference
                       24 Threads, 137329 MiB Core
         ---------------------------------------------------------

  ==> Geometry <==

    Molecular point group: c2v
    Full point group: C_inf_v

    Geometry (in Angstrom), charge = 0, multiplicity = 1:

       Center              X                  Y                   Z               Mass       
    ------------   -----------------  -----------------  -----------------  -----------------
         CL           0.000000000000     0.000000000000    -0.035955810647    34.968852682000
         H            0.000000000000     0.000000000000     1.247571161017     1.007825032230

  Running in c2v symmetry.

  Rotational constants: A = ************  B =     10.44578  C =     10.44578 [cm^-1]
  Rotational constants: A = ************  B = 313156.71738  C = 313156.71738 [MHz]
  Nuclear repulsion =    7.008822393291980

  Charge       = 0
  Multiplicity = 1
  Electrons    = 18
  Nalpha       = 9
  Nbeta        = 9

  ==> Algorithm <==

  SCF Algorithm Type is DF.
  DIIS enabled.
  MOM disabled.
  Fractional occupation disabled.
  Guess Type is SAD.
  Energy threshold   = 1.00e-10
  Density threshold  = 1.00e-10
  Integral threshold = 0.00e+00

  ==> Primary Basis <==

  Basis Set: AUG-CC-PV(D+D)Z
    Blend: AUG-CC-PV(D+D)Z
    Number of shells: 17
    Number of basis function: 41
    Number of Cartesian functions: 44
    Spherical Harmonics?: true
    Max angular momentum: 2

  ==> DFT Potential <==

   => Composite Functional: WB97M-V <= 

    wB97M-V Hyb-GGA Exchange-Correlation Functional

    N. Mardirossian and M. Head-Gordon, J. Chem. Phys. 144, 214110 (2016)

    Deriv               =              1
    GGA                 =           TRUE
    Meta                =           TRUE

    Exchange Hybrid     =           TRUE
    MP2 Hybrid          =          FALSE

   => Exchange-Correlation Functionals <=

    1.0000   wB97M-V exchange-correlation functional

   => Exact (HF) Exchange <=

    0.8500            HF,LR [omega = 0.3000]
    0.1500               HF 

   => VV10 Non-Local Parameters <=

    VV10 B              =     6.0000E+00
    VV10 C              =     1.0000E-02

   => Molecular Quadrature <=

    Radial Scheme          =       TREUTLER
    Pruning Scheme         =           FLAT
    Nuclear Scheme         =       TREUTLER

    BS radius alpha        =              1
    Pruning alpha          =              1
    Radial Points          =             75
    Spherical Points       =            302
    Total Points           =          45300
    Total Blocks           =            423
    Max Points             =            255
    Max Functions          =             41

   => Loading Basis Set <=

    Name: (AUG-CC-PV(D+D)Z AUX)
    Role: JKFIT
    Keyword: DF_BASIS_SCF
    atoms 1 entry CL         line   772 file /work/zw18965/.conda/envs/p4env/share/psi4/basis/aug-cc-pvdz-jkfit.gbs 
    atoms 2 entry H          line    70 file /work/zw18965/.conda/envs/p4env/share/psi4/basis/aug-cc-pvdz-jkfit.gbs 

  ==> Pre-Iterations <==

   -------------------------------------------------------
    Irrep   Nso     Nmo     Nalpha   Nbeta   Ndocc  Nsocc
   -------------------------------------------------------
     A1        20      20       0       0       0       0
     A2         3       3       0       0       0       0
     B1         9       9       0       0       0       0
     B2         9       9       0       0       0       0
   -------------------------------------------------------
    Total      41      41       9       9       9       0
   -------------------------------------------------------

  ==> Integral Setup <==

  ==> DiskDFJK: Density-Fitted J/K Matrices <==

    J tasked:                  Yes
    K tasked:                  Yes
    wK tasked:                 Yes
    Omega:               3.000E-01
    OpenMP threads:             24
    Integrals threads:          24
    Memory [MiB]:           102865
    Algorithm:                Core
    Integral Cache:           NONE
    Schwarz Cutoff:          1E-12
    Fitting Condition:       1E-10

   => Auxiliary Basis Set <=

  Basis Set: (AUG-CC-PV(D+D)Z AUX)
    Blend: AUG-CC-PVDZ-JKFIT
    Number of shells: 52
    Number of basis function: 160
    Number of Cartesian functions: 185
    Spherical Harmonics?: true
    Max angular momentum: 3

  Cached 100.0% of DFT collocation blocks in 0.128 [GiB].

  Minimum eigenvalue in the overlap matrix is 2.3178519735E-03.
  Using Symmetric Orthogonalization.

  SCF Guess: Superposition of Atomic Densities via on-the-fly atomic UHF.

  ==> Iterations <==

                           Total Energy        Delta E     RMS |[F,P]|

   @DF-RKS iter SAD:  -460.62459802208502   -4.60625e+02   0.00000e+00 
   @DF-RKS iter   1:  -460.76382159532159   -1.39224e-01   7.37976e-03 DIIS
   @DF-RKS iter   2:  -460.77841178935000   -1.45902e-02   4.54305e-03 DIIS
   @DF-RKS iter   3:  -460.78424113797274   -5.82935e-03   3.17483e-04 DIIS
   @DF-RKS iter   4:  -460.78430003650402   -5.88985e-05   1.01351e-04 DIIS
   @DF-RKS iter   5:  -460.78430611520827   -6.07870e-06   2.33003e-05 DIIS
   @DF-RKS iter   6:  -460.78430639278292   -2.77575e-07   4.12896e-06 DIIS
   @DF-RKS iter   7:  -460.78430640122792   -8.44500e-09   5.35518e-07 DIIS
   @DF-RKS iter   8:  -460.78430640141931   -1.91392e-10   5.96712e-08 DIIS
   @DF-RKS iter   9:  -460.78430640142346   -4.14957e-12   5.04247e-09 DIIS
   @DF-RKS iter  10:  -460.78430640142363   -1.70530e-13   3.47337e-10 DIIS
   @DF-RKS iter  11:  -460.78430640142307    5.68434e-13   3.18759e-11 DIIS
  Energy and wave function converged.


  ==> Post-Iterations <==

    Orbital Energies [Eh]
    ---------------------

    Doubly Occupied:                                                      

       1A1  -101.896800     2A1    -9.662100     3A1    -7.366477  
       1B2    -7.357747     1B1    -7.357747     4A1    -0.969697  
       5A1    -0.575290     2B2    -0.435813     2B1    -0.435813  

    Virtual:                                                              

       6A1     0.011659     7A1     0.095993     3B2     0.108409  
       3B1     0.108409     8A1     0.124504     9A1     0.180274  
       4B2     0.266153     4B1     0.266153    10A1     0.390453  
       1A2     0.390454    11A1     0.415770    12A1     0.513676  
       5B2     0.516454     5B1     0.516454    13A1     0.764496  
       6B2     0.801113     6B1     0.801113    14A1     0.901113  
      15A1     1.109714     2A2     1.109716     7B2     1.144727  
       7B1     1.144727    16A1     1.166170    17A1     1.614244  
       8B2     1.651802     8B1     1.651802    18A1     2.175047  
       3A2     5.556985    19A1     5.556991     9B1     5.606189  
       9B2     5.606189    20A1     5.701843  

    Final Occupation by Irrep:
             A1    A2    B1    B2 
    DOCC [     5,    0,    2,    2 ]

  @DF-RKS Final Energy:  -460.78430640142307

   => Energetics <=

    Nuclear Repulsion Energy =              7.0088223932919798
    One-Electron Energy =                -649.7284704991398030
    Two-Electron Energy =                 203.8662754944670894
    DFT Exchange-Correlation Energy =     -22.0073307614229563
    Empirical Dispersion Energy =           0.0000000000000000
    VV10 Nonlocal Energy =                  0.0763969713806492
    Total Energy =                       -460.7843064014230094

Computation Completed


Properties will be evaluated at   0.000000,   0.000000,   0.000000 [a0]

Properties computed using the SCF density matrix

  Nuclear Dipole Moment: [e a0]
     X:     0.0000      Y:     0.0000      Z:     1.2025

  Electronic Dipole Moment: [e a0]
     X:     0.0000      Y:     0.0000      Z:    -0.7574

  Dipole Moment: [e a0]
     X:     0.0000      Y:     0.0000      Z:     0.4451     Total:     0.4451

  Dipole Moment: [D]
     X:     0.0000      Y:     0.0000      Z:     1.1314     Total:     1.1314


*** tstop() called on bp1-compute00105.data.bp.acrc.priv at Tue Apr 27 17:59:20 2021
Module time:
	user time   =      48.99 seconds =       0.82 minutes
	system time =       1.56 seconds =       0.03 minutes
	total time  =          2 seconds =       0.03 minutes
Total time:
	user time   =     638.67 seconds =      10.64 minutes
	system time =      22.43 seconds =       0.37 minutes
	total time  =         28 seconds =       0.47 minutes

         ----------------------------------------------------------
                                   FINDIF
                     R. A. King and Jonathon Misiewicz
         ---------------------------------------------------------

  Computing second-derivative from energies using projected, 
  symmetry-adapted, cartesian coordinates.

  3 energies passed in, including the reference geometry.
    Using 3-point formula.
    Energy without displacement: -460.7843105651
    Check energies below for precision!
    0: -1 :      -460.7843063046
    0: 1  :      -460.7843064014

-------------------------------------------------------------


  ==> Harmonic Vibrational Analysis <==

  non-mass-weighted Hessian:       Symmetric? True   Hermitian? True   Lin Dep Dim?  5 (0)
  projection of translations (True) and rotations (True) removed 5 degrees of freedom (5)
  total projector:                 Symmetric? True   Hermitian? True   Lin Dep Dim?  5 (5)
  mass-weighted Hessian:           Symmetric? True   Hermitian? True   Lin Dep Dim?  5 (0)
  pre-proj  low-frequency mode:    0.0000  [cm^-1]
  pre-proj  low-frequency mode:    0.0000  [cm^-1]
  pre-proj  low-frequency mode:    0.0000  [cm^-1]
  pre-proj  low-frequency mode:    0.0000  [cm^-1]
  pre-proj  low-frequency mode:    0.0000  [cm^-1]
  pre-proj  all modes:['0.0000' '0.0000' '0.0000' '0.0000' '0.0000' '2983.9874']
  projected mass-weighted Hessian: Symmetric? True   Hermitian? True   Lin Dep Dim?  5 (5)
  post-proj low-frequency mode:    0.0000  [cm^-1] (TR)
  post-proj low-frequency mode:    0.0000  [cm^-1] (TR)
  post-proj low-frequency mode:    0.0000  [cm^-1] (TR)
  post-proj low-frequency mode:    0.0000  [cm^-1] (TR)
  post-proj low-frequency mode:    0.0000  [cm^-1] (TR)
  post-proj  all modes:['0.0000' '0.0000' '0.0000' '0.0000' '0.0000' '2983.9874']

  Vibration                       6           
  Freq [cm^-1]                2983.9874       
  Irrep                           A1          
  Reduced mass [u]              1.0360        
  Force const [mDyne/A]         5.4351        
  Turning point v=0 [a0]        0.1973        
  RMS dev v=0 [a0 u^1/2]        0.1420        
  Char temp [K]               4293.2935       
  ----------------------------------------------------------------------------------
      1   CL               0.00  0.00 -0.03   
      2   H                0.00  0.00  1.00   

  ==> Thermochemistry Components <==

  Entropy, S
    Electronic S            0.000 [cal/(mol K)]        0.000 [J/(mol K)]       0.00000000 [mEh/K] (multiplicity = 1)
    Translational S        36.671 [cal/(mol K)]      153.430 [J/(mol K)]       0.05843851 [mEh/K] (mol. weight = 35.9767 [u], P = 101325.00 [Pa])
    Rotational S            7.932 [cal/(mol K)]       33.189 [J/(mol K)]       0.01264117 [mEh/K] (symmetry no. = 1)
    Vibrational S           0.000 [cal/(mol K)]        0.000 [J/(mol K)]       0.00000003 [mEh/K]
  Total S                  44.603 [cal/(mol K)]      186.620 [J/(mol K)]       0.07107970 [mEh/K]
  Correction S              0.000 [cal/(mol K)]        0.000 [J/(mol K)]       0.00000000 [mEh/K]

  Constant volume heat capacity, Cv
    Electronic Cv           0.000 [cal/(mol K)]        0.000 [J/(mol K)]       0.00000000 [mEh/K]
    Translational Cv        2.981 [cal/(mol K)]       12.472 [J/(mol K)]       0.00475022 [mEh/K]
    Rotational Cv           1.987 [cal/(mol K)]        8.314 [J/(mol K)]       0.00316681 [mEh/K]
    Vibrational Cv          0.000 [cal/(mol K)]        0.001 [J/(mol K)]       0.00000037 [mEh/K]
  Total Cv                  4.968 [cal/(mol K)]       20.787 [J/(mol K)]       0.00791739 [mEh/K]
  Correction Cv             0.000 [cal/(mol K)]        0.000 [J/(mol K)]       0.00000000 [mEh/K]

  Constant pressure heat capacity, Cp
    Electronic Cp           0.000 [cal/(mol K)]        0.000 [J/(mol K)]       0.00000000 [mEh/K]
    Translational Cp        4.968 [cal/(mol K)]       20.786 [J/(mol K)]       0.00791703 [mEh/K]
    Rotational Cp           1.987 [cal/(mol K)]        8.314 [J/(mol K)]       0.00316681 [mEh/K]
    Vibrational Cp          0.000 [cal/(mol K)]        0.001 [J/(mol K)]       0.00000037 [mEh/K]
  Total Cp                  6.955 [cal/(mol K)]       29.102 [J/(mol K)]       0.01108420 [mEh/K]
  Correction Cp             0.000 [cal/(mol K)]        0.000 [J/(mol K)]       0.00000000 [mEh/K]

  ==> Thermochemistry Energy Analysis <==

  Raw electronic energy, E0
  Total E0, Electronic energy at well bottom at 0 [K]                 -460.78431057 [Eh]

  Zero-point energy, ZPE_vib = Sum_i nu_i / 2
    Electronic ZPE          0.000 [kcal/mol]        0.000 [kJ/mol]       0.00000000 [Eh]
    Translational ZPE       0.000 [kcal/mol]        0.000 [kJ/mol]       0.00000000 [Eh]
    Rotational ZPE          0.000 [kcal/mol]        0.000 [kJ/mol]       0.00000000 [Eh]
    Vibrational ZPE         4.266 [kcal/mol]       17.848 [kJ/mol]       0.00679802 [Eh]        1491.994 [cm^-1]
  Correction ZPE            4.266 [kcal/mol]       17.848 [kJ/mol]       0.00679802 [Eh]        1491.994 [cm^-1]
  Total ZPE, Electronic energy at 0 [K]                               -460.77751254 [Eh]

  Thermal Energy, E (includes ZPE)
    Electronic E            0.000 [kcal/mol]        0.000 [kJ/mol]       0.00000000 [Eh]
    Translational E         0.889 [kcal/mol]        3.718 [kJ/mol]       0.00141628 [Eh]
    Rotational E            0.592 [kcal/mol]        2.479 [kJ/mol]       0.00094418 [Eh]
    Vibrational E           4.266 [kcal/mol]       17.848 [kJ/mol]       0.00679803 [Eh]
  Correction E              5.747 [kcal/mol]       24.046 [kJ/mol]       0.00915849 [Eh]
  Total E, Electronic energy at  298.15 [K]                           -460.77515207 [Eh]

  Enthalpy, H_trans = E_trans + k_B * T
    Electronic H            0.000 [kcal/mol]        0.000 [kJ/mol]       0.00000000 [Eh]
    Translational H         1.481 [kcal/mol]        6.197 [kJ/mol]       0.00236046 [Eh]
    Rotational H            0.592 [kcal/mol]        2.479 [kJ/mol]       0.00094418 [Eh]
    Vibrational H           4.266 [kcal/mol]       17.848 [kJ/mol]       0.00679803 [Eh]
  Correction H              6.340 [kcal/mol]       26.525 [kJ/mol]       0.01010268 [Eh]
  Total H, Enthalpy at  298.15 [K]                                    -460.77420789 [Eh]

  Gibbs free energy, G = H - T * S
    Electronic G            0.000 [kcal/mol]        0.000 [kJ/mol]       0.00000000 [Eh]
    Translational G        -9.452 [kcal/mol]      -39.548 [kJ/mol]      -0.01506298 [Eh]
    Rotational G           -1.773 [kcal/mol]       -7.416 [kJ/mol]      -0.00282478 [Eh]
    Vibrational G           4.266 [kcal/mol]       17.848 [kJ/mol]       0.00679802 [Eh]
  Correction G             -6.959 [kcal/mol]      -29.116 [kJ/mol]      -0.01108974 [Eh]
  Total G, Free enthalpy at  298.15 [K]                               -460.79540030 [Eh]

    Psi4 stopped on: Tuesday, 27 April 2021 05:59PM
    Psi4 wall time for execution: 0:00:28.77

*** Psi4 exiting successfully. Buy a developer a beer!
