
    -----------------------------------------------------------------------
          Psi4: An Open-Source Ab Initio Electronic Structure Package
                               Psi4 1.3.2 release

                         Git: Rev {HEAD} ecbda83 


    R. M. Parrish, L. A. Burns, D. G. A. Smith, A. C. Simmonett,
    A. E. DePrince III, E. G. Hohenstein, U. Bozkaya, A. Yu. Sokolov,
    R. Di Remigio, R. M. Richard, J. F. Gonthier, A. M. James,
    H. R. McAlexander, A. Kumar, M. Saitow, X. Wang, B. P. Pritchard,
    P. Verma, H. F. Schaefer III, K. Patkowski, R. A. King, E. F. Valeev,
    F. A. Evangelista, J. M. Turney, T. D. Crawford, and C. D. Sherrill,
    J. Chem. Theory Comput. 13(7) pp 3185--3197 (2017).
    (doi: 10.1021/acs.jctc.7b00174)


                         Additional Contributions by
    P. Kraus, H. Kruse, M. H. Lechner, M. C. Schieber, R. A. Shaw,
    A. Alenaizan, R. Galvelis, Z. L. Glick, S. Lehtola, and J. P. Misiewicz

    -----------------------------------------------------------------------


    Psi4 started on: Tuesday, 27 April 2021 05:57PM

    Process ID: 173939
    Host:       bp1-compute00139.data.bp.acrc.priv
    PSIDATADIR: /work/zw18965/.conda/envs/p4env/share/psi4
    Memory:     500.0 MiB
    Threads:    24
    
  ==> Input File <==

--------------------------------------------------------------------------
memory 144 GB

molecule {
0 1
H 0.0000000000 0.0000000000 0.0000000000
C 0.0000000000 0.0000000000 1.0668000000
N 0.0000000000 0.0000000000 2.2232000000
}

set dynamic_level 1
set basis aug-cc-pV(D+d)Z
 
optimize("wB97M-V")
frequencies("wB97M-V")
--------------------------------------------------------------------------

  Memory set to 134.110 GiB by Python driver.
gradient() will perform gradient computation by finite difference of analytic energies.

         ----------------------------------------------------------
                                   FINDIF
                     R. A. King and Jonathon Misiewicz
         ---------------------------------------------------------

  Using finite-differences of energies to determine gradients.
    Generating geometries for use with 3-point formula.
    Displacement size will be 5.00e-03.
    Number of atoms is 3.
    Number of symmetric SALCs is 2.
    Translations projected? 1. Rotations projected? 1.
    Number of geometries (including reference) is 5.

  //>>>>>>>>>>>>>>>>>>>>>>>>>>>>>>>>>>>//
  //    Loading displacement 1 of 5    //
  //<<<<<<<<<<<<<<<<<<<<<<<<<<<<<<<<<<<//

*** tstart() called on bp1-compute00139.data.bp.acrc.priv
*** at Tue Apr 27 17:57:57 2021

   => Loading Basis Set <=

    Name: AUG-CC-PV(D+D)Z
    Role: ORBITAL
    Keyword: BASIS
    atoms 1 entry H          line    56 file /work/zw18965/.conda/envs/p4env/share/psi4/basis/aug-cc-pv_dpd_z.gbs 
    atoms 2 entry C          line   198 file /work/zw18965/.conda/envs/p4env/share/psi4/basis/aug-cc-pv_dpd_z.gbs 
    atoms 3 entry N          line   234 file /work/zw18965/.conda/envs/p4env/share/psi4/basis/aug-cc-pv_dpd_z.gbs 


         ---------------------------------------------------------
                                   SCF
               by Justin Turney, Rob Parrish, Andy Simmonett
                          and Daniel G. A. Smith
                              RKS Reference
                       24 Threads, 137329 MiB Core
         ---------------------------------------------------------

  ==> Geometry <==

    Molecular point group: c2v
    Full point group: C_inf_v

    Geometry (in Angstrom), charge = 0, multiplicity = 1:

       Center              X                  Y                   Z               Mass       
    ------------   -----------------  -----------------  -----------------  -----------------
         H            0.000000000000     0.000000000000    -1.626500253361     1.007825032230
         C            0.000000000000     0.000000000000    -0.559700253361    12.000000000000
         N            0.000000000000     0.000000000000     0.596699746639    14.003074004430

  Running in c2v symmetry.

  Rotational constants: A = ************  B =      1.47729  C =      1.47729 [cm^-1]
  Rotational constants: A = ************  B =  44288.06083  C =  44288.06083 [MHz]
  Nuclear repulsion =   23.861936158778459

  Charge       = 0
  Multiplicity = 1
  Electrons    = 14
  Nalpha       = 7
  Nbeta        = 7

  ==> Algorithm <==

  SCF Algorithm Type is DF.
  DIIS enabled.
  MOM disabled.
  Fractional occupation disabled.
  Guess Type is SAD.
  Energy threshold   = 1.00e-08
  Density threshold  = 1.00e-08
  Integral threshold = 0.00e+00

  ==> Primary Basis <==

  Basis Set: AUG-CC-PV(D+D)Z
    Blend: AUG-CC-PV(D+D)Z
    Number of shells: 23
    Number of basis function: 55
    Number of Cartesian functions: 59
    Spherical Harmonics?: true
    Max angular momentum: 2

  ==> DFT Potential <==

   => Composite Functional: WB97M-V <= 

    wB97M-V Hyb-GGA Exchange-Correlation Functional

    N. Mardirossian and M. Head-Gordon, J. Chem. Phys. 144, 214110 (2016)

    Deriv               =              1
    GGA                 =           TRUE
    Meta                =           TRUE

    Exchange Hybrid     =           TRUE
    MP2 Hybrid          =          FALSE

   => Exchange-Correlation Functionals <=

    1.0000   wB97M-V exchange-correlation functional

   => Exact (HF) Exchange <=

    0.8500            HF,LR [omega = 0.3000]
    0.1500               HF 

   => VV10 Non-Local Parameters <=

    VV10 B              =     6.0000E+00
    VV10 C              =     1.0000E-02

   => Molecular Quadrature <=

    Radial Scheme          =       TREUTLER
    Pruning Scheme         =           FLAT
    Nuclear Scheme         =       TREUTLER

    BS radius alpha        =              1
    Pruning alpha          =              1
    Radial Points          =             75
    Spherical Points       =            302
    Total Points           =          67950
    Total Blocks           =            583
    Max Points             =            256
    Max Functions          =             55

   => Loading Basis Set <=

    Name: (AUG-CC-PV(D+D)Z AUX)
    Role: JKFIT
    Keyword: DF_BASIS_SCF
    atoms 1 entry H          line    70 file /work/zw18965/.conda/envs/p4env/share/psi4/basis/aug-cc-pvdz-jkfit.gbs 
    atoms 2 entry C          line   154 file /work/zw18965/.conda/envs/p4env/share/psi4/basis/aug-cc-pvdz-jkfit.gbs 
    atoms 3 entry N          line   212 file /work/zw18965/.conda/envs/p4env/share/psi4/basis/aug-cc-pvdz-jkfit.gbs 

  ==> Pre-Iterations <==

   -------------------------------------------------------
    Irrep   Nso     Nmo     Nalpha   Nbeta   Ndocc  Nsocc
   -------------------------------------------------------
     A1        27      27       0       0       0       0
     A2         4       4       0       0       0       0
     B1        12      12       0       0       0       0
     B2        12      12       0       0       0       0
   -------------------------------------------------------
    Total      55      55       7       7       7       0
   -------------------------------------------------------

  ==> Integral Setup <==

  ==> DiskDFJK: Density-Fitted J/K Matrices <==

    J tasked:                  Yes
    K tasked:                  Yes
    wK tasked:                 Yes
    Omega:               3.000E-01
    OpenMP threads:             24
    Integrals threads:          24
    Memory [MiB]:           102725
    Algorithm:                Core
    Integral Cache:           NONE
    Schwarz Cutoff:          1E-12
    Fitting Condition:       1E-10

   => Auxiliary Basis Set <=

  Basis Set: (AUG-CC-PV(D+D)Z AUX)
    Blend: AUG-CC-PVDZ-JKFIT
    Number of shells: 68
    Number of basis function: 204
    Number of Cartesian functions: 237
    Spherical Harmonics?: true
    Max angular momentum: 3

  Cached 100.0% of DFT collocation blocks in 0.265 [GiB].

  Minimum eigenvalue in the overlap matrix is 6.4741262338E-04.
  Using Symmetric Orthogonalization.

  SCF Guess: Superposition of Atomic Densities via on-the-fly atomic UHF.

  ==> Iterations <==

                           Total Energy        Delta E     RMS |[F,P]|

   @DF-RKS iter SAD:   -92.56578284797742   -9.25658e+01   0.00000e+00 
   @DF-RKS iter   1:   -93.32176476712542   -7.55982e-01   1.32616e-02 DIIS
   @DF-RKS iter   2:   -93.28541971274444    3.63451e-02   1.63150e-02 DIIS
   @DF-RKS iter   3:   -93.40399209263101   -1.18572e-01   2.13222e-03 DIIS
   @DF-RKS iter   4:   -93.40622327414549   -2.23118e-03   2.78788e-04 DIIS
   @DF-RKS iter   5:   -93.40625997137580   -3.66972e-05   4.48631e-05 DIIS
   @DF-RKS iter   6:   -93.40626117702368   -1.20565e-06   7.51431e-06 DIIS
   @DF-RKS iter   7:   -93.40626122843580   -5.14121e-08   7.11838e-07 DIIS
   @DF-RKS iter   8:   -93.40626122936141   -9.25610e-10   1.02064e-07 DIIS
   @DF-RKS iter   9:   -93.40626122937219   -1.07860e-11   1.06041e-08 DIIS
   @DF-RKS iter  10:   -93.40626122937230   -1.13687e-13   1.28205e-09 DIIS
  Energy and wave function converged.


  ==> Post-Iterations <==

    Orbital Energies [Eh]
    ---------------------

    Doubly Occupied:                                                      

       1A1   -14.555545     2A1   -10.420433     3A1    -1.054519  
       4A1    -0.721440     5A1    -0.498932     1B1    -0.469542  
       1B2    -0.469542  

    Virtual:                                                              

       6A1     0.013056     2B2     0.054359     2B1     0.054359  
       7A1     0.056900     3B2     0.108469     3B1     0.108469  
       8A1     0.134916     9A1     0.146516     4B1     0.193746  
       4B2     0.193746    10A1     0.223028    11A1     0.300126  
       5B2     0.363640     5B1     0.363640    12A1     0.383021  
       1A2     0.383021    13A1     0.451474    14A1     0.506080  
       6B2     0.582202     6B1     0.582202    15A1     0.676948  
       7B2     0.734583     7B1     0.734583     2A2     0.741092  
      16A1     0.741092    17A1     0.784067     8B1     0.872626  
       8B2     0.872626    18A1     0.961681    19A1     1.125797  
      20A1     1.359944     9B2     1.429660     9B1     1.429660  
       3A2     1.481243    21A1     1.481244    10B2     1.495938  
      10B1     1.495938    22A1     1.732205    11B2     2.036408  
      11B1     2.036408    23A1     2.156655    24A1     2.361225  
       4A2     2.361225    25A1     2.400549    12B2     2.723914  
      12B1     2.723914    26A1     3.148713    27A1     3.405264  

    Final Occupation by Irrep:
             A1    A2    B1    B2 
    DOCC [     5,    0,    1,    1 ]

  @DF-RKS Final Energy:   -93.40626122937230

   => Energetics <=

    Nuclear Repulsion Energy =             23.8619361587784589
    One-Electron Energy =                -172.5607569248954292
    Two-Electron Energy =                  64.1770493179440109
    DFT Exchange-Correlation Energy =      -8.9428732576635674
    Empirical Dispersion Energy =           0.0000000000000000
    VV10 Nonlocal Energy =                  0.0583834764642133
    Total Energy =                        -93.4062612293723049

Computation Completed


Properties will be evaluated at   0.000000,   0.000000,   0.000000 [a0]

Properties computed using the SCF density matrix

  Nuclear Dipole Moment: [e a0]
     X:     0.0000      Y:     0.0000      Z:    -1.5265

  Electronic Dipole Moment: [e a0]
     X:     0.0000      Y:     0.0000      Z:     0.3175

  Dipole Moment: [e a0]
     X:     0.0000      Y:     0.0000      Z:    -1.2090     Total:     1.2090

  Dipole Moment: [D]
     X:     0.0000      Y:     0.0000      Z:    -3.0730     Total:     3.0730


*** tstop() called on bp1-compute00139.data.bp.acrc.priv at Tue Apr 27 17:58:00 2021
Module time:
	user time   =      68.87 seconds =       1.15 minutes
	system time =       3.33 seconds =       0.06 minutes
	total time  =          3 seconds =       0.05 minutes
Total time:
	user time   =      68.87 seconds =       1.15 minutes
	system time =       3.33 seconds =       0.06 minutes
	total time  =          3 seconds =       0.05 minutes

  //>>>>>>>>>>>>>>>>>>>>>>>>>>>>>>>>>>>//
  //    Loading displacement 2 of 5    //
  //<<<<<<<<<<<<<<<<<<<<<<<<<<<<<<<<<<<//

*** tstart() called on bp1-compute00139.data.bp.acrc.priv
*** at Tue Apr 27 17:58:00 2021

   => Loading Basis Set <=

    Name: AUG-CC-PV(D+D)Z
    Role: ORBITAL
    Keyword: BASIS
    atoms 1 entry H          line    56 file /work/zw18965/.conda/envs/p4env/share/psi4/basis/aug-cc-pv_dpd_z.gbs 
    atoms 2 entry C          line   198 file /work/zw18965/.conda/envs/p4env/share/psi4/basis/aug-cc-pv_dpd_z.gbs 
    atoms 3 entry N          line   234 file /work/zw18965/.conda/envs/p4env/share/psi4/basis/aug-cc-pv_dpd_z.gbs 


         ---------------------------------------------------------
                                   SCF
               by Justin Turney, Rob Parrish, Andy Simmonett
                          and Daniel G. A. Smith
                              RKS Reference
                       24 Threads, 137329 MiB Core
         ---------------------------------------------------------

  ==> Geometry <==

    Molecular point group: c2v
    Full point group: C_inf_v

    Geometry (in Angstrom), charge = 0, multiplicity = 1:

       Center              X                  Y                   Z               Mass       
    ------------   -----------------  -----------------  -----------------  -----------------
         H            0.000000000000     0.000000000000    -1.629086210919     1.007825032230
         C            0.000000000000     0.000000000000    -0.559600027028    12.000000000000
         N            0.000000000000     0.000000000000     0.596799972972    14.003074004430

  Running in c2v symmetry.

  Rotational constants: A = ************  B =      1.47615  C =      1.47615 [cm^-1]
  Rotational constants: A = ************  B =  44253.88092  C =  44253.88092 [MHz]
  Nuclear repulsion =   23.852450107742836

  Charge       = 0
  Multiplicity = 1
  Electrons    = 14
  Nalpha       = 7
  Nbeta        = 7

  ==> Algorithm <==

  SCF Algorithm Type is DF.
  DIIS enabled.
  MOM disabled.
  Fractional occupation disabled.
  Guess Type is SAD.
  Energy threshold   = 1.00e-08
  Density threshold  = 1.00e-08
  Integral threshold = 0.00e+00

  ==> Primary Basis <==

  Basis Set: AUG-CC-PV(D+D)Z
    Blend: AUG-CC-PV(D+D)Z
    Number of shells: 23
    Number of basis function: 55
    Number of Cartesian functions: 59
    Spherical Harmonics?: true
    Max angular momentum: 2

  ==> DFT Potential <==

   => Composite Functional: WB97M-V <= 

    wB97M-V Hyb-GGA Exchange-Correlation Functional

    N. Mardirossian and M. Head-Gordon, J. Chem. Phys. 144, 214110 (2016)

    Deriv               =              1
    GGA                 =           TRUE
    Meta                =           TRUE

    Exchange Hybrid     =           TRUE
    MP2 Hybrid          =          FALSE

   => Exchange-Correlation Functionals <=

    1.0000   wB97M-V exchange-correlation functional

   => Exact (HF) Exchange <=

    0.8500            HF,LR [omega = 0.3000]
    0.1500               HF 

   => VV10 Non-Local Parameters <=

    VV10 B              =     6.0000E+00
    VV10 C              =     1.0000E-02

   => Molecular Quadrature <=

    Radial Scheme          =       TREUTLER
    Pruning Scheme         =           FLAT
    Nuclear Scheme         =       TREUTLER

    BS radius alpha        =              1
    Pruning alpha          =              1
    Radial Points          =             75
    Spherical Points       =            302
    Total Points           =          67950
    Total Blocks           =            580
    Max Points             =            255
    Max Functions          =             55

   => Loading Basis Set <=

    Name: (AUG-CC-PV(D+D)Z AUX)
    Role: JKFIT
    Keyword: DF_BASIS_SCF
    atoms 1 entry H          line    70 file /work/zw18965/.conda/envs/p4env/share/psi4/basis/aug-cc-pvdz-jkfit.gbs 
    atoms 2 entry C          line   154 file /work/zw18965/.conda/envs/p4env/share/psi4/basis/aug-cc-pvdz-jkfit.gbs 
    atoms 3 entry N          line   212 file /work/zw18965/.conda/envs/p4env/share/psi4/basis/aug-cc-pvdz-jkfit.gbs 

  ==> Pre-Iterations <==

   -------------------------------------------------------
    Irrep   Nso     Nmo     Nalpha   Nbeta   Ndocc  Nsocc
   -------------------------------------------------------
     A1        27      27       0       0       0       0
     A2         4       4       0       0       0       0
     B1        12      12       0       0       0       0
     B2        12      12       0       0       0       0
   -------------------------------------------------------
    Total      55      55       7       7       7       0
   -------------------------------------------------------

  ==> Integral Setup <==

  ==> DiskDFJK: Density-Fitted J/K Matrices <==

    J tasked:                  Yes
    K tasked:                  Yes
    wK tasked:                 Yes
    Omega:               3.000E-01
    OpenMP threads:             24
    Integrals threads:          24
    Memory [MiB]:           102725
    Algorithm:                Core
    Integral Cache:           NONE
    Schwarz Cutoff:          1E-12
    Fitting Condition:       1E-10

   => Auxiliary Basis Set <=

  Basis Set: (AUG-CC-PV(D+D)Z AUX)
    Blend: AUG-CC-PVDZ-JKFIT
    Number of shells: 68
    Number of basis function: 204
    Number of Cartesian functions: 237
    Spherical Harmonics?: true
    Max angular momentum: 3

  Cached 100.0% of DFT collocation blocks in 0.265 [GiB].

  Minimum eigenvalue in the overlap matrix is 6.4911465684E-04.
  Using Symmetric Orthogonalization.

  SCF Guess: Superposition of Atomic Densities via on-the-fly atomic UHF.

  ==> Iterations <==

                           Total Energy        Delta E     RMS |[F,P]|

   @DF-RKS iter SAD:   -92.56526007827028   -9.25653e+01   0.00000e+00 
   @DF-RKS iter   1:   -93.32146896716742   -7.56209e-01   1.32858e-02 DIIS
   @DF-RKS iter   2:   -93.28471843547874    3.67505e-02   1.63615e-02 DIIS
   @DF-RKS iter   3:   -93.40401739719785   -1.19299e-01   2.13005e-03 DIIS
   @DF-RKS iter   4:   -93.40624559757883   -2.22820e-03   2.79520e-04 DIIS
   @DF-RKS iter   5:   -93.40628249287950   -3.68953e-05   4.49859e-05 DIIS
   @DF-RKS iter   6:   -93.40628370530243   -1.21242e-06   7.55278e-06 DIIS
   @DF-RKS iter   7:   -93.40628375720652   -5.19041e-08   7.15271e-07 DIIS
   @DF-RKS iter   8:   -93.40628375814150   -9.34975e-10   1.02513e-07 DIIS
   @DF-RKS iter   9:   -93.40628375815245   -1.09566e-11   1.06503e-08 DIIS
   @DF-RKS iter  10:   -93.40628375815255   -9.94760e-14   1.28944e-09 DIIS
  Energy and wave function converged.


  ==> Post-Iterations <==

    Orbital Energies [Eh]
    ---------------------

    Doubly Occupied:                                                      

       1A1   -14.555507     2A1   -10.420602     3A1    -1.054488  
       4A1    -0.720639     5A1    -0.498875     1B2    -0.469501  
       1B1    -0.469501  

    Virtual:                                                              

       6A1     0.013023     2B1     0.054353     2B2     0.054353  
       7A1     0.056830     3B2     0.108516     3B1     0.108516  
       8A1     0.134891     9A1     0.146291     4B1     0.193766  
       4B2     0.193766    10A1     0.222576    11A1     0.299908  
       5B1     0.363408     5B2     0.363408    12A1     0.383042  
       1A2     0.383042    13A1     0.451627    14A1     0.505456  
       6B1     0.582323     6B2     0.582323    15A1     0.676991  
       7B1     0.734133     7B2     0.734133     2A2     0.741118  
      16A1     0.741119    17A1     0.784100     8B2     0.872679  
       8B1     0.872679    18A1     0.960531    19A1     1.125824  
      20A1     1.359481     9B1     1.429192     9B2     1.429192  
       3A2     1.481295    21A1     1.481296    10B2     1.495935  
      10B1     1.495935    22A1     1.732346    11B1     2.034931  
      11B2     2.034931    23A1     2.154778    24A1     2.361265  
       4A2     2.361265    25A1     2.395824    12B2     2.722758  
      12B1     2.722758    26A1     3.148795    27A1     3.400762  

    Final Occupation by Irrep:
             A1    A2    B1    B2 
    DOCC [     5,    0,    1,    1 ]

  @DF-RKS Final Energy:   -93.40628375815255

   => Energetics <=

    Nuclear Repulsion Energy =             23.8524501077428361
    One-Electron Energy =                -172.5439786894618805
    Two-Electron Energy =                  64.1689584263685333
    DFT Exchange-Correlation Energy =      -8.9420957567438109
    Empirical Dispersion Energy =           0.0000000000000000
    VV10 Nonlocal Energy =                  0.0583821539417737
    Total Energy =                        -93.4062837581525400

Computation Completed


Properties will be evaluated at   0.000000,   0.000000,   0.000000 [a0]

Properties computed using the SCF density matrix

  Nuclear Dipole Moment: [e a0]
     X:     0.0000      Y:     0.0000      Z:    -1.5290

  Electronic Dipole Moment: [e a0]
     X:     0.0000      Y:     0.0000      Z:     0.3186

  Dipole Moment: [e a0]
     X:     0.0000      Y:     0.0000      Z:    -1.2103     Total:     1.2103

  Dipole Moment: [D]
     X:     0.0000      Y:     0.0000      Z:    -3.0764     Total:     3.0764


*** tstop() called on bp1-compute00139.data.bp.acrc.priv at Tue Apr 27 17:58:03 2021
Module time:
	user time   =      67.96 seconds =       1.13 minutes
	system time =       2.65 seconds =       0.04 minutes
	total time  =          3 seconds =       0.05 minutes
Total time:
	user time   =     137.03 seconds =       2.28 minutes
	system time =       6.00 seconds =       0.10 minutes
	total time  =          6 seconds =       0.10 minutes

  //>>>>>>>>>>>>>>>>>>>>>>>>>>>>>>>>>>>//
  //    Loading displacement 3 of 5    //
  //<<<<<<<<<<<<<<<<<<<<<<<<<<<<<<<<<<<//

*** tstart() called on bp1-compute00139.data.bp.acrc.priv
*** at Tue Apr 27 17:58:03 2021

   => Loading Basis Set <=

    Name: AUG-CC-PV(D+D)Z
    Role: ORBITAL
    Keyword: BASIS
    atoms 1 entry H          line    56 file /work/zw18965/.conda/envs/p4env/share/psi4/basis/aug-cc-pv_dpd_z.gbs 
    atoms 2 entry C          line   198 file /work/zw18965/.conda/envs/p4env/share/psi4/basis/aug-cc-pv_dpd_z.gbs 
    atoms 3 entry N          line   234 file /work/zw18965/.conda/envs/p4env/share/psi4/basis/aug-cc-pv_dpd_z.gbs 


         ---------------------------------------------------------
                                   SCF
               by Justin Turney, Rob Parrish, Andy Simmonett
                          and Daniel G. A. Smith
                              RKS Reference
                       24 Threads, 137329 MiB Core
         ---------------------------------------------------------

  ==> Geometry <==

    Molecular point group: c2v
    Full point group: C_inf_v

    Geometry (in Angstrom), charge = 0, multiplicity = 1:

       Center              X                  Y                   Z               Mass       
    ------------   -----------------  -----------------  -----------------  -----------------
         H            0.000000000000     0.000000000000    -1.623914295803     1.007825032230
         C            0.000000000000     0.000000000000    -0.559800479695    12.000000000000
         N            0.000000000000     0.000000000000     0.596599520305    14.003074004430

  Running in c2v symmetry.

  Rotational constants: A = ************  B =      1.47843  C =      1.47843 [cm^-1]
  Rotational constants: A = ************  B =  44322.23916  C =  44322.23916 [MHz]
  Nuclear repulsion =   23.871464815116820

  Charge       = 0
  Multiplicity = 1
  Electrons    = 14
  Nalpha       = 7
  Nbeta        = 7

  ==> Algorithm <==

  SCF Algorithm Type is DF.
  DIIS enabled.
  MOM disabled.
  Fractional occupation disabled.
  Guess Type is SAD.
  Energy threshold   = 1.00e-08
  Density threshold  = 1.00e-08
  Integral threshold = 0.00e+00

  ==> Primary Basis <==

  Basis Set: AUG-CC-PV(D+D)Z
    Blend: AUG-CC-PV(D+D)Z
    Number of shells: 23
    Number of basis function: 55
    Number of Cartesian functions: 59
    Spherical Harmonics?: true
    Max angular momentum: 2

  ==> DFT Potential <==

   => Composite Functional: WB97M-V <= 

    wB97M-V Hyb-GGA Exchange-Correlation Functional

    N. Mardirossian and M. Head-Gordon, J. Chem. Phys. 144, 214110 (2016)

    Deriv               =              1
    GGA                 =           TRUE
    Meta                =           TRUE

    Exchange Hybrid     =           TRUE
    MP2 Hybrid          =          FALSE

   => Exchange-Correlation Functionals <=

    1.0000   wB97M-V exchange-correlation functional

   => Exact (HF) Exchange <=

    0.8500            HF,LR [omega = 0.3000]
    0.1500               HF 

   => VV10 Non-Local Parameters <=

    VV10 B              =     6.0000E+00
    VV10 C              =     1.0000E-02

   => Molecular Quadrature <=

    Radial Scheme          =       TREUTLER
    Pruning Scheme         =           FLAT
    Nuclear Scheme         =       TREUTLER

    BS radius alpha        =              1
    Pruning alpha          =              1
    Radial Points          =             75
    Spherical Points       =            302
    Total Points           =          67950
    Total Blocks           =            582
    Max Points             =            256
    Max Functions          =             55

   => Loading Basis Set <=

    Name: (AUG-CC-PV(D+D)Z AUX)
    Role: JKFIT
    Keyword: DF_BASIS_SCF
    atoms 1 entry H          line    70 file /work/zw18965/.conda/envs/p4env/share/psi4/basis/aug-cc-pvdz-jkfit.gbs 
    atoms 2 entry C          line   154 file /work/zw18965/.conda/envs/p4env/share/psi4/basis/aug-cc-pvdz-jkfit.gbs 
    atoms 3 entry N          line   212 file /work/zw18965/.conda/envs/p4env/share/psi4/basis/aug-cc-pvdz-jkfit.gbs 

  ==> Pre-Iterations <==

   -------------------------------------------------------
    Irrep   Nso     Nmo     Nalpha   Nbeta   Ndocc  Nsocc
   -------------------------------------------------------
     A1        27      27       0       0       0       0
     A2         4       4       0       0       0       0
     B1        12      12       0       0       0       0
     B2        12      12       0       0       0       0
   -------------------------------------------------------
    Total      55      55       7       7       7       0
   -------------------------------------------------------

  ==> Integral Setup <==

  ==> DiskDFJK: Density-Fitted J/K Matrices <==

    J tasked:                  Yes
    K tasked:                  Yes
    wK tasked:                 Yes
    Omega:               3.000E-01
    OpenMP threads:             24
    Integrals threads:          24
    Memory [MiB]:           102725
    Algorithm:                Core
    Integral Cache:           NONE
    Schwarz Cutoff:          1E-12
    Fitting Condition:       1E-10

   => Auxiliary Basis Set <=

  Basis Set: (AUG-CC-PV(D+D)Z AUX)
    Blend: AUG-CC-PVDZ-JKFIT
    Number of shells: 68
    Number of basis function: 204
    Number of Cartesian functions: 237
    Spherical Harmonics?: true
    Max angular momentum: 3

  Cached 100.0% of DFT collocation blocks in 0.265 [GiB].

  Minimum eigenvalue in the overlap matrix is 6.4563366462E-04.
  Using Symmetric Orthogonalization.

  SCF Guess: Superposition of Atomic Densities via on-the-fly atomic UHF.

  ==> Iterations <==

                           Total Energy        Delta E     RMS |[F,P]|

   @DF-RKS iter SAD:   -92.56629786144501   -9.25663e+01   0.00000e+00 
   @DF-RKS iter   1:   -93.32205039557229   -7.55753e-01   1.32373e-02 DIIS
   @DF-RKS iter   2:   -93.28611306401895    3.59373e-02   1.62681e-02 DIIS
   @DF-RKS iter   3:   -93.40395580805416   -1.17843e-01   2.13446e-03 DIIS
   @DF-RKS iter   4:   -93.40619012718400   -2.23432e-03   2.78058e-04 DIIS
   @DF-RKS iter   5:   -93.40622662873074   -3.65015e-05   4.47402e-05 DIIS
   @DF-RKS iter   6:   -93.40622782770515   -1.19897e-06   7.47583e-06 DIIS
   @DF-RKS iter   7:   -93.40622787862418   -5.09190e-08   7.08447e-07 DIIS
   @DF-RKS iter   8:   -93.40622787954059   -9.16415e-10   1.01622e-07 DIIS
   @DF-RKS iter   9:   -93.40622787955124   -1.06439e-11   1.05589e-08 DIIS
   @DF-RKS iter  10:   -93.40622787955144   -1.98952e-13   1.27479e-09 DIIS
  Energy and wave function converged.


  ==> Post-Iterations <==

    Orbital Energies [Eh]
    ---------------------

    Doubly Occupied:                                                      

       1A1   -14.555583     2A1   -10.420263     3A1    -1.054550  
       4A1    -0.722243     5A1    -0.498989     1B1    -0.469583  
       1B2    -0.469583  

    Virtual:                                                              

       6A1     0.013087     2B1     0.054366     2B2     0.054366  
       7A1     0.056970     3B1     0.108421     3B2     0.108421  
       8A1     0.134938     9A1     0.146738     4B2     0.193725  
       4B1     0.193725    10A1     0.223483    11A1     0.300347  
       5B2     0.363871     5B1     0.363871    12A1     0.383000  
       1A2     0.383001    13A1     0.451321    14A1     0.506704  
       6B1     0.582080     6B2     0.582080    15A1     0.676906  
       7B2     0.735034     7B1     0.735034     2A2     0.741066  
      16A1     0.741066    17A1     0.784035     8B2     0.872573  
       8B1     0.872573    18A1     0.962833    19A1     1.125772  
      20A1     1.360408     9B1     1.430131     9B2     1.430131  
       3A2     1.481191    21A1     1.481192    10B1     1.495944  
      10B2     1.495944    22A1     1.732063    11B1     2.037886  
      11B2     2.037886    23A1     2.158494    24A1     2.361185  
       4A2     2.361186    25A1     2.405362    12B2     2.725077  
      12B1     2.725077    26A1     3.148629    27A1     3.409817  

    Final Occupation by Irrep:
             A1    A2    B1    B2 
    DOCC [     5,    0,    1,    1 ]

  @DF-RKS Final Energy:   -93.40622787955144

   => Energetics <=

    Nuclear Repulsion Energy =             23.8714648151168198
    One-Electron Energy =                -172.5775930046516180
    Two-Electron Energy =                  64.1851699845743582
    DFT Exchange-Correlation Energy =      -8.9436544790416459
    Empirical Dispersion Energy =           0.0000000000000000
    VV10 Nonlocal Energy =                  0.0583848044506606
    Total Energy =                        -93.4062278795514374

Computation Completed


Properties will be evaluated at   0.000000,   0.000000,   0.000000 [a0]

Properties computed using the SCF density matrix

  Nuclear Dipole Moment: [e a0]
     X:     0.0000      Y:     0.0000      Z:    -1.5241

  Electronic Dipole Moment: [e a0]
     X:     0.0000      Y:     0.0000      Z:     0.3164

  Dipole Moment: [e a0]
     X:     0.0000      Y:     0.0000      Z:    -1.2077     Total:     1.2077

  Dipole Moment: [D]
     X:     0.0000      Y:     0.0000      Z:    -3.0697     Total:     3.0697


*** tstop() called on bp1-compute00139.data.bp.acrc.priv at Tue Apr 27 17:58:06 2021
Module time:
	user time   =      64.72 seconds =       1.08 minutes
	system time =       2.22 seconds =       0.04 minutes
	total time  =          3 seconds =       0.05 minutes
Total time:
	user time   =     201.92 seconds =       3.37 minutes
	system time =       8.23 seconds =       0.14 minutes
	total time  =          9 seconds =       0.15 minutes

  //>>>>>>>>>>>>>>>>>>>>>>>>>>>>>>>>>>>//
  //    Loading displacement 4 of 5    //
  //<<<<<<<<<<<<<<<<<<<<<<<<<<<<<<<<<<<//

*** tstart() called on bp1-compute00139.data.bp.acrc.priv
*** at Tue Apr 27 17:58:06 2021

   => Loading Basis Set <=

    Name: AUG-CC-PV(D+D)Z
    Role: ORBITAL
    Keyword: BASIS
    atoms 1 entry H          line    56 file /work/zw18965/.conda/envs/p4env/share/psi4/basis/aug-cc-pv_dpd_z.gbs 
    atoms 2 entry C          line   198 file /work/zw18965/.conda/envs/p4env/share/psi4/basis/aug-cc-pv_dpd_z.gbs 
    atoms 3 entry N          line   234 file /work/zw18965/.conda/envs/p4env/share/psi4/basis/aug-cc-pv_dpd_z.gbs 


         ---------------------------------------------------------
                                   SCF
               by Justin Turney, Rob Parrish, Andy Simmonett
                          and Daniel G. A. Smith
                              RKS Reference
                       24 Threads, 137329 MiB Core
         ---------------------------------------------------------

  ==> Geometry <==

    Molecular point group: c2v
    Full point group: C_inf_v

    Geometry (in Angstrom), charge = 0, multiplicity = 1:

       Center              X                  Y                   Z               Mass       
    ------------   -----------------  -----------------  -----------------  -----------------
         H            0.000000000000     0.000000000000    -1.626500253361     1.007825032230
         C            0.000000000000     0.000000000000    -0.560260758838    12.000000000000
         N            0.000000000000     0.000000000000     0.597180074437    14.003074004430

  Running in c2v symmetry.

  Rotational constants: A = ************  B =      1.47528  C =      1.47528 [cm^-1]
  Rotational constants: A = ************  B =  44227.74118  C =  44227.74118 [MHz]
  Nuclear repulsion =   23.845857601427369

  Charge       = 0
  Multiplicity = 1
  Electrons    = 14
  Nalpha       = 7
  Nbeta        = 7

  ==> Algorithm <==

  SCF Algorithm Type is DF.
  DIIS enabled.
  MOM disabled.
  Fractional occupation disabled.
  Guess Type is SAD.
  Energy threshold   = 1.00e-08
  Density threshold  = 1.00e-08
  Integral threshold = 0.00e+00

  ==> Primary Basis <==

  Basis Set: AUG-CC-PV(D+D)Z
    Blend: AUG-CC-PV(D+D)Z
    Number of shells: 23
    Number of basis function: 55
    Number of Cartesian functions: 59
    Spherical Harmonics?: true
    Max angular momentum: 2

  ==> DFT Potential <==

   => Composite Functional: WB97M-V <= 

    wB97M-V Hyb-GGA Exchange-Correlation Functional

    N. Mardirossian and M. Head-Gordon, J. Chem. Phys. 144, 214110 (2016)

    Deriv               =              1
    GGA                 =           TRUE
    Meta                =           TRUE

    Exchange Hybrid     =           TRUE
    MP2 Hybrid          =          FALSE

   => Exchange-Correlation Functionals <=

    1.0000   wB97M-V exchange-correlation functional

   => Exact (HF) Exchange <=

    0.8500            HF,LR [omega = 0.3000]
    0.1500               HF 

   => VV10 Non-Local Parameters <=

    VV10 B              =     6.0000E+00
    VV10 C              =     1.0000E-02

   => Molecular Quadrature <=

    Radial Scheme          =       TREUTLER
    Pruning Scheme         =           FLAT
    Nuclear Scheme         =       TREUTLER

    BS radius alpha        =              1
    Pruning alpha          =              1
    Radial Points          =             75
    Spherical Points       =            302
    Total Points           =          67950
    Total Blocks           =            581
    Max Points             =            256
    Max Functions          =             55

   => Loading Basis Set <=

    Name: (AUG-CC-PV(D+D)Z AUX)
    Role: JKFIT
    Keyword: DF_BASIS_SCF
    atoms 1 entry H          line    70 file /work/zw18965/.conda/envs/p4env/share/psi4/basis/aug-cc-pvdz-jkfit.gbs 
    atoms 2 entry C          line   154 file /work/zw18965/.conda/envs/p4env/share/psi4/basis/aug-cc-pvdz-jkfit.gbs 
    atoms 3 entry N          line   212 file /work/zw18965/.conda/envs/p4env/share/psi4/basis/aug-cc-pvdz-jkfit.gbs 

  ==> Pre-Iterations <==

   -------------------------------------------------------
    Irrep   Nso     Nmo     Nalpha   Nbeta   Ndocc  Nsocc
   -------------------------------------------------------
     A1        27      27       0       0       0       0
     A2         4       4       0       0       0       0
     B1        12      12       0       0       0       0
     B2        12      12       0       0       0       0
   -------------------------------------------------------
    Total      55      55       7       7       7       0
   -------------------------------------------------------

  ==> Integral Setup <==

  ==> DiskDFJK: Density-Fitted J/K Matrices <==

    J tasked:                  Yes
    K tasked:                  Yes
    wK tasked:                 Yes
    Omega:               3.000E-01
    OpenMP threads:             24
    Integrals threads:          24
    Memory [MiB]:           102725
    Algorithm:                Core
    Integral Cache:           NONE
    Schwarz Cutoff:          1E-12
    Fitting Condition:       1E-10

   => Auxiliary Basis Set <=

  Basis Set: (AUG-CC-PV(D+D)Z AUX)
    Blend: AUG-CC-PVDZ-JKFIT
    Number of shells: 68
    Number of basis function: 204
    Number of Cartesian functions: 237
    Spherical Harmonics?: true
    Max angular momentum: 3

  Cached 100.0% of DFT collocation blocks in 0.265 [GiB].

  Minimum eigenvalue in the overlap matrix is 6.4798657695E-04.
  Using Symmetric Orthogonalization.

  SCF Guess: Superposition of Atomic Densities via on-the-fly atomic UHF.

  ==> Iterations <==

                           Total Energy        Delta E     RMS |[F,P]|

   @DF-RKS iter SAD:   -92.56446360226995   -9.25645e+01   0.00000e+00 
   @DF-RKS iter   1:   -93.32197811251345   -7.57515e-01   1.32414e-02 DIIS
   @DF-RKS iter   2:   -93.28529525240107    3.66829e-02   1.63198e-02 DIIS
   @DF-RKS iter   3:   -93.40397588539579   -1.18681e-01   2.13062e-03 DIIS
   @DF-RKS iter   4:   -93.40620483532956   -2.22895e-03   2.78728e-04 DIIS
   @DF-RKS iter   5:   -93.40624152423943   -3.66889e-05   4.49574e-05 DIIS
   @DF-RKS iter   6:   -93.40624273401859   -1.20978e-06   7.54326e-06 DIIS
   @DF-RKS iter   7:   -93.40624278569808   -5.16795e-08   7.13340e-07 DIIS
   @DF-RKS iter   8:   -93.40624278662682   -9.28736e-10   1.02474e-07 DIIS
   @DF-RKS iter   9:   -93.40624278663769   -1.08713e-11   1.05777e-08 DIIS
   @DF-RKS iter  10:   -93.40624278663783   -1.42109e-13   1.27954e-09 DIIS
  Energy and wave function converged.


  ==> Post-Iterations <==

    Orbital Energies [Eh]
    ---------------------

    Doubly Occupied:                                                      

       1A1   -14.555861     2A1   -10.420690     3A1    -1.054140  
       4A1    -0.721721     5A1    -0.499025     1B2    -0.469314  
       1B1    -0.469314  

    Virtual:                                                              

       6A1     0.013054     2B2     0.054273     2B1     0.054273  
       7A1     0.056892     3B1     0.108272     3B2     0.108272  
       8A1     0.134925     9A1     0.146551     4B2     0.193646  
       4B1     0.193646    10A1     0.223017    11A1     0.300102  
       5B1     0.363611     5B2     0.363611    12A1     0.383007  
       1A2     0.383007    13A1     0.451398    14A1     0.506148  
       6B1     0.582322     6B2     0.582322    15A1     0.676573  
       7B1     0.734553     7B2     0.734553     2A2     0.740954  
      16A1     0.740955    17A1     0.783975     8B2     0.872329  
       8B1     0.872329    18A1     0.961683    19A1     1.124845  
      20A1     1.359835     9B2     1.429558     9B1     1.429558  
       3A2     1.481227    21A1     1.481227    10B2     1.495452  
      10B1     1.495452    22A1     1.731289    11B2     2.036451  
      11B1     2.036451    23A1     2.157080    24A1     2.360961  
       4A2     2.360961    25A1     2.400776    12B2     2.723318  
      12B1     2.723318    26A1     3.147000    27A1     3.403353  

    Final Occupation by Irrep:
             A1    A2    B1    B2 
    DOCC [     5,    0,    1,    1 ]

  @DF-RKS Final Energy:   -93.40624278663783

   => Energetics <=

    Nuclear Repulsion Energy =             23.8458576014273689
    One-Electron Energy =                -172.5287742503411152
    Two-Electron Energy =                  64.1604126638463867
    DFT Exchange-Correlation Energy =      -8.9421220272782218
    Empirical Dispersion Energy =           0.0000000000000000
    VV10 Nonlocal Energy =                  0.0583832257077629
    Total Energy =                        -93.4062427866378329

Computation Completed


Properties will be evaluated at   0.000000,   0.000000,   0.000000 [a0]

Properties computed using the SCF density matrix

  Nuclear Dipole Moment: [e a0]
     X:     0.0000      Y:     0.0000      Z:    -1.5265

  Electronic Dipole Moment: [e a0]
     X:     0.0000      Y:     0.0000      Z:     0.3178

  Dipole Moment: [e a0]
     X:     0.0000      Y:     0.0000      Z:    -1.2088     Total:     1.2088

  Dipole Moment: [D]
     X:     0.0000      Y:     0.0000      Z:    -3.0724     Total:     3.0724


*** tstop() called on bp1-compute00139.data.bp.acrc.priv at Tue Apr 27 17:58:09 2021
Module time:
	user time   =      64.21 seconds =       1.07 minutes
	system time =       2.05 seconds =       0.03 minutes
	total time  =          3 seconds =       0.05 minutes
Total time:
	user time   =     266.27 seconds =       4.44 minutes
	system time =      10.29 seconds =       0.17 minutes
	total time  =         12 seconds =       0.20 minutes

  //>>>>>>>>>>>>>>>>>>>>>>>>>>>>>>>>>>>//
  //    Loading displacement 5 of 5    //
  //<<<<<<<<<<<<<<<<<<<<<<<<<<<<<<<<<<<//

*** tstart() called on bp1-compute00139.data.bp.acrc.priv
*** at Tue Apr 27 17:58:09 2021

   => Loading Basis Set <=

    Name: AUG-CC-PV(D+D)Z
    Role: ORBITAL
    Keyword: BASIS
    atoms 1 entry H          line    56 file /work/zw18965/.conda/envs/p4env/share/psi4/basis/aug-cc-pv_dpd_z.gbs 
    atoms 2 entry C          line   198 file /work/zw18965/.conda/envs/p4env/share/psi4/basis/aug-cc-pv_dpd_z.gbs 
    atoms 3 entry N          line   234 file /work/zw18965/.conda/envs/p4env/share/psi4/basis/aug-cc-pv_dpd_z.gbs 


         ---------------------------------------------------------
                                   SCF
               by Justin Turney, Rob Parrish, Andy Simmonett
                          and Daniel G. A. Smith
                              RKS Reference
                       24 Threads, 137329 MiB Core
         ---------------------------------------------------------

  ==> Geometry <==

    Molecular point group: c2v
    Full point group: C_inf_v

    Geometry (in Angstrom), charge = 0, multiplicity = 1:

       Center              X                  Y                   Z               Mass       
    ------------   -----------------  -----------------  -----------------  -----------------
         H            0.000000000000     0.000000000000    -1.626500253361     1.007825032230
         C            0.000000000000     0.000000000000    -0.559139747885    12.000000000000
         N            0.000000000000     0.000000000000     0.596219418840    14.003074004430

  Running in c2v symmetry.

  Rotational constants: A = ************  B =      1.47931  C =      1.47931 [cm^-1]
  Rotational constants: A = ************  B =  44348.49075  C =  44348.49075 [MHz]
  Nuclear repulsion =   23.878047654907576

  Charge       = 0
  Multiplicity = 1
  Electrons    = 14
  Nalpha       = 7
  Nbeta        = 7

  ==> Algorithm <==

  SCF Algorithm Type is DF.
  DIIS enabled.
  MOM disabled.
  Fractional occupation disabled.
  Guess Type is SAD.
  Energy threshold   = 1.00e-08
  Density threshold  = 1.00e-08
  Integral threshold = 0.00e+00

  ==> Primary Basis <==

  Basis Set: AUG-CC-PV(D+D)Z
    Blend: AUG-CC-PV(D+D)Z
    Number of shells: 23
    Number of basis function: 55
    Number of Cartesian functions: 59
    Spherical Harmonics?: true
    Max angular momentum: 2

  ==> DFT Potential <==

   => Composite Functional: WB97M-V <= 

    wB97M-V Hyb-GGA Exchange-Correlation Functional

    N. Mardirossian and M. Head-Gordon, J. Chem. Phys. 144, 214110 (2016)

    Deriv               =              1
    GGA                 =           TRUE
    Meta                =           TRUE

    Exchange Hybrid     =           TRUE
    MP2 Hybrid          =          FALSE

   => Exchange-Correlation Functionals <=

    1.0000   wB97M-V exchange-correlation functional

   => Exact (HF) Exchange <=

    0.8500            HF,LR [omega = 0.3000]
    0.1500               HF 

   => VV10 Non-Local Parameters <=

    VV10 B              =     6.0000E+00
    VV10 C              =     1.0000E-02

   => Molecular Quadrature <=

    Radial Scheme          =       TREUTLER
    Pruning Scheme         =           FLAT
    Nuclear Scheme         =       TREUTLER

    BS radius alpha        =              1
    Pruning alpha          =              1
    Radial Points          =             75
    Spherical Points       =            302
    Total Points           =          67950
    Total Blocks           =            580
    Max Points             =            256
    Max Functions          =             55

   => Loading Basis Set <=

    Name: (AUG-CC-PV(D+D)Z AUX)
    Role: JKFIT
    Keyword: DF_BASIS_SCF
    atoms 1 entry H          line    70 file /work/zw18965/.conda/envs/p4env/share/psi4/basis/aug-cc-pvdz-jkfit.gbs 
    atoms 2 entry C          line   154 file /work/zw18965/.conda/envs/p4env/share/psi4/basis/aug-cc-pvdz-jkfit.gbs 
    atoms 3 entry N          line   212 file /work/zw18965/.conda/envs/p4env/share/psi4/basis/aug-cc-pvdz-jkfit.gbs 

  ==> Pre-Iterations <==

   -------------------------------------------------------
    Irrep   Nso     Nmo     Nalpha   Nbeta   Ndocc  Nsocc
   -------------------------------------------------------
     A1        27      27       0       0       0       0
     A2         4       4       0       0       0       0
     B1        12      12       0       0       0       0
     B2        12      12       0       0       0       0
   -------------------------------------------------------
    Total      55      55       7       7       7       0
   -------------------------------------------------------

  ==> Integral Setup <==

  ==> DiskDFJK: Density-Fitted J/K Matrices <==

    J tasked:                  Yes
    K tasked:                  Yes
    wK tasked:                 Yes
    Omega:               3.000E-01
    OpenMP threads:             24
    Integrals threads:          24
    Memory [MiB]:           102725
    Algorithm:                Core
    Integral Cache:           NONE
    Schwarz Cutoff:          1E-12
    Fitting Condition:       1E-10

   => Auxiliary Basis Set <=

  Basis Set: (AUG-CC-PV(D+D)Z AUX)
    Blend: AUG-CC-PVDZ-JKFIT
    Number of shells: 68
    Number of basis function: 204
    Number of Cartesian functions: 237
    Spherical Harmonics?: true
    Max angular momentum: 3

  Cached 100.0% of DFT collocation blocks in 0.265 [GiB].

  Minimum eigenvalue in the overlap matrix is 6.4683077189E-04.
  Using Symmetric Orthogonalization.

  SCF Guess: Superposition of Atomic Densities via on-the-fly atomic UHF.

  ==> Iterations <==

                           Total Energy        Delta E     RMS |[F,P]|

   @DF-RKS iter SAD:   -92.56710138787614   -9.25671e+01   0.00000e+00 
   @DF-RKS iter   1:   -93.32154501476616   -7.54444e-01   1.32818e-02 DIIS
   @DF-RKS iter   2:   -93.28553827888021    3.60067e-02   1.63101e-02 DIIS
   @DF-RKS iter   3:   -93.40400274277367   -1.18464e-01   2.13382e-03 DIIS
   @DF-RKS iter   4:   -93.40623613493528   -2.23339e-03   2.78848e-04 DIIS
   @DF-RKS iter   5:   -93.40627284088472   -3.67059e-05   4.47683e-05 DIIS
   @DF-RKS iter   6:   -93.40627404240156   -1.20152e-06   7.48527e-06 DIIS
   @DF-RKS iter   7:   -93.40627409354705   -5.11455e-08   7.10355e-07 DIIS
   @DF-RKS iter   8:   -93.40627409446938   -9.22327e-10   1.01661e-07 DIIS
   @DF-RKS iter   9:   -93.40627409448025   -1.08713e-11   1.06303e-08 DIIS
   @DF-RKS iter  10:   -93.40627409448039   -1.42109e-13   1.28453e-09 DIIS
  Energy and wave function converged.


  ==> Post-Iterations <==

    Orbital Energies [Eh]
    ---------------------

    Doubly Occupied:                                                      

       1A1   -14.555228     2A1   -10.420175     3A1    -1.054898  
       4A1    -0.721159     5A1    -0.498839     1B1    -0.469771  
       1B2    -0.469771  

    Virtual:                                                              

       6A1     0.013057     2B2     0.054445     2B1     0.054445  
       7A1     0.056908     3B1     0.108665     3B2     0.108665  
       8A1     0.134906     9A1     0.146480     4B2     0.193846  
       4B1     0.193846    10A1     0.223039    11A1     0.300149  
       5B1     0.363669     5B2     0.363669    12A1     0.383035  
       1A2     0.383035    13A1     0.451550    14A1     0.506011  
       6B2     0.582082     6B1     0.582082    15A1     0.677322  
       7B2     0.734615     7B1     0.734615     2A2     0.741230  
      16A1     0.741230    17A1     0.784158     8B2     0.872924  
       8B1     0.872924    18A1     0.961679    19A1     1.126753  
      20A1     1.360052     9B2     1.429762     9B1     1.429762  
       3A2     1.481260    21A1     1.481260    10B1     1.496425  
      10B2     1.496425    22A1     1.733124    11B2     2.036366  
      11B1     2.036366    23A1     2.156231    24A1     2.361490  
       4A2     2.361490    25A1     2.400322    12B1     2.724511  
      12B2     2.724511    26A1     3.150434    27A1     3.407195  

    Final Occupation by Irrep:
             A1    A2    B1    B2 
    DOCC [     5,    0,    1,    1 ]

  @DF-RKS Final Energy:   -93.40627409448039

   => Energetics <=

    Nuclear Repulsion Energy =             23.8780476549075757
    One-Electron Energy =                -172.5927926407659356
    Two-Electron Energy =                  64.1937138678362658
    DFT Exchange-Correlation Energy =      -8.9436267066053823
    Empirical Dispersion Energy =           0.0000000000000000
    VV10 Nonlocal Energy =                  0.0583837301470956
    Total Energy =                        -93.4062740944803949

Computation Completed


Properties will be evaluated at   0.000000,   0.000000,   0.000000 [a0]

Properties computed using the SCF density matrix

  Nuclear Dipole Moment: [e a0]
     X:     0.0000      Y:     0.0000      Z:    -1.5265

  Electronic Dipole Moment: [e a0]
     X:     0.0000      Y:     0.0000      Z:     0.3172

  Dipole Moment: [e a0]
     X:     0.0000      Y:     0.0000      Z:    -1.2093     Total:     1.2093

  Dipole Moment: [D]
     X:     0.0000      Y:     0.0000      Z:    -3.0737     Total:     3.0737


*** tstop() called on bp1-compute00139.data.bp.acrc.priv at Tue Apr 27 17:58:11 2021
Module time:
	user time   =      64.44 seconds =       1.07 minutes
	system time =       2.09 seconds =       0.03 minutes
	total time  =          2 seconds =       0.03 minutes
Total time:
	user time   =     330.84 seconds =       5.51 minutes
	system time =      12.39 seconds =       0.21 minutes
	total time  =         14 seconds =       0.23 minutes

         ----------------------------------------------------------
                                   FINDIF
                     R. A. King and Jonathon Misiewicz
         ---------------------------------------------------------

  Computing gradient from energies.
    Using 3-point formula.
    Energy without displacement:  -93.4062612294
    Check energies below for precision!
    Forces are for mass-weighted, symmetry-adapted cartesians (in au).

     Coord      Energy(-1)        Energy(+1)            Force
        0    -93.4062837582    -93.4062278796      0.0055878601
        1    -93.4062427866    -93.4062740945     -0.0031307843


-------------------------------------------------------------
  ## New Matrix (Symmetry 0) ##
  Irrep: 1 Size: 3 x 3

                 1                   2                   3

    1     0.00000000000000     0.00000000000000     0.00550403164353
    2     0.00000000000000     0.00000000000000    -0.01049873986989
    3     0.00000000000000     0.00000000000000     0.00499470822635




			-----------------------------------------
			 OPTKING 2.0: for geometry optimizations 
			  - R.A. King,  Bethel University        
			-----------------------------------------
	At level 1: Red. Int., RFO, no backsteps, dynamic trust

	Internal coordinates to be generated automatically.
	Detected frag 1 with atoms:  1 2 3
	---Fragment 1 Bond Connectivity---
	 1 : 2
	 2 : 1 3
	 3 : 2

	---Fragment 1 Geometry and Gradient---
	 H           0.0000000000        0.0000000000       -3.0736400218
	 C           0.0000000000        0.0000000000       -1.0576801912
	 N           0.0000000000        0.0000000000        1.1275991003
	             0.0000000000        0.0000000000        0.0055040316
	             0.0000000000        0.0000000000       -0.0104987399
	             0.0000000000        0.0000000000        0.0049947082

	Previous optimization step data not found.  Starting new optimization.

	---Fragment 1 Intrafragment Coordinates---
	 - Coordinate -           - BOHR/RAD -       - ANG/DEG -
	 R(1,2)           =         2.015960	       1.066800
	 R(2,3)           =         2.185279	       1.156400
	 L(1,2,3)         =         3.141593	     180.000000
	 l(1,2,3)         =         3.141593	     180.000000

	Current energy   :       -93.4062612294

	Generating empirical Hessian (Schlegel '84) for each fragment.
	Taking RFO optimization step.
	Going to follow RFO solution 1.
	Using RFO vector 1.
	Norm of target step-size    0.01511
	Projected energy change by RFO approximation:        -0.0000996081

	Back-transformation to cartesian coordinates...
	Successfully converged to displaced geometry.

	--- Internal Coordinate Step in ANG or DEG, aJ/ANG or AJ/DEG ---
	 ---------------------------------------------------------------------------
	   Coordinate                Previous        Force       Change         New 
	   ----------                --------       ------       ------       ------
	    1 R(1,2)          =      1.066800     0.045346     0.007737     1.074537
	    2 R(2,3)          =      1.156400    -0.041150    -0.002030     1.154370
	    3 L(1,2,3)        =    180.000000     0.000000     0.000000   180.000000
	    4 l(1,2,3)        =    180.000000     0.000000     0.000000   180.000000
	 ---------------------------------------------------------------------------
	Successfully symmetrized geometry.

  ==> Convergence Check <==

  Measures of convergence in internal coordinates in au.
  Criteria marked as inactive (o), active & met (*), and active & unmet ( ).
  --------------------------------------------------------------------------------------------- ~
   Step     Total Energy     Delta E     MAX Force     RMS Force      MAX Disp      RMS Disp    ~
  --------------------------------------------------------------------------------------------- ~
    Convergence Criteria    1.00e-06 *    3.00e-04 *             o    1.20e-03 *             o  ~
  --------------------------------------------------------------------------------------------- ~
      1     -93.40626123   -9.34e+01      5.50e-03      3.72e-03 o    1.46e-02      7.56e-03 o  ~
  ---------------------------------------------------------------------------------------------

	Writing optimization data to binary file.
	Structure for next step:
	Cartesian Geometry (in Angstrom)
	    H     0.0000000000   0.0000000000  -1.6309812057
	    C     0.0000000000   0.0000000000  -0.5564446743
	    N     0.0000000000   0.0000000000   0.5979251262
			--------------------------
			 OPTKING Finished Execution 
			--------------------------

    Structure for next step:
    Molecular point group: c2v
    Full point group: C_inf_v

    Geometry (in Angstrom), charge = 0, multiplicity = 1:

    H            0.000000000000     0.000000000000    -1.632895624987
    C            0.000000000000     0.000000000000    -0.558359089400
    N            0.000000000000     0.000000000000     0.596010715650

gradient() will perform gradient computation by finite difference of analytic energies.

         ----------------------------------------------------------
                                   FINDIF
                     R. A. King and Jonathon Misiewicz
         ---------------------------------------------------------

  Using finite-differences of energies to determine gradients.
    Generating geometries for use with 3-point formula.
    Displacement size will be 5.00e-03.
    Number of atoms is 3.
    Number of symmetric SALCs is 2.
    Translations projected? 1. Rotations projected? 1.
    Number of geometries (including reference) is 5.

  //>>>>>>>>>>>>>>>>>>>>>>>>>>>>>>>>>>>//
  //    Loading displacement 1 of 5    //
  //<<<<<<<<<<<<<<<<<<<<<<<<<<<<<<<<<<<//

*** tstart() called on bp1-compute00139.data.bp.acrc.priv
*** at Tue Apr 27 17:58:11 2021

   => Loading Basis Set <=

    Name: AUG-CC-PV(D+D)Z
    Role: ORBITAL
    Keyword: BASIS
    atoms 1 entry H          line    56 file /work/zw18965/.conda/envs/p4env/share/psi4/basis/aug-cc-pv_dpd_z.gbs 
    atoms 2 entry C          line   198 file /work/zw18965/.conda/envs/p4env/share/psi4/basis/aug-cc-pv_dpd_z.gbs 
    atoms 3 entry N          line   234 file /work/zw18965/.conda/envs/p4env/share/psi4/basis/aug-cc-pv_dpd_z.gbs 


         ---------------------------------------------------------
                                   SCF
               by Justin Turney, Rob Parrish, Andy Simmonett
                          and Daniel G. A. Smith
                              RKS Reference
                       24 Threads, 137329 MiB Core
         ---------------------------------------------------------

  ==> Geometry <==

    Molecular point group: c2v
    Full point group: C_inf_v

    Geometry (in Angstrom), charge = 0, multiplicity = 1:

       Center              X                  Y                   Z               Mass       
    ------------   -----------------  -----------------  -----------------  -----------------
         H            0.000000000000     0.000000000000    -1.632895624987     1.007825032230
         C            0.000000000000     0.000000000000    -0.558359089400    12.000000000000
         N            0.000000000000     0.000000000000     0.596010715650    14.003074004430

  Running in c2v symmetry.

  Rotational constants: A = ************  B =      1.47839  C =      1.47839 [cm^-1]
  Rotational constants: A = ************  B =  44321.05069  C =  44321.05069 [MHz]
  Nuclear repulsion =   23.870043284712516

  Charge       = 0
  Multiplicity = 1
  Electrons    = 14
  Nalpha       = 7
  Nbeta        = 7

  ==> Algorithm <==

  SCF Algorithm Type is DF.
  DIIS enabled.
  MOM disabled.
  Fractional occupation disabled.
  Guess Type is READ.
  Energy threshold   = 1.00e-08
  Density threshold  = 1.00e-08
  Integral threshold = 0.00e+00

  ==> Primary Basis <==

  Basis Set: AUG-CC-PV(D+D)Z
    Blend: AUG-CC-PV(D+D)Z
    Number of shells: 23
    Number of basis function: 55
    Number of Cartesian functions: 59
    Spherical Harmonics?: true
    Max angular momentum: 2

  ==> DFT Potential <==

   => Composite Functional: WB97M-V <= 

    wB97M-V Hyb-GGA Exchange-Correlation Functional

    N. Mardirossian and M. Head-Gordon, J. Chem. Phys. 144, 214110 (2016)

    Deriv               =              1
    GGA                 =           TRUE
    Meta                =           TRUE

    Exchange Hybrid     =           TRUE
    MP2 Hybrid          =          FALSE

   => Exchange-Correlation Functionals <=

    1.0000   wB97M-V exchange-correlation functional

   => Exact (HF) Exchange <=

    0.8500            HF,LR [omega = 0.3000]
    0.1500               HF 

   => VV10 Non-Local Parameters <=

    VV10 B              =     6.0000E+00
    VV10 C              =     1.0000E-02

   => Molecular Quadrature <=

    Radial Scheme          =       TREUTLER
    Pruning Scheme         =           FLAT
    Nuclear Scheme         =       TREUTLER

    BS radius alpha        =              1
    Pruning alpha          =              1
    Radial Points          =             75
    Spherical Points       =            302
    Total Points           =          67950
    Total Blocks           =            579
    Max Points             =            255
    Max Functions          =             55

   => Loading Basis Set <=

    Name: (AUG-CC-PV(D+D)Z AUX)
    Role: JKFIT
    Keyword: DF_BASIS_SCF
    atoms 1 entry H          line    70 file /work/zw18965/.conda/envs/p4env/share/psi4/basis/aug-cc-pvdz-jkfit.gbs 
    atoms 2 entry C          line   154 file /work/zw18965/.conda/envs/p4env/share/psi4/basis/aug-cc-pvdz-jkfit.gbs 
    atoms 3 entry N          line   212 file /work/zw18965/.conda/envs/p4env/share/psi4/basis/aug-cc-pvdz-jkfit.gbs 

   => Loading Basis Set <=

    Name: AUG-CC-PV(D+D)Z
    Role: ORBITAL
    Keyword: BASIS
    atoms 1 entry H          line    56 file /work/zw18965/.conda/envs/p4env/share/psi4/basis/aug-cc-pv_dpd_z.gbs 
    atoms 2 entry C          line   198 file /work/zw18965/.conda/envs/p4env/share/psi4/basis/aug-cc-pv_dpd_z.gbs 
    atoms 3 entry N          line   234 file /work/zw18965/.conda/envs/p4env/share/psi4/basis/aug-cc-pv_dpd_z.gbs 

  Reading orbitals from file 180, no projection.

  ==> Pre-Iterations <==

   -------------------------------------------------------
    Irrep   Nso     Nmo     Nalpha   Nbeta   Ndocc  Nsocc
   -------------------------------------------------------
     A1        27      27       0       0       0       0
     A2         4       4       0       0       0       0
     B1        12      12       0       0       0       0
     B2        12      12       0       0       0       0
   -------------------------------------------------------
    Total      55      55       7       7       7       0
   -------------------------------------------------------

  ==> Integral Setup <==

  ==> DiskDFJK: Density-Fitted J/K Matrices <==

    J tasked:                  Yes
    K tasked:                  Yes
    wK tasked:                 Yes
    Omega:               3.000E-01
    OpenMP threads:             24
    Integrals threads:          24
    Memory [MiB]:           102725
    Algorithm:                Core
    Integral Cache:           NONE
    Schwarz Cutoff:          1E-12
    Fitting Condition:       1E-10

   => Auxiliary Basis Set <=

  Basis Set: (AUG-CC-PV(D+D)Z AUX)
    Blend: AUG-CC-PVDZ-JKFIT
    Number of shells: 68
    Number of basis function: 204
    Number of Cartesian functions: 237
    Spherical Harmonics?: true
    Max angular momentum: 3

  Cached 100.0% of DFT collocation blocks in 0.265 [GiB].

  Minimum eigenvalue in the overlap matrix is 6.5022749288E-04.
  Using Symmetric Orthogonalization.

  SCF Guess: Orbitals guess was supplied from a previous computation.

  ==> Iterations <==

                           Total Energy        Delta E     RMS |[F,P]|

   @DF-RKS iter   0:   -93.40764031118266   -9.34076e+01   5.39040e-04 
   @DF-RKS iter   1:   -93.40629803695758    1.34227e-03   1.26059e-04 DIIS
   @DF-RKS iter   2:   -93.40629432145319    3.71550e-06   1.65032e-04 DIIS
   @DF-RKS iter   3:   -93.40630588946070   -1.15680e-05   1.80834e-05 DIIS
   @DF-RKS iter   4:   -93.40630602968882   -1.40228e-07   2.14407e-06 DIIS
   @DF-RKS iter   5:   -93.40630603360316   -3.91434e-09   5.89824e-07 DIIS
   @DF-RKS iter   6:   -93.40630603392910   -3.25940e-10   8.49582e-08 DIIS
   @DF-RKS iter   7:   -93.40630603393717   -8.07177e-12   7.42817e-09 DIIS
  Energy and wave function converged.


  ==> Post-Iterations <==

    Orbital Energies [Eh]
    ---------------------

    Doubly Occupied:                                                      

       1A1   -14.554834     2A1   -10.420348     3A1    -1.055182  
       4A1    -0.718918     5A1    -0.498609     1B2    -0.469887  
       1B1    -0.469887  

    Virtual:                                                              

       6A1     0.012978     2B1     0.054510     2B2     0.054510  
       7A1     0.056740     3B1     0.108971     3B2     0.108971  
       8A1     0.134829     9A1     0.145884     4B1     0.193993  
       4B2     0.193993    10A1     0.221937    11A1     0.299639  
       5B1     0.363124     5B2     0.363124    12A1     0.383101  
       1A2     0.383101    13A1     0.452000    14A1     0.504399  
       6B1     0.582265     6B2     0.582265    15A1     0.677778  
       7B1     0.733535     7B2     0.733535     2A2     0.741426  
      16A1     0.741426    17A1     0.784331     8B1     0.873338  
       8B2     0.873338    18A1     0.958865    19A1     1.127738  
      20A1     1.358992     9B2     1.428706     9B1     1.428706  
       3A2     1.481404    21A1     1.481405    10B2     1.496890  
      10B1     1.496890    22A1     1.734342    11B2     2.032670  
      11B1     2.032670    23A1     2.151095    24A1     2.361840  
       4A2     2.361840    25A1     2.388614    12B2     2.722230  
      12B1     2.722230    26A1     3.152275    27A1     3.398090  

    Final Occupation by Irrep:
             A1    A2    B1    B2 
    DOCC [     5,    0,    1,    1 ]

  @DF-RKS Final Energy:   -93.40630603393717

   => Energetics <=

    Nuclear Repulsion Energy =             23.8700432847125157
    One-Electron Energy =                -172.5819398846162471
    Two-Electron Energy =                  64.1896422257014905
    DFT Exchange-Correlation Energy =      -8.9424323815837639
    Empirical Dispersion Energy =           0.0000000000000000
    VV10 Nonlocal Energy =                  0.0583807218488249
    Total Energy =                        -93.4063060339371845

Computation Completed


Properties will be evaluated at   0.000000,   0.000000,   0.000000 [a0]

Properties computed using the SCF density matrix

  Nuclear Dipole Moment: [e a0]
     X:     0.0000      Y:     0.0000      Z:    -1.5325

  Electronic Dipole Moment: [e a0]
     X:     0.0000      Y:     0.0000      Z:     0.3197

  Dipole Moment: [e a0]
     X:     0.0000      Y:     0.0000      Z:    -1.2128     Total:     1.2128

  Dipole Moment: [D]
     X:     0.0000      Y:     0.0000      Z:    -3.0826     Total:     3.0826


*** tstop() called on bp1-compute00139.data.bp.acrc.priv at Tue Apr 27 17:58:13 2021
Module time:
	user time   =      43.58 seconds =       0.73 minutes
	system time =       1.34 seconds =       0.02 minutes
	total time  =          2 seconds =       0.03 minutes
Total time:
	user time   =     374.79 seconds =       6.25 minutes
	system time =      13.75 seconds =       0.23 minutes
	total time  =         16 seconds =       0.27 minutes

  //>>>>>>>>>>>>>>>>>>>>>>>>>>>>>>>>>>>//
  //    Loading displacement 2 of 5    //
  //<<<<<<<<<<<<<<<<<<<<<<<<<<<<<<<<<<<//

*** tstart() called on bp1-compute00139.data.bp.acrc.priv
*** at Tue Apr 27 17:58:13 2021

   => Loading Basis Set <=

    Name: AUG-CC-PV(D+D)Z
    Role: ORBITAL
    Keyword: BASIS
    atoms 1 entry H          line    56 file /work/zw18965/.conda/envs/p4env/share/psi4/basis/aug-cc-pv_dpd_z.gbs 
    atoms 2 entry C          line   198 file /work/zw18965/.conda/envs/p4env/share/psi4/basis/aug-cc-pv_dpd_z.gbs 
    atoms 3 entry N          line   234 file /work/zw18965/.conda/envs/p4env/share/psi4/basis/aug-cc-pv_dpd_z.gbs 


         ---------------------------------------------------------
                                   SCF
               by Justin Turney, Rob Parrish, Andy Simmonett
                          and Daniel G. A. Smith
                              RKS Reference
                       24 Threads, 137329 MiB Core
         ---------------------------------------------------------

  ==> Geometry <==

    Molecular point group: c2v
    Full point group: C_inf_v

    Geometry (in Angstrom), charge = 0, multiplicity = 1:

       Center              X                  Y                   Z               Mass       
    ------------   -----------------  -----------------  -----------------  -----------------
         H            0.000000000000     0.000000000000    -1.635481582545     1.007825032230
         C            0.000000000000     0.000000000000    -0.558258863066    12.000000000000
         N            0.000000000000     0.000000000000     0.596110941983    14.003074004430

  Running in c2v symmetry.

  Rotational constants: A = ************  B =      1.47724  C =      1.47724 [cm^-1]
  Rotational constants: A = ************  B =  44286.68547  C =  44286.68547 [MHz]
  Nuclear repulsion =   23.860674631980825

  Charge       = 0
  Multiplicity = 1
  Electrons    = 14
  Nalpha       = 7
  Nbeta        = 7

  ==> Algorithm <==

  SCF Algorithm Type is DF.
  DIIS enabled.
  MOM disabled.
  Fractional occupation disabled.
  Guess Type is READ.
  Energy threshold   = 1.00e-08
  Density threshold  = 1.00e-08
  Integral threshold = 0.00e+00

  ==> Primary Basis <==

  Basis Set: AUG-CC-PV(D+D)Z
    Blend: AUG-CC-PV(D+D)Z
    Number of shells: 23
    Number of basis function: 55
    Number of Cartesian functions: 59
    Spherical Harmonics?: true
    Max angular momentum: 2

  ==> DFT Potential <==

   => Composite Functional: WB97M-V <= 

    wB97M-V Hyb-GGA Exchange-Correlation Functional

    N. Mardirossian and M. Head-Gordon, J. Chem. Phys. 144, 214110 (2016)

    Deriv               =              1
    GGA                 =           TRUE
    Meta                =           TRUE

    Exchange Hybrid     =           TRUE
    MP2 Hybrid          =          FALSE

   => Exchange-Correlation Functionals <=

    1.0000   wB97M-V exchange-correlation functional

   => Exact (HF) Exchange <=

    0.8500            HF,LR [omega = 0.3000]
    0.1500               HF 

   => VV10 Non-Local Parameters <=

    VV10 B              =     6.0000E+00
    VV10 C              =     1.0000E-02

   => Molecular Quadrature <=

    Radial Scheme          =       TREUTLER
    Pruning Scheme         =           FLAT
    Nuclear Scheme         =       TREUTLER

    BS radius alpha        =              1
    Pruning alpha          =              1
    Radial Points          =             75
    Spherical Points       =            302
    Total Points           =          67950
    Total Blocks           =            578
    Max Points             =            256
    Max Functions          =             55

   => Loading Basis Set <=

    Name: (AUG-CC-PV(D+D)Z AUX)
    Role: JKFIT
    Keyword: DF_BASIS_SCF
    atoms 1 entry H          line    70 file /work/zw18965/.conda/envs/p4env/share/psi4/basis/aug-cc-pvdz-jkfit.gbs 
    atoms 2 entry C          line   154 file /work/zw18965/.conda/envs/p4env/share/psi4/basis/aug-cc-pvdz-jkfit.gbs 
    atoms 3 entry N          line   212 file /work/zw18965/.conda/envs/p4env/share/psi4/basis/aug-cc-pvdz-jkfit.gbs 

   => Loading Basis Set <=

    Name: AUG-CC-PV(D+D)Z
    Role: ORBITAL
    Keyword: BASIS
    atoms 1 entry H          line    56 file /work/zw18965/.conda/envs/p4env/share/psi4/basis/aug-cc-pv_dpd_z.gbs 
    atoms 2 entry C          line   198 file /work/zw18965/.conda/envs/p4env/share/psi4/basis/aug-cc-pv_dpd_z.gbs 
    atoms 3 entry N          line   234 file /work/zw18965/.conda/envs/p4env/share/psi4/basis/aug-cc-pv_dpd_z.gbs 

  Reading orbitals from file 180, no projection.

  ==> Pre-Iterations <==

   -------------------------------------------------------
    Irrep   Nso     Nmo     Nalpha   Nbeta   Ndocc  Nsocc
   -------------------------------------------------------
     A1        27      27       0       0       0       0
     A2         4       4       0       0       0       0
     B1        12      12       0       0       0       0
     B2        12      12       0       0       0       0
   -------------------------------------------------------
    Total      55      55       7       7       7       0
   -------------------------------------------------------

  ==> Integral Setup <==

  ==> DiskDFJK: Density-Fitted J/K Matrices <==

    J tasked:                  Yes
    K tasked:                  Yes
    wK tasked:                 Yes
    Omega:               3.000E-01
    OpenMP threads:             24
    Integrals threads:          24
    Memory [MiB]:           102726
    Algorithm:                Core
    Integral Cache:           NONE
    Schwarz Cutoff:          1E-12
    Fitting Condition:       1E-10

   => Auxiliary Basis Set <=

  Basis Set: (AUG-CC-PV(D+D)Z AUX)
    Blend: AUG-CC-PVDZ-JKFIT
    Number of shells: 68
    Number of basis function: 204
    Number of Cartesian functions: 237
    Spherical Harmonics?: true
    Max angular momentum: 3

  Cached 100.0% of DFT collocation blocks in 0.264 [GiB].

  Minimum eigenvalue in the overlap matrix is 6.5172423939E-04.
  Using Symmetric Orthogonalization.

  SCF Guess: Orbitals guess was supplied from a previous computation.

  ==> Iterations <==

                           Total Energy        Delta E     RMS |[F,P]|

   @DF-RKS iter   0:   -93.40562262832613   -9.34056e+01   1.48447e-04 
   @DF-RKS iter   1:   -93.40629717859592   -6.74550e-04   4.03123e-05 DIIS
   @DF-RKS iter   2:   -93.40629642974092    7.48855e-07   6.01316e-05 DIIS
   @DF-RKS iter   3:   -93.40629798728119   -1.55754e-06   1.63197e-06 DIIS
   @DF-RKS iter   4:   -93.40629798862797   -1.34678e-09   3.09700e-07 DIIS
   @DF-RKS iter   5:   -93.40629798873543   -1.07462e-10   1.15835e-07 DIIS
   @DF-RKS iter   6:   -93.40629798874376   -8.32756e-12   1.62866e-08 DIIS
   @DF-RKS iter   7:   -93.40629798874419   -4.26326e-13   2.30886e-09 DIIS
  Energy and wave function converged.


  ==> Post-Iterations <==

    Orbital Energies [Eh]
    ---------------------

    Doubly Occupied:                                                      

       1A1   -14.554797     2A1   -10.420515     3A1    -1.055151  
       4A1    -0.718123     5A1    -0.498552     1B1    -0.469845  
       1B2    -0.469845  

    Virtual:                                                              

       6A1     0.012944     2B2     0.054503     2B1     0.054503  
       7A1     0.056668     3B2     0.109019     3B1     0.109019  
       8A1     0.134796     9A1     0.145653     4B2     0.194014  
       4B1     0.194014    10A1     0.221492    11A1     0.299429  
       5B1     0.362892     5B2     0.362892    12A1     0.383122  
       1A2     0.383123    13A1     0.452153    14A1     0.503774  
       6B1     0.582386     6B2     0.582386    15A1     0.677820  
       7B1     0.733087     7B2     0.733087     2A2     0.741452  
      16A1     0.741452    17A1     0.784368     8B2     0.873391  
       8B1     0.873391    18A1     0.957732    19A1     1.127771  
      20A1     1.358524     9B2     1.428245     9B1     1.428245  
       3A2     1.481457    21A1     1.481457    10B2     1.496895  
      10B1     1.496895    22A1     1.734479    11B2     2.031193  
      11B1     2.031193    23A1     2.149113    24A1     2.361879  
       4A2     2.361879    25A1     2.384120    12B1     2.721089  
      12B2     2.721089    26A1     3.152353    27A1     3.393744  

    Final Occupation by Irrep:
             A1    A2    B1    B2 
    DOCC [     5,    0,    1,    1 ]

  @DF-RKS Final Energy:   -93.40629798874419

   => Energetics <=

    Nuclear Repulsion Energy =             23.8606746319808245
    One-Electron Energy =                -172.5653177218239023
    Two-Electron Energy =                  64.1816310549699267
    DFT Exchange-Correlation Energy =      -8.9416653700612407
    Empirical Dispersion Energy =           0.0000000000000000
    VV10 Nonlocal Energy =                  0.0583794161902087
    Total Energy =                        -93.4062979887441855

Computation Completed


Properties will be evaluated at   0.000000,   0.000000,   0.000000 [a0]

Properties computed using the SCF density matrix

  Nuclear Dipole Moment: [e a0]
     X:     0.0000      Y:     0.0000      Z:    -1.5349

  Electronic Dipole Moment: [e a0]
     X:     0.0000      Y:     0.0000      Z:     0.3208

  Dipole Moment: [e a0]
     X:     0.0000      Y:     0.0000      Z:    -1.2141     Total:     1.2141

  Dipole Moment: [D]
     X:     0.0000      Y:     0.0000      Z:    -3.0860     Total:     3.0860


*** tstop() called on bp1-compute00139.data.bp.acrc.priv at Tue Apr 27 17:58:15 2021
Module time:
	user time   =      46.22 seconds =       0.77 minutes
	system time =       1.56 seconds =       0.03 minutes
	total time  =          2 seconds =       0.03 minutes
Total time:
	user time   =     421.14 seconds =       7.02 minutes
	system time =      15.32 seconds =       0.26 minutes
	total time  =         18 seconds =       0.30 minutes

  //>>>>>>>>>>>>>>>>>>>>>>>>>>>>>>>>>>>//
  //    Loading displacement 3 of 5    //
  //<<<<<<<<<<<<<<<<<<<<<<<<<<<<<<<<<<<//

*** tstart() called on bp1-compute00139.data.bp.acrc.priv
*** at Tue Apr 27 17:58:15 2021

   => Loading Basis Set <=

    Name: AUG-CC-PV(D+D)Z
    Role: ORBITAL
    Keyword: BASIS
    atoms 1 entry H          line    56 file /work/zw18965/.conda/envs/p4env/share/psi4/basis/aug-cc-pv_dpd_z.gbs 
    atoms 2 entry C          line   198 file /work/zw18965/.conda/envs/p4env/share/psi4/basis/aug-cc-pv_dpd_z.gbs 
    atoms 3 entry N          line   234 file /work/zw18965/.conda/envs/p4env/share/psi4/basis/aug-cc-pv_dpd_z.gbs 


         ---------------------------------------------------------
                                   SCF
               by Justin Turney, Rob Parrish, Andy Simmonett
                          and Daniel G. A. Smith
                              RKS Reference
                       24 Threads, 137329 MiB Core
         ---------------------------------------------------------

  ==> Geometry <==

    Molecular point group: c2v
    Full point group: C_inf_v

    Geometry (in Angstrom), charge = 0, multiplicity = 1:

       Center              X                  Y                   Z               Mass       
    ------------   -----------------  -----------------  -----------------  -----------------
         H            0.000000000000     0.000000000000    -1.630309667429     1.007825032230
         C            0.000000000000     0.000000000000    -0.558459315733    12.000000000000
         N            0.000000000000     0.000000000000     0.595910489316    14.003074004430

  Running in c2v symmetry.

  Rotational constants: A = ************  B =      1.47954  C =      1.47954 [cm^-1]
  Rotational constants: A = ************  B =  44355.41477  C =  44355.41477 [MHz]
  Nuclear repulsion =   23.879453696149046

  Charge       = 0
  Multiplicity = 1
  Electrons    = 14
  Nalpha       = 7
  Nbeta        = 7

  ==> Algorithm <==

  SCF Algorithm Type is DF.
  DIIS enabled.
  MOM disabled.
  Fractional occupation disabled.
  Guess Type is READ.
  Energy threshold   = 1.00e-08
  Density threshold  = 1.00e-08
  Integral threshold = 0.00e+00

  ==> Primary Basis <==

  Basis Set: AUG-CC-PV(D+D)Z
    Blend: AUG-CC-PV(D+D)Z
    Number of shells: 23
    Number of basis function: 55
    Number of Cartesian functions: 59
    Spherical Harmonics?: true
    Max angular momentum: 2

  ==> DFT Potential <==

   => Composite Functional: WB97M-V <= 

    wB97M-V Hyb-GGA Exchange-Correlation Functional

    N. Mardirossian and M. Head-Gordon, J. Chem. Phys. 144, 214110 (2016)

    Deriv               =              1
    GGA                 =           TRUE
    Meta                =           TRUE

    Exchange Hybrid     =           TRUE
    MP2 Hybrid          =          FALSE

   => Exchange-Correlation Functionals <=

    1.0000   wB97M-V exchange-correlation functional

   => Exact (HF) Exchange <=

    0.8500            HF,LR [omega = 0.3000]
    0.1500               HF 

   => VV10 Non-Local Parameters <=

    VV10 B              =     6.0000E+00
    VV10 C              =     1.0000E-02

   => Molecular Quadrature <=

    Radial Scheme          =       TREUTLER
[...]
      14App    2.033040    34Ap     2.151623    35Ap     2.361805  
      15App    2.361805    36Ap     2.389767    16App    2.722455  
      37Ap     2.722456    38Ap     3.152088    39Ap     3.398975  

    Final Occupation by Irrep:
             Ap   App 
    DOCC [     6,    1 ]

  @DF-RKS Final Energy:   -93.40630620558073

   => Energetics <=

    Nuclear Repulsion Energy =             23.8708191598642685
    One-Electron Energy =                -172.5829824125362109
    Two-Electron Energy =                  64.1900263048780317
    DFT Exchange-Correlation Energy =      -8.9425502785105611
    Empirical Dispersion Energy =           0.0000000000000000
    VV10 Nonlocal Energy =                  0.0583810207237108
    Total Energy =                        -93.4063062055807478

Computation Completed


Properties will be evaluated at   0.000000,   0.000000,   0.000000 [a0]

Properties computed using the SCF density matrix

  Nuclear Dipole Moment: [e a0]
     X:    -0.0021      Y:     0.0000      Z:    -1.5319

  Electronic Dipole Moment: [e a0]
     X:     0.0011      Y:     0.0000      Z:     0.3195

  Dipole Moment: [e a0]
     X:    -0.0010      Y:     0.0000      Z:    -1.2124     Total:     1.2124

  Dipole Moment: [D]
     X:    -0.0025      Y:     0.0000      Z:    -3.0817     Total:     3.0817


*** tstop() called on bp1-compute00139.data.bp.acrc.priv at Tue Apr 27 17:59:08 2021
Module time:
	user time   =      68.74 seconds =       1.15 minutes
	system time =       1.87 seconds =       0.03 minutes
	total time  =          3 seconds =       0.05 minutes
Total time:
	user time   =    1648.26 seconds =      27.47 minutes
	system time =      50.61 seconds =       0.84 minutes
	total time  =         71 seconds =       1.18 minutes

  //>>>>>>>>>>>>>>>>>>>>>>>>>>>>>>>>>>>//
  //    Loading displacement 9 of 9    //
  //<<<<<<<<<<<<<<<<<<<<<<<<<<<<<<<<<<<//

*** tstart() called on bp1-compute00139.data.bp.acrc.priv
*** at Tue Apr 27 17:59:08 2021

   => Loading Basis Set <=

    Name: AUG-CC-PV(D+D)Z
    Role: ORBITAL
    Keyword: BASIS
    atoms 1 entry H          line    56 file /work/zw18965/.conda/envs/p4env/share/psi4/basis/aug-cc-pv_dpd_z.gbs 
    atoms 2 entry C          line   198 file /work/zw18965/.conda/envs/p4env/share/psi4/basis/aug-cc-pv_dpd_z.gbs 
    atoms 3 entry N          line   234 file /work/zw18965/.conda/envs/p4env/share/psi4/basis/aug-cc-pv_dpd_z.gbs 


         ---------------------------------------------------------
                                   SCF
               by Justin Turney, Rob Parrish, Andy Simmonett
                          and Daniel G. A. Smith
                              RKS Reference
                       24 Threads, 137329 MiB Core
         ---------------------------------------------------------

  ==> Geometry <==

    Molecular point group: cs
    Full point group: Cs

    Geometry (in Angstrom), charge = 0, multiplicity = 1:

       Center              X                  Y                   Z               Mass       
    ------------   -----------------  -----------------  -----------------  -----------------
         H            0.000000000000    -0.002247522066    -1.632250465138     1.007825032230
         C            0.000000000000     0.000364330430    -0.558438039657    12.000000000000
         N            0.000000000000    -0.000150456690     0.596031939193    14.003074004430

  Running in cs symmetry.

  Rotational constants: A = 2407987.46702  B =      1.47848  C =      1.47848 [cm^-1]
  Rotational constants: A = 72189648157.17372  B =  44323.81327  C =  44323.78606 [MHz]
  Nuclear repulsion =   23.870819159864268

  Charge       = 0
  Multiplicity = 1
  Electrons    = 14
  Nalpha       = 7
  Nbeta        = 7

  ==> Algorithm <==

  SCF Algorithm Type is DF.
  DIIS enabled.
  MOM disabled.
  Fractional occupation disabled.
  Guess Type is SAD.
  Energy threshold   = 1.00e-10
  Density threshold  = 1.00e-10
  Integral threshold = 0.00e+00

  ==> Primary Basis <==

  Basis Set: AUG-CC-PV(D+D)Z
    Blend: AUG-CC-PV(D+D)Z
    Number of shells: 23
    Number of basis function: 55
    Number of Cartesian functions: 59
    Spherical Harmonics?: true
    Max angular momentum: 2

  ==> DFT Potential <==

   => Composite Functional: WB97M-V <= 

    wB97M-V Hyb-GGA Exchange-Correlation Functional

    N. Mardirossian and M. Head-Gordon, J. Chem. Phys. 144, 214110 (2016)

    Deriv               =              1
    GGA                 =           TRUE
    Meta                =           TRUE

    Exchange Hybrid     =           TRUE
    MP2 Hybrid          =          FALSE

   => Exchange-Correlation Functionals <=

    1.0000   wB97M-V exchange-correlation functional

   => Exact (HF) Exchange <=

    0.8500            HF,LR [omega = 0.3000]
    0.1500               HF 

   => VV10 Non-Local Parameters <=

    VV10 B              =     6.0000E+00
    VV10 C              =     1.0000E-02

   => Molecular Quadrature <=

    Radial Scheme          =       TREUTLER
    Pruning Scheme         =           FLAT
    Nuclear Scheme         =       TREUTLER

    BS radius alpha        =              1
    Pruning alpha          =              1
    Radial Points          =             75
    Spherical Points       =            302
    Total Points           =          67950
    Total Blocks           =            579
    Max Points             =            255
    Max Functions          =             55

   => Loading Basis Set <=

    Name: (AUG-CC-PV(D+D)Z AUX)
    Role: JKFIT
    Keyword: DF_BASIS_SCF
    atoms 1 entry H          line    70 file /work/zw18965/.conda/envs/p4env/share/psi4/basis/aug-cc-pvdz-jkfit.gbs 
    atoms 2 entry C          line   154 file /work/zw18965/.conda/envs/p4env/share/psi4/basis/aug-cc-pvdz-jkfit.gbs 
    atoms 3 entry N          line   212 file /work/zw18965/.conda/envs/p4env/share/psi4/basis/aug-cc-pvdz-jkfit.gbs 

  ==> Pre-Iterations <==

   -------------------------------------------------------
    Irrep   Nso     Nmo     Nalpha   Nbeta   Ndocc  Nsocc
   -------------------------------------------------------
     A'        39      39       0       0       0       0
     A"        16      16       0       0       0       0
   -------------------------------------------------------
    Total      55      55       7       7       7       0
   -------------------------------------------------------

  ==> Integral Setup <==

  ==> DiskDFJK: Density-Fitted J/K Matrices <==

    J tasked:                  Yes
    K tasked:                  Yes
    wK tasked:                 Yes
    Omega:               3.000E-01
    OpenMP threads:             24
    Integrals threads:          24
    Memory [MiB]:           102726
    Algorithm:                Core
    Integral Cache:           NONE
    Schwarz Cutoff:          1E-12
    Fitting Condition:       1E-10

   => Auxiliary Basis Set <=

  Basis Set: (AUG-CC-PV(D+D)Z AUX)
    Blend: AUG-CC-PVDZ-JKFIT
    Number of shells: 68
    Number of basis function: 204
    Number of Cartesian functions: 237
    Spherical Harmonics?: true
    Max angular momentum: 3

  Cached 100.0% of DFT collocation blocks in 0.264 [GiB].

  Minimum eigenvalue in the overlap matrix is 6.4991139118E-04.
  Using Symmetric Orthogonalization.

  SCF Guess: Superposition of Atomic Densities via on-the-fly atomic UHF.

  ==> Iterations <==

                           Total Energy        Delta E     RMS |[F,P]|

   @DF-RKS iter SAD:   -92.56704588578630   -9.25670e+01   0.00000e+00 
   @DF-RKS iter   1:   -93.32067264135992   -7.53627e-01   1.01803e-02 DIIS
   @DF-RKS iter   2:   -93.28406991750744    3.66027e-02   1.25102e-02 DIIS
   @DF-RKS iter   3:   -93.40403877984890   -1.19969e-01   1.62441e-03 DIIS
   @DF-RKS iter   4:   -93.40626777856933   -2.22900e-03   2.13893e-04 DIIS
   @DF-RKS iter   5:   -93.40630493877102   -3.71602e-05   3.42775e-05 DIIS
   @DF-RKS iter   6:   -93.40630615187027   -1.21310e-06   5.75232e-06 DIIS
   @DF-RKS iter   7:   -93.40630620388141   -5.20111e-08   5.46522e-07 DIIS
   @DF-RKS iter   8:   -93.40630620482214   -9.40730e-10   7.80510e-08 DIIS
   @DF-RKS iter   9:   -93.40630620483327   -1.11271e-11   8.22883e-09 DIIS
   @DF-RKS iter  10:   -93.40630620483348   -2.13163e-13   1.03963e-09 DIIS
   @DF-RKS iter  11:   -93.40630620483337    1.13687e-13   1.72968e-10 DIIS
   @DF-RKS iter  12:   -93.40630620483347   -9.94760e-14   3.27575e-11 DIIS
  Energy and wave function converged.


  ==> Post-Iterations <==

    Orbital Energies [Eh]
    ---------------------

    Doubly Occupied:                                                      

       1Ap   -14.554874     2Ap   -10.420331     3Ap    -1.055153  
       4Ap    -0.719142     5Ap    -0.498632     1App   -0.469875  
       6Ap    -0.469875  

    Virtual:                                                              

       7Ap     0.012986     8Ap     0.054501     2App    0.054503  
       9Ap     0.056759    10Ap     0.108939     3App    0.108940  
      11Ap     0.134837    12Ap     0.145945    13Ap     0.193978  
       4App    0.193978    14Ap     0.222048    15Ap     0.299689  
      16Ap     0.363177     5App    0.363177    17Ap     0.383097  
       6App    0.383097    18Ap     0.451956    19Ap     0.504562  
      20Ap     0.582246     7App    0.582247    21Ap     0.677732  
      22Ap     0.733614     8App    0.733615     9App    0.741434  
      23Ap     0.741434    24Ap     0.784313    10App    0.873296  
      25Ap     0.873297    26Ap     0.959146    27Ap     1.127637  
      28Ap     1.359100    11App    1.428808    29Ap     1.428812  
      12App    1.481391    30Ap     1.481392    31Ap     1.496838  
      13App    1.496840    32Ap     1.734221    33Ap     2.033039  
      14App    2.033040    34Ap     2.151623    35Ap     2.361805  
      15App    2.361805    36Ap     2.389767    16App    2.722455  
      37Ap     2.722456    38Ap     3.152088    39Ap     3.398975  

    Final Occupation by Irrep:
             Ap   App 
    DOCC [     6,    1 ]

  @DF-RKS Final Energy:   -93.40630620483347

   => Energetics <=

    Nuclear Repulsion Energy =             23.8708191598642685
    One-Electron Energy =                -172.5829824123642879
    Two-Electron Energy =                  64.1900263054500755
    DFT Exchange-Correlation Energy =      -8.9425502785071629
    Empirical Dispersion Energy =           0.0000000000000000
    VV10 Nonlocal Energy =                  0.0583810207236582
    Total Energy =                        -93.4063062048334700

Computation Completed


Properties will be evaluated at   0.000000,   0.000000,   0.000000 [a0]

Properties computed using the SCF density matrix

  Nuclear Dipole Moment: [e a0]
     X:     0.0000      Y:    -0.0021      Z:    -1.5319

  Electronic Dipole Moment: [e a0]
     X:     0.0000      Y:     0.0011      Z:     0.3195

  Dipole Moment: [e a0]
     X:     0.0000      Y:    -0.0010      Z:    -1.2124     Total:     1.2124

  Dipole Moment: [D]
     X:     0.0000      Y:    -0.0025      Z:    -3.0817     Total:     3.0817


*** tstop() called on bp1-compute00139.data.bp.acrc.priv at Tue Apr 27 17:59:11 2021
Module time:
	user time   =      68.57 seconds =       1.14 minutes
	system time =       1.92 seconds =       0.03 minutes
	total time  =          3 seconds =       0.05 minutes
Total time:
	user time   =    1716.95 seconds =      28.62 minutes
	system time =      52.54 seconds =       0.88 minutes
	total time  =         74 seconds =       1.23 minutes

         ----------------------------------------------------------
                                   FINDIF
                     R. A. King and Jonathon Misiewicz
         ---------------------------------------------------------

  Computing second-derivative from energies using projected, 
  symmetry-adapted, cartesian coordinates.

  9 energies passed in, including the reference geometry.
    Using 3-point formula.
    Energy without displacement:  -93.4063064604
    Check energies below for precision!
    0: -1        :       -93.4063012052
    0: 1         :       -93.4063013169
    1: -1        :       -93.4063036616
    1: 1         :       -93.4063036391
    0: 1, 1: 1   :       -93.4063008418
    0: -1, 1: -1 :       -93.4063007248
    2: -1        :       -93.4063062056
    3: -1        :       -93.4063062048

-------------------------------------------------------------


  ==> Harmonic Vibrational Analysis <==

  non-mass-weighted Hessian:       Symmetric? True   Hermitian? True   Lin Dep Dim?  5 (0)
  projection of translations (True) and rotations (True) removed 5 degrees of freedom (5)
  total projector:                 Symmetric? True   Hermitian? True   Lin Dep Dim?  5 (5)
  mass-weighted Hessian:           Symmetric? True   Hermitian? True   Lin Dep Dim?  5 (0)
  pre-proj  low-frequency mode:    0.0000i [cm^-1]
  pre-proj  low-frequency mode:    0.0000  [cm^-1]
  pre-proj  low-frequency mode:    0.0000  [cm^-1]
  pre-proj  low-frequency mode:    0.0000  [cm^-1]
  pre-proj  low-frequency mode:    0.0000  [cm^-1]
  pre-proj  all modes:['0.0000i' '0.0000' '0.0000' '0.0000' '0.0000' '733.9223' '734.9977'
 '2221.8538' '3463.3751']
  projected mass-weighted Hessian: Symmetric? True   Hermitian? True   Lin Dep Dim?  5 (5)
  post-proj low-frequency mode:    0.0001i [cm^-1] (TR)
  post-proj low-frequency mode:    0.0000i [cm^-1] (TR)
  post-proj low-frequency mode:    0.0000i [cm^-1] (TR)
  post-proj low-frequency mode:    0.0000  [cm^-1] (TR)
  post-proj low-frequency mode:    0.0000  [cm^-1] (TR)
  post-proj  all modes:['0.0001i' '0.0000i' '0.0000i' '0.0000' '0.0000' '733.9223' '734.9977'
 '2221.8538' '3463.3751']

  Vibration                       6                   7                   8           
  Freq [cm^-1]                 733.9223            734.9977           2221.8538       
  Irrep                           B1                  B2                  A1          
  Reduced mass [u]              1.3446              1.3446              4.9454        
  Force const [mDyne/A]         0.4267              0.4280             14.3842        
  Turning point v=0 [a0]        0.3493              0.3490              0.1047        
  RMS dev v=0 [a0 u^1/2]        0.2864              0.2862              0.1646        
  Char temp [K]               1055.9508           1057.4980           3196.7529       
  ----------------------------------------------------------------------------------
      1   H                0.98 -0.00  0.00    0.00  0.98  0.00   -0.00 -0.00 -0.82   
      2   C               -0.16 -0.00  0.00   -0.00 -0.16  0.00   -0.00  0.00 -0.40   
      3   N                0.07  0.00  0.00   -0.00  0.07  0.00    0.00 -0.00  0.41   

  Vibration                       9           
  Freq [cm^-1]                3463.3751       
  Irrep                           A1          
  Reduced mass [u]              1.1995        
  Force const [mDyne/A]         8.4769        
  Turning point v=0 [a0]        0.1702        
  RMS dev v=0 [a0 u^1/2]        0.1318        
  Char temp [K]               4983.0257       
  ----------------------------------------------------------------------------------
      1   H                0.00  0.00  0.99   
      2   C               -0.00  0.00 -0.13   
      3   N                0.00 -0.00  0.04   

  ==> Thermochemistry Components <==

  Entropy, S
    Electronic S            0.000 [cal/(mol K)]        0.000 [J/(mol K)]       0.00000000 [mEh/K] (multiplicity = 1)
    Translational S        35.816 [cal/(mol K)]      149.856 [J/(mol K)]       0.05707695 [mEh/K] (mol. weight = 27.0109 [u], P = 101325.00 [Pa])
    Rotational S           11.810 [cal/(mol K)]       49.411 [J/(mol K)]       0.01881968 [mEh/K] (symmetry no. = 1)
    Vibrational S           0.536 [cal/(mol K)]        2.243 [J/(mol K)]       0.00085431 [mEh/K]
  Total S                  48.162 [cal/(mol K)]      201.510 [J/(mol K)]       0.07675093 [mEh/K]
  Correction S              0.000 [cal/(mol K)]        0.000 [J/(mol K)]       0.00000000 [mEh/K]

  Constant volume heat capacity, Cv
    Electronic Cv           0.000 [cal/(mol K)]        0.000 [J/(mol K)]       0.00000000 [mEh/K]
    Translational Cv        2.981 [cal/(mol K)]       12.472 [J/(mol K)]       0.00475022 [mEh/K]
    Rotational Cv           1.987 [cal/(mol K)]        8.314 [J/(mol K)]       0.00316681 [mEh/K]
    Vibrational Cv          1.535 [cal/(mol K)]        6.420 [J/(mol K)]       0.00244539 [mEh/K]
  Total Cv                  6.503 [cal/(mol K)]       27.207 [J/(mol K)]       0.01036242 [mEh/K]
  Correction Cv             0.000 [cal/(mol K)]        0.000 [J/(mol K)]       0.00000000 [mEh/K]

  Constant pressure heat capacity, Cp
    Electronic Cp           0.000 [cal/(mol K)]        0.000 [J/(mol K)]       0.00000000 [mEh/K]
    Translational Cp        4.968 [cal/(mol K)]       20.786 [J/(mol K)]       0.00791703 [mEh/K]
    Rotational Cp           1.987 [cal/(mol K)]        8.314 [J/(mol K)]       0.00316681 [mEh/K]
    Vibrational Cp          1.535 [cal/(mol K)]        6.420 [J/(mol K)]       0.00244539 [mEh/K]
  Total Cp                  8.490 [cal/(mol K)]       35.521 [J/(mol K)]       0.01352923 [mEh/K]
  Correction Cp             0.000 [cal/(mol K)]        0.000 [J/(mol K)]       0.00000000 [mEh/K]

  ==> Thermochemistry Energy Analysis <==

  Raw electronic energy, E0
  Total E0, Electronic energy at well bottom at 0 [K]                  -93.40630646 [Eh]

  Zero-point energy, ZPE_vib = Sum_i nu_i / 2
    Electronic ZPE          0.000 [kcal/mol]        0.000 [kJ/mol]       0.00000000 [Eh]
    Translational ZPE       0.000 [kcal/mol]        0.000 [kJ/mol]       0.00000000 [Eh]
    Rotational ZPE          0.000 [kcal/mol]        0.000 [kJ/mol]       0.00000000 [Eh]
    Vibrational ZPE        10.227 [kcal/mol]       42.791 [kJ/mol]       0.01629835 [Eh]        3577.074 [cm^-1]
  Correction ZPE           10.227 [kcal/mol]       42.791 [kJ/mol]       0.01629835 [Eh]        3577.074 [cm^-1]
  Total ZPE, Electronic energy at 0 [K]                                -93.39000811 [Eh]

  Thermal Energy, E (includes ZPE)
    Electronic E            0.000 [kcal/mol]        0.000 [kJ/mol]       0.00000000 [Eh]
    Translational E         0.889 [kcal/mol]        3.718 [kJ/mol]       0.00141628 [Eh]
    Rotational E            0.592 [kcal/mol]        2.479 [kJ/mol]       0.00094418 [Eh]
    Vibrational E          10.352 [kcal/mol]       43.315 [kJ/mol]       0.01649768 [Eh]
  Correction E             11.834 [kcal/mol]       49.512 [kJ/mol]       0.01885814 [Eh]
  Total E, Electronic energy at  298.15 [K]                            -93.38744832 [Eh]

  Enthalpy, H_trans = E_trans + k_B * T
    Electronic H            0.000 [kcal/mol]        0.000 [kJ/mol]       0.00000000 [Eh]
    Translational H         1.481 [kcal/mol]        6.197 [kJ/mol]       0.00236046 [Eh]
    Rotational H            0.592 [kcal/mol]        2.479 [kJ/mol]       0.00094418 [Eh]
    Vibrational H          10.352 [kcal/mol]       43.315 [kJ/mol]       0.01649768 [Eh]
  Correction H             12.426 [kcal/mol]       51.991 [kJ/mol]       0.01980233 [Eh]
  Total H, Enthalpy at  298.15 [K]                                     -93.38650413 [Eh]

  Gibbs free energy, G = H - T * S
    Electronic G            0.000 [kcal/mol]        0.000 [kJ/mol]       0.00000000 [Eh]
    Translational G        -9.197 [kcal/mol]      -38.482 [kJ/mol]      -0.01465703 [Eh]
    Rotational G           -2.929 [kcal/mol]      -12.253 [kJ/mol]      -0.00466690 [Eh]
    Vibrational G          10.193 [kcal/mol]       42.646 [kJ/mol]       0.01624297 [Eh]
  Correction G             -1.933 [kcal/mol]       -8.089 [kJ/mol]      -0.00308096 [Eh]
  Total G, Free enthalpy at  298.15 [K]                                -93.40938742 [Eh]

    Psi4 stopped on: Tuesday, 27 April 2021 05:59PM
    Psi4 wall time for execution: 0:01:14.64

*** Psi4 exiting successfully. Buy a developer a beer!
