
    -----------------------------------------------------------------------
          Psi4: An Open-Source Ab Initio Electronic Structure Package
                               Psi4 1.3.2 release

                         Git: Rev {HEAD} ecbda83 


    R. M. Parrish, L. A. Burns, D. G. A. Smith, A. C. Simmonett,
    A. E. DePrince III, E. G. Hohenstein, U. Bozkaya, A. Yu. Sokolov,
    R. Di Remigio, R. M. Richard, J. F. Gonthier, A. M. James,
    H. R. McAlexander, A. Kumar, M. Saitow, X. Wang, B. P. Pritchard,
    P. Verma, H. F. Schaefer III, K. Patkowski, R. A. King, E. F. Valeev,
    F. A. Evangelista, J. M. Turney, T. D. Crawford, and C. D. Sherrill,
    J. Chem. Theory Comput. 13(7) pp 3185--3197 (2017).
    (doi: 10.1021/acs.jctc.7b00174)


                         Additional Contributions by
    P. Kraus, H. Kruse, M. H. Lechner, M. C. Schieber, R. A. Shaw,
    A. Alenaizan, R. Galvelis, Z. L. Glick, S. Lehtola, and J. P. Misiewicz

    -----------------------------------------------------------------------


    Psi4 started on: Tuesday, 27 April 2021 06:02PM

    Process ID: 214102
    Host:       bp1-compute00099.data.bp.acrc.priv
    PSIDATADIR: /work/zw18965/.conda/envs/p4env/share/psi4
    Memory:     500.0 MiB
    Threads:    24
    
  ==> Input File <==

--------------------------------------------------------------------------
memory 144 GB

molecule {
0 3
S 0.0000000000 0.0000000000 0.0000000000
S 0.0000000000 0.0000000000 1.8968845900
}

set reference uks
set dynamic_level 1
set basis aug-cc-pV(D+d)Z
 
optimize("wB97M-V")
frequencies("wB97M-V")
--------------------------------------------------------------------------

  Memory set to 134.110 GiB by Python driver.
gradient() will perform gradient computation by finite difference of analytic energies.

         ----------------------------------------------------------
                                   FINDIF
                     R. A. King and Jonathon Misiewicz
         ---------------------------------------------------------

  Using finite-differences of energies to determine gradients.
    Generating geometries for use with 3-point formula.
    Displacement size will be 5.00e-03.
    Number of atoms is 2.
    Number of symmetric SALCs is 1.
    Translations projected? 1. Rotations projected? 1.
    Number of geometries (including reference) is 3.

  //>>>>>>>>>>>>>>>>>>>>>>>>>>>>>>>>>>>//
  //    Loading displacement 1 of 3    //
  //<<<<<<<<<<<<<<<<<<<<<<<<<<<<<<<<<<<//

*** tstart() called on bp1-compute00099.data.bp.acrc.priv
*** at Tue Apr 27 18:02:05 2021

   => Loading Basis Set <=

    Name: AUG-CC-PV(D+D)Z
    Role: ORBITAL
    Keyword: BASIS
    atoms 1-2 entry S          line   724 file /work/zw18965/.conda/envs/p4env/share/psi4/basis/aug-cc-pv_dpd_z.gbs 


         ---------------------------------------------------------
                                   SCF
               by Justin Turney, Rob Parrish, Andy Simmonett
                          and Daniel G. A. Smith
                              UKS Reference
                       24 Threads, 137329 MiB Core
         ---------------------------------------------------------

  ==> Geometry <==

    Molecular point group: d2h
    Full point group: D_inf_h

    Geometry (in Angstrom), charge = 0, multiplicity = 3:

       Center              X                  Y                   Z               Mass       
    ------------   -----------------  -----------------  -----------------  -----------------
         S            0.000000000000     0.000000000000    -0.948442295000    31.972071174400
         S            0.000000000000     0.000000000000     0.948442295000    31.972071174400

  Running in d2h symmetry.

  Rotational constants: A = ************  B =      0.29307  C =      0.29307 [cm^-1]
  Rotational constants: A = ************  B =   8786.06895  C =   8786.06895 [MHz]
  Nuclear repulsion =   71.416767601828639

  Charge       = 0
  Multiplicity = 3
  Electrons    = 32
  Nalpha       = 17
  Nbeta        = 15

  ==> Algorithm <==

  SCF Algorithm Type is DF.
  DIIS enabled.
  MOM disabled.
  Fractional occupation disabled.
  Guess Type is SAD.
  Energy threshold   = 1.00e-08
  Density threshold  = 1.00e-08
  Integral threshold = 0.00e+00

  ==> Primary Basis <==

  Basis Set: AUG-CC-PV(D+D)Z
    Blend: AUG-CC-PV(D+D)Z
    Number of shells: 24
    Number of basis function: 64
    Number of Cartesian functions: 70
    Spherical Harmonics?: true
    Max angular momentum: 2

  ==> DFT Potential <==

   => Composite Functional: WB97M-V <= 

    wB97M-V Hyb-GGA Exchange-Correlation Functional

    N. Mardirossian and M. Head-Gordon, J. Chem. Phys. 144, 214110 (2016)

    Deriv               =              1
    GGA                 =           TRUE
    Meta                =           TRUE

    Exchange Hybrid     =           TRUE
    MP2 Hybrid          =          FALSE

   => Exchange-Correlation Functionals <=

    1.0000   wB97M-V exchange-correlation functional

   => Exact (HF) Exchange <=

    0.8500            HF,LR [omega = 0.3000]
    0.1500               HF 

   => VV10 Non-Local Parameters <=

    VV10 B              =     6.0000E+00
    VV10 C              =     1.0000E-02

   => Molecular Quadrature <=

    Radial Scheme          =       TREUTLER
    Pruning Scheme         =           FLAT
    Nuclear Scheme         =       TREUTLER

    BS radius alpha        =              1
    Pruning alpha          =              1
    Radial Points          =             75
    Spherical Points       =            302
    Total Points           =          44778
    Total Blocks           =            418
    Max Points             =            255
    Max Functions          =             64

   => Loading Basis Set <=

    Name: (AUG-CC-PV(D+D)Z AUX)
    Role: JKFIT
    Keyword: DF_BASIS_SCF
    atoms 1-2 entry S          line   690 file /work/zw18965/.conda/envs/p4env/share/psi4/basis/aug-cc-pvdz-jkfit.gbs 

  ==> Pre-Iterations <==

   -------------------------------------------------------
    Irrep   Nso     Nmo     Nalpha   Nbeta   Ndocc  Nsocc
   -------------------------------------------------------
     Ag        15      15       0       0       0       0
     B1g        3       3       0       0       0       0
     B2g        7       7       0       0       0       0
     B3g        7       7       0       0       0       0
     Au         3       3       0       0       0       0
     B1u       15      15       0       0       0       0
     B2u        7       7       0       0       0       0
     B3u        7       7       0       0       0       0
   -------------------------------------------------------
    Total      64      64      17      15      15       2
   -------------------------------------------------------

  ==> Integral Setup <==

  ==> DiskDFJK: Density-Fitted J/K Matrices <==

    J tasked:                  Yes
    K tasked:                  Yes
    wK tasked:                 Yes
    Omega:               3.000E-01
    OpenMP threads:             24
    Integrals threads:          24
    Memory [MiB]:           102805
    Algorithm:                Core
    Integral Cache:           NONE
    Schwarz Cutoff:          1E-12
    Fitting Condition:       1E-10

   => Auxiliary Basis Set <=

  Basis Set: (AUG-CC-PV(D+D)Z AUX)
    Blend: AUG-CC-PVDZ-JKFIT
    Number of shells: 80
    Number of basis function: 256
    Number of Cartesian functions: 300
    Spherical Harmonics?: true
    Max angular momentum: 3

  Cached 100.0% of DFT collocation blocks in 0.187 [GiB].

  Minimum eigenvalue in the overlap matrix is 1.1633383122E-03.
  Using Symmetric Orthogonalization.

  SCF Guess: Superposition of Atomic Densities via on-the-fly atomic UHF.

  ==> Iterations <==

                           Total Energy        Delta E     RMS |[F,P]|

   @DF-UKS iter SAD:  -796.03189419610828   -7.96032e+02   0.00000e+00 
   @DF-UKS iter   1:  -796.32872930253052   -2.96835e-01   4.88133e-03 DIIS
   @DF-UKS iter   2:  -796.33878440421051   -1.00551e-02   1.63111e-03 DIIS
   @DF-UKS iter   3:  -796.33953963669660   -7.55232e-04   3.12699e-04 DIIS
   @DF-UKS iter   4:  -796.33964237379143   -1.02737e-04   1.07061e-04 DIIS
   @DF-UKS iter   5:  -796.33965075555784   -8.38177e-06   3.16864e-05 DIIS
   @DF-UKS iter   6:  -796.33965127698366   -5.21426e-07   5.20334e-06 DIIS
   @DF-UKS iter   7:  -796.33965130111653   -2.41329e-08   8.34849e-07 DIIS
   @DF-UKS iter   8:  -796.33965130199113   -8.74593e-10   1.25315e-07 DIIS
   @DF-UKS iter   9:  -796.33965130201011   -1.89857e-11   1.45523e-08 DIIS
   @DF-UKS iter  10:  -796.33965130201068   -5.68434e-13   2.05026e-09 DIIS
  Energy and wave function converged.


  ==> Post-Iterations <==

   @Spin Contamination Metric:   8.503357374E-03
   @S^2 Expected:                2.000000000E+00
   @S^2 Observed:                2.008503357E+00
   @S   Expected:                1.000000000E+00
   @S   Observed:                1.000000000E+00

    Orbital Energies [Eh]
    ---------------------

    Alpha Occupied:                                                       

       1B1u  -89.257780     1Ag   -89.257779     2Ag    -8.176527  
       2B1u   -8.176514     1B3u   -6.084924     1B2u   -6.084924  
       1B2g   -6.084884     1B3g   -6.084884     3Ag    -6.084325  
       3B1u   -6.083597     4Ag    -0.966160     4B1u   -0.749341  
       5Ag    -0.500048     2B2u   -0.480176     2B3u   -0.480176  
       2B3g   -0.334342     2B2g   -0.334342  

    Alpha Virtual:                                                        

       5B1u    0.031020     6Ag     0.076263     3B2u    0.083358  
       3B3u    0.083358     7Ag     0.095083     6B1u    0.114239  
       3B3g    0.116187     3B2g    0.116187     7B1u    0.223948  
       8Ag     0.240508     1B1g    0.240509     4B3u    0.268762  
       4B2u    0.268762     9Ag     0.353671     8B1u    0.372867  
       1Au     0.372870     4B3g    0.514463     4B2g    0.514463  
       9B1u    0.540544     5B2u    0.670961     5B3u    0.670961  
      10B1u    0.730361    10Ag     0.741953     5B3g    0.771811  
       5B2g    0.771811     6B3u    0.836643     6B2u    0.836643  
      11Ag     0.849510    12Ag     0.866634     2B1g    0.866645  
      11B1u    0.923647     2Au     0.923657    13Ag     0.934615  
       6B2g    1.020677     6B3g    1.020677    12B1u    1.162618  
      13B1u    1.565607     7B2u    4.574109     7B3u    4.574109  
      14Ag     4.621013     3B1g    4.621019    14B1u    4.667735  
       3Au     4.667740    15Ag     4.671405     7B2g    4.778883  
       7B3g    4.778883    15B1u    4.840264  

    Beta Occupied:                                                        

       1Ag   -89.251598     1B1u  -89.251597     2Ag    -8.170311  
       2B1u   -8.170215     3Ag    -6.080457     3B1u   -6.079726  
       1B3u   -6.071657     1B2u   -6.071657     1B2g   -6.071602  
       1B3g   -6.071602     4Ag    -0.940396     4B1u   -0.694222  
       5Ag    -0.473492     2B2u   -0.424601     2B3u   -0.424601  

    Beta Virtual:                                                         

       2B2g   -0.064695     2B3g   -0.064695     5B1u    0.033006  
       6Ag     0.074655     3B2u    0.082845     3B3u    0.082845  
       7Ag     0.096906     3B3g    0.117908     3B2g    0.117908  
       6B1u    0.130613     7B1u    0.223247     1B1g    0.255451  
       8Ag     0.255453     4B2u    0.298576     4B3u    0.298576  
       9Ag     0.363598     8B1u    0.399933     1Au     0.399933  
       4B3g    0.528860     4B2g    0.528860     9B1u    0.551849  
       5B2u    0.694546     5B3u    0.694546    10B1u    0.743044  
      10Ag     0.766539     5B3g    0.794503     5B2g    0.794503  
       6B3u    0.849111     6B2u    0.849111    11Ag     0.855406  
      12Ag     0.895735     2B1g    0.895746    13Ag     0.949481  
      11B1u    0.949924     2Au     0.949937     6B2g    1.039469  
       6B3g    1.039469    12B1u    1.179278    13B1u    1.589108  
       7B2u    4.581364     7B3u    4.581364    14Ag     4.637059  
       3B1g    4.637082    15Ag     4.675656    14B1u    4.683917  
       3Au     4.683942     7B2g    4.787273     7B3g    4.787273  
      15B1u    4.846837  

    Final Occupation by Irrep:
             Ag   B1g   B2g   B3g    Au   B1u   B2u   B3u 
    DOCC [     5,    0,    1,    1,    0,    4,    2,    2 ]
    SOCC [     0,    0,    1,    1,    0,    0,    0,    0 ]

  @DF-UKS Final Energy:  -796.33965130201068

   => Energetics <=

    Nuclear Repulsion Energy =             71.4167676018286386
    One-Electron Energy =               -1241.2737606860785036
    Two-Electron Energy =                 412.9628353047004339
    DFT Exchange-Correlation Energy =     -39.5790917198821788
    Empirical Dispersion Energy =           0.0000000000000000
    VV10 Nonlocal Energy =                  0.1335981974210330
    Total Energy =                       -796.3396513020104521

  UHF NO Occupations:
  HONO-2 :    2B3u 1.9980886
  HONO-1 :    2B2g 1.0000000
  HONO-0 :    2B3g 1.0000000
  LUNO+0 :    3B3u 0.0019114
  LUNO+1 :    3B2u 0.0019114
  LUNO+2 :    5B1u 0.0002221
  LUNO+3 :    6 Ag 0.0001726


Computation Completed


Properties will be evaluated at   0.000000,   0.000000,   0.000000 [a0]

Properties computed using the SCF density matrix

  Nuclear Dipole Moment: [e a0]
     X:     0.0000      Y:     0.0000      Z:     0.0000

  Electronic Dipole Moment: [e a0]
     X:     0.0000      Y:     0.0000      Z:     0.0000

  Dipole Moment: [e a0]
     X:     0.0000      Y:     0.0000      Z:     0.0000     Total:     0.0000

  Dipole Moment: [D]
     X:     0.0000      Y:     0.0000      Z:     0.0000     Total:     0.0000


*** tstop() called on bp1-compute00099.data.bp.acrc.priv at Tue Apr 27 18:02:10 2021
Module time:
	user time   =     120.02 seconds =       2.00 minutes
	system time =       6.18 seconds =       0.10 minutes
	total time  =          5 seconds =       0.08 minutes
Total time:
	user time   =     120.02 seconds =       2.00 minutes
	system time =       6.18 seconds =       0.10 minutes
	total time  =          5 seconds =       0.08 minutes

  //>>>>>>>>>>>>>>>>>>>>>>>>>>>>>>>>>>>//
  //    Loading displacement 2 of 3    //
  //<<<<<<<<<<<<<<<<<<<<<<<<<<<<<<<<<<<//

*** tstart() called on bp1-compute00099.data.bp.acrc.priv
*** at Tue Apr 27 18:02:10 2021

   => Loading Basis Set <=

    Name: AUG-CC-PV(D+D)Z
    Role: ORBITAL
    Keyword: BASIS
    atoms 1-2 entry S          line   724 file /work/zw18965/.conda/envs/p4env/share/psi4/basis/aug-cc-pv_dpd_z.gbs 


         ---------------------------------------------------------
                                   SCF
               by Justin Turney, Rob Parrish, Andy Simmonett
                          and Daniel G. A. Smith
                              UKS Reference
                       24 Threads, 137329 MiB Core
         ---------------------------------------------------------

  ==> Geometry <==

    Molecular point group: d2h
    Full point group: D_inf_h

    Geometry (in Angstrom), charge = 0, multiplicity = 3:

       Center              X                  Y                   Z               Mass       
    ------------   -----------------  -----------------  -----------------  -----------------
         S            0.000000000000     0.000000000000    -0.948773175180    31.972071174400
         S            0.000000000000     0.000000000000     0.948773175180    31.972071174400

  Running in d2h symmetry.

  Rotational constants: A = ************  B =      0.29287  C =      0.29287 [cm^-1]
  Rotational constants: A = ************  B =   8779.94182  C =   8779.94182 [MHz]
  Nuclear repulsion =   71.391861340186367

  Charge       = 0
  Multiplicity = 3
  Electrons    = 32
  Nalpha       = 17
  Nbeta        = 15

  ==> Algorithm <==

  SCF Algorithm Type is DF.
  DIIS enabled.
  MOM disabled.
  Fractional occupation disabled.
  Guess Type is SAD.
  Energy threshold   = 1.00e-08
  Density threshold  = 1.00e-08
  Integral threshold = 0.00e+00

  ==> Primary Basis <==

  Basis Set: AUG-CC-PV(D+D)Z
    Blend: AUG-CC-PV(D+D)Z
    Number of shells: 24
    Number of basis function: 64
    Number of Cartesian functions: 70
    Spherical Harmonics?: true
    Max angular momentum: 2

  ==> DFT Potential <==

   => Composite Functional: WB97M-V <= 

    wB97M-V Hyb-GGA Exchange-Correlation Functional

    N. Mardirossian and M. Head-Gordon, J. Chem. Phys. 144, 214110 (2016)

    Deriv               =              1
    GGA                 =           TRUE
    Meta                =           TRUE

    Exchange Hybrid     =           TRUE
    MP2 Hybrid          =          FALSE

   => Exchange-Correlation Functionals <=

    1.0000   wB97M-V exchange-correlation functional

   => Exact (HF) Exchange <=

    0.8500            HF,LR [omega = 0.3000]
    0.1500               HF 

   => VV10 Non-Local Parameters <=

    VV10 B              =     6.0000E+00
    VV10 C              =     1.0000E-02

   => Molecular Quadrature <=

    Radial Scheme          =       TREUTLER
    Pruning Scheme         =           FLAT
    Nuclear Scheme         =       TREUTLER

    BS radius alpha        =              1
    Pruning alpha          =              1
    Radial Points          =             75
    Spherical Points       =            302
    Total Points           =          44778
    Total Blocks           =            418
    Max Points             =            255
    Max Functions          =             64

   => Loading Basis Set <=

    Name: (AUG-CC-PV(D+D)Z AUX)
    Role: JKFIT
    Keyword: DF_BASIS_SCF
    atoms 1-2 entry S          line   690 file /work/zw18965/.conda/envs/p4env/share/psi4/basis/aug-cc-pvdz-jkfit.gbs 

  ==> Pre-Iterations <==

   -------------------------------------------------------
    Irrep   Nso     Nmo     Nalpha   Nbeta   Ndocc  Nsocc
   -------------------------------------------------------
     Ag        15      15       0       0       0       0
     B1g        3       3       0       0       0       0
     B2g        7       7       0       0       0       0
     B3g        7       7       0       0       0       0
     Au         3       3       0       0       0       0
     B1u       15      15       0       0       0       0
     B2u        7       7       0       0       0       0
     B3u        7       7       0       0       0       0
   -------------------------------------------------------
    Total      64      64      17      15      15       2
   -------------------------------------------------------

  ==> Integral Setup <==

  ==> DiskDFJK: Density-Fitted J/K Matrices <==

    J tasked:                  Yes
    K tasked:                  Yes
    wK tasked:                 Yes
    Omega:               3.000E-01
    OpenMP threads:             24
    Integrals threads:          24
    Memory [MiB]:           102805
    Algorithm:                Core
    Integral Cache:           NONE
    Schwarz Cutoff:          1E-12
    Fitting Condition:       1E-10

   => Auxiliary Basis Set <=

  Basis Set: (AUG-CC-PV(D+D)Z AUX)
    Blend: AUG-CC-PVDZ-JKFIT
    Number of shells: 80
    Number of basis function: 256
    Number of Cartesian functions: 300
    Spherical Harmonics?: true
    Max angular momentum: 3

  Cached 100.0% of DFT collocation blocks in 0.187 [GiB].

  Minimum eigenvalue in the overlap matrix is 1.1660228102E-03.
  Using Symmetric Orthogonalization.

  SCF Guess: Superposition of Atomic Densities via on-the-fly atomic UHF.

  ==> Iterations <==

                           Total Energy        Delta E     RMS |[F,P]|

   @DF-UKS iter SAD:  -796.03087218424025   -7.96031e+02   0.00000e+00 
   @DF-UKS iter   1:  -796.32873160551298   -2.97859e-01   4.88042e-03 DIIS
   @DF-UKS iter   2:  -796.33878100497896   -1.00494e-02   1.63181e-03 DIIS
   @DF-UKS iter   3:  -796.33953653963351   -7.55535e-04   3.12899e-04 DIIS
   @DF-UKS iter   4:  -796.33963931864560   -1.02779e-04   1.07352e-04 DIIS
   @DF-UKS iter   5:  -796.33964773587877   -8.41723e-06   3.17032e-05 DIIS
   @DF-UKS iter   6:  -796.33964825843270   -5.22554e-07   5.20092e-06 DIIS
   @DF-UKS iter   7:  -796.33964828257172   -2.41390e-08   8.34948e-07 DIIS
   @DF-UKS iter   8:  -796.33964828344722   -8.75502e-10   1.25330e-07 DIIS
   @DF-UKS iter   9:  -796.33964828346643   -1.92131e-11   1.45526e-08 DIIS
   @DF-UKS iter  10:  -796.33964828346643    0.00000e+00   2.05049e-09 DIIS
  Energy and wave function converged.


  ==> Post-Iterations <==

   @Spin Contamination Metric:   8.508959745E-03
   @S^2 Expected:                2.000000000E+00
   @S^2 Observed:                2.008508960E+00
   @S   Expected:                1.000000000E+00
   @S   Observed:                1.000000000E+00

    Orbital Energies [Eh]
    ---------------------

    Alpha Occupied:                                                       

       1B1u  -89.257839     1Ag   -89.257837     2Ag    -8.176565  
       2B1u   -8.176553     1B2u   -6.084964     1B3u   -6.084964  
       1B3g   -6.084924     1B2g   -6.084924     3Ag    -6.084364  
       3B1u   -6.083639     4Ag    -0.965991     4B1u   -0.749418  
       5Ag    -0.500007     2B2u   -0.480093     2B3u   -0.480093  
       2B3g   -0.334417     2B2g   -0.334417  

    Alpha Virtual:                                                        

       5B1u    0.030958     6Ag     0.076258     3B2u    0.083368  
       3B3u    0.083368     7Ag     0.095095     6B1u    0.114083  
       3B2g    0.116179     3B3g    0.116179     7B1u    0.223933  
       8Ag     0.240536     1B1g    0.240538     4B3u    0.268730  
       4B2u    0.268730     9Ag     0.353708     8B1u    0.372817  
       1Au     0.372821     4B3g    0.514363     4B2g    0.514363  
       9B1u    0.540406     5B2u    0.670968     5B3u    0.670968  
      10B1u    0.730407    10Ag     0.741972     5B2g    0.771779  
       5B3g    0.771779     6B3u    0.836765     6B2u    0.836765  
      11Ag     0.849577    12Ag     0.866662     2B1g    0.866673  
      11B1u    0.923609     2Au     0.923619    13Ag     0.934469  
       6B3g    1.020503     6B2g    1.020503    12B1u    1.162137  
      13B1u    1.565142     7B2u    4.574097     7B3u    4.574097  
      14Ag     4.621023     3B1g    4.621029    14B1u    4.667670  
       3Au     4.667676    15Ag     4.670973     7B3g    4.778728  
       7B2g    4.778728    15B1u    4.840420  

    Beta Occupied:                                                        

       1Ag   -89.251656     1B1u  -89.251656     2Ag    -8.170348  
       2B1u   -8.170253     3Ag    -6.080495     3B1u   -6.079767  
       1B2u   -6.071695     1B3u   -6.071695     1B3g   -6.071640  
       1B2g   -6.071640     4Ag    -0.940213     4B1u   -0.694302  
       5Ag    -0.473457     2B2u   -0.424497     2B3u   -0.424497  

    Beta Virtual:                                                         

       2B3g   -0.064774     2B2g   -0.064774     5B1u    0.032965  
       6Ag     0.074653     3B2u    0.082863     3B3u    0.082863  
       7Ag     0.096921     3B3g    0.117901     3B2g    0.117901  
       6B1u    0.130443     7B1u    0.223231     1B1g    0.255479  
       8Ag     0.255480     4B3u    0.298533     4B2u    0.298533  
       9Ag     0.363641     8B1u    0.399885     1Au     0.399885  
       4B3g    0.528763     4B2g    0.528763     9B1u    0.551708  
       5B2u    0.694561     5B3u    0.694561    10B1u    0.743098  
      10Ag     0.766555     5B2g    0.794475     5B3g    0.794475  
       6B3u    0.849232     6B2u    0.849232    11Ag     0.855502  
      12Ag     0.895771     2B1g    0.895782    13Ag     0.949303  
      11B1u    0.949889     2Au     0.949902     6B2g    1.039288  
       6B3g    1.039288    12B1u    1.178796    13B1u    1.588636  
       7B2u    4.581352     7B3u    4.581352    14Ag     4.637071  
       3B1g    4.637094    15Ag     4.675224    14B1u    4.683854  
       3Au     4.683878     7B3g    4.787116     7B2g    4.787116  
      15B1u    4.846989  

    Final Occupation by Irrep:
             Ag   B1g   B2g   B3g    Au   B1u   B2u   B3u 
    DOCC [     5,    0,    1,    1,    0,    4,    2,    2 ]
    SOCC [     0,    0,    1,    1,    0,    0,    0,    0 ]

  @DF-UKS Final Energy:  -796.33964828346643

   => Energetics <=

    Nuclear Repulsion Energy =             71.3918613401863666
    One-Electron Energy =               -1241.2237324067341433
    Two-Electron Energy =                 412.9374519416304565
    DFT Exchange-Correlation Energy =     -39.5788282063654222
    Empirical Dispersion Energy =           0.0000000000000000
    VV10 Nonlocal Energy =                  0.1335990478161574
    Total Energy =                       -796.3396482834666585

  UHF NO Occupations:
  HONO-2 :    2B3u 1.9980872
  HONO-1 :    2B2g 1.0000000
  HONO-0 :    2B3g 1.0000000
  LUNO+0 :    3B3u 0.0019128
  LUNO+1 :    3B2u 0.0019128
  LUNO+2 :    5B1u 0.0002221
  LUNO+3 :    6 Ag 0.0001726


Computation Completed


Properties will be evaluated at   0.000000,   0.000000,   0.000000 [a0]

Properties computed using the SCF density matrix

  Nuclear Dipole Moment: [e a0]
     X:     0.0000      Y:     0.0000      Z:     0.0000

  Electronic Dipole Moment: [e a0]
     X:     0.0000      Y:     0.0000      Z:     0.0000

  Dipole Moment: [e a0]
     X:     0.0000      Y:     0.0000      Z:     0.0000     Total:     0.0000

  Dipole Moment: [D]
     X:     0.0000      Y:     0.0000      Z:     0.0000     Total:     0.0000


*** tstop() called on bp1-compute00099.data.bp.acrc.priv at Tue Apr 27 18:02:16 2021
Module time:
	user time   =     120.07 seconds =       2.00 minutes
	system time =       5.14 seconds =       0.09 minutes
	total time  =          6 seconds =       0.10 minutes
Total time:
	user time   =     240.28 seconds =       4.00 minutes
	system time =      11.33 seconds =       0.19 minutes
	total time  =         11 seconds =       0.18 minutes

  //>>>>>>>>>>>>>>>>>>>>>>>>>>>>>>>>>>>//
  //    Loading displacement 3 of 3    //
  //<<<<<<<<<<<<<<<<<<<<<<<<<<<<<<<<<<<//

*** tstart() called on bp1-compute00099.data.bp.acrc.priv
*** at Tue Apr 27 18:02:16 2021

   => Loading Basis Set <=

    Name: AUG-CC-PV(D+D)Z
    Role: ORBITAL
    Keyword: BASIS
    atoms 1-2 entry S          line   724 file /work/zw18965/.conda/envs/p4env/share/psi4/basis/aug-cc-pv_dpd_z.gbs 


         ---------------------------------------------------------
                                   SCF
               by Justin Turney, Rob Parrish, Andy Simmonett
                          and Daniel G. A. Smith
                              UKS Reference
                       24 Threads, 137329 MiB Core
         ---------------------------------------------------------

  ==> Geometry <==

    Molecular point group: d2h
    Full point group: D_inf_h

    Geometry (in Angstrom), charge = 0, multiplicity = 3:

       Center              X                  Y                   Z               Mass       
    ------------   -----------------  -----------------  -----------------  -----------------
         S            0.000000000000     0.000000000000    -0.948111414820    31.972071174400
         S            0.000000000000     0.000000000000     0.948111414820    31.972071174400

  Running in d2h symmetry.

  Rotational constants: A = ************  B =      0.29328  C =      0.29328 [cm^-1]
  Rotational constants: A = ************  B =   8792.20250  C =   8792.20250 [MHz]
  Nuclear repulsion =   71.441691247479170

  Charge       = 0
  Multiplicity = 3
  Electrons    = 32
  Nalpha       = 17
  Nbeta        = 15

  ==> Algorithm <==

  SCF Algorithm Type is DF.
  DIIS enabled.
  MOM disabled.
  Fractional occupation disabled.
  Guess Type is SAD.
  Energy threshold   = 1.00e-08
  Density threshold  = 1.00e-08
  Integral threshold = 0.00e+00

  ==> Primary Basis <==

  Basis Set: AUG-CC-PV(D+D)Z
    Blend: AUG-CC-PV(D+D)Z
    Number of shells: 24
    Number of basis function: 64
    Number of Cartesian functions: 70
    Spherical Harmonics?: true
    Max angular momentum: 2

  ==> DFT Potential <==

   => Composite Functional: WB97M-V <= 

    wB97M-V Hyb-GGA Exchange-Correlation Functional

    N. Mardirossian and M. Head-Gordon, J. Chem. Phys. 144, 214110 (2016)

    Deriv               =              1
    GGA                 =           TRUE
    Meta                =           TRUE

    Exchange Hybrid     =           TRUE
    MP2 Hybrid          =          FALSE

   => Exchange-Correlation Functionals <=

    1.0000   wB97M-V exchange-correlation functional

   => Exact (HF) Exchange <=

    0.8500            HF,LR [omega = 0.3000]
    0.1500               HF 

   => VV10 Non-Local Parameters <=

    VV10 B              =     6.0000E+00
    VV10 C              =     1.0000E-02

   => Molecular Quadrature <=

    Radial Scheme          =       TREUTLER
    Pruning Scheme         =           FLAT
    Nuclear Scheme         =       TREUTLER

    BS radius alpha        =              1
    Pruning alpha          =              1
    Radial Points          =             75
    Spherical Points       =            302
    Total Points           =          44778
    Total Blocks           =            418
    Max Points             =            255
    Max Functions          =             64

   => Loading Basis Set <=

    Name: (AUG-CC-PV(D+D)Z AUX)
    Role: JKFIT
    Keyword: DF_BASIS_SCF
    atoms 1-2 entry S          line   690 file /work/zw18965/.conda/envs/p4env/share/psi4/basis/aug-cc-pvdz-jkfit.gbs 

  ==> Pre-Iterations <==

   -------------------------------------------------------
    Irrep   Nso     Nmo     Nalpha   Nbeta   Ndocc  Nsocc
   -------------------------------------------------------
     Ag        15      15       0       0       0       0
     B1g        3       3       0       0       0       0
     B2g        7       7       0       0       0       0
     B3g        7       7       0       0       0       0
     Au         3       3       0       0       0       0
     B1u       15      15       0       0       0       0
     B2u        7       7       0       0       0       0
     B3u        7       7       0       0       0       0
   -------------------------------------------------------
    Total      64      64      17      15      15       2
   -------------------------------------------------------

  ==> Integral Setup <==

  ==> DiskDFJK: Density-Fitted J/K Matrices <==

    J tasked:                  Yes
    K tasked:                  Yes
    wK tasked:                 Yes
    Omega:               3.000E-01
    OpenMP threads:             24
    Integrals threads:          24
    Memory [MiB]:           102805
    Algorithm:                Core
    Integral Cache:           NONE
    Schwarz Cutoff:          1E-12
    Fitting Condition:       1E-10

   => Auxiliary Basis Set <=

  Basis Set: (AUG-CC-PV(D+D)Z AUX)
    Blend: AUG-CC-PVDZ-JKFIT
    Number of shells: 80
    Number of basis function: 256
    Number of Cartesian functions: 300
    Spherical Harmonics?: true
    Max angular momentum: 3

  Cached 100.0% of DFT collocation blocks in 0.187 [GiB].

  Minimum eigenvalue in the overlap matrix is 1.1606597221E-03.
  Using Symmetric Orthogonalization.

  SCF Guess: Superposition of Atomic Densities via on-the-fly atomic UHF.

  ==> Iterations <==

                           Total Energy        Delta E     RMS |[F,P]|

   @DF-UKS iter SAD:  -796.03289277416570   -7.96033e+02   0.00000e+00 
   @DF-UKS iter   1:  -796.32872678584636   -2.95834e-01   4.88227e-03 DIIS
   @DF-UKS iter   2:  -796.33878728166792   -1.00605e-02   1.63044e-03 DIIS
   @DF-UKS iter   3:  -796.33954220157511   -7.54920e-04   3.12498e-04 DIIS
   @DF-UKS iter   4:  -796.33964489151754   -1.02690e-04   1.06777e-04 DIIS
   @DF-UKS iter   5:  -796.33965323887890   -8.34736e-06   3.16698e-05 DIIS
   @DF-UKS iter   6:  -796.33965375919524   -5.20316e-07   5.20550e-06 DIIS
   @DF-UKS iter   7:  -796.33965378332084   -2.41256e-08   8.34736e-07 DIIS
   @DF-UKS iter   8:  -796.33965378419475   -8.73911e-10   1.25299e-07 DIIS
   @DF-UKS iter   9:  -796.33965378421476   -2.00089e-11   1.45515e-08 DIIS
   @DF-UKS iter  10:  -796.33965378421476    0.00000e+00   2.04997e-09 DIIS
  Energy and wave function converged.


  ==> Post-Iterations <==

   @Spin Contamination Metric:   8.497755574E-03
   @S^2 Expected:                2.000000000E+00
   @S^2 Observed:                2.008497756E+00
   @S   Expected:                1.000000000E+00
   @S   Observed:                1.000000000E+00

    Orbital Energies [Eh]
    ---------------------

    Alpha Occupied:                                                       

       1B1u  -89.257721     1Ag   -89.257720     2Ag    -8.176489  
       2B1u   -8.176476     1B3u   -6.084884     1B2u   -6.084884  
       1B2g   -6.084845     1B3g   -6.084845     3Ag    -6.084287  
       3B1u   -6.083555     4Ag    -0.966329     4B1u   -0.749264  
       5Ag    -0.500089     2B2u   -0.480259     2B3u   -0.480259  
       2B3g   -0.334266     2B2g   -0.334266  

    Alpha Virtual:                                                        

       5B1u    0.031082     6Ag     0.076268     3B2u    0.083348  
       3B3u    0.083348     7Ag     0.095072     6B1u    0.114395  
       3B2g    0.116195     3B3g    0.116195     7B1u    0.223963  
       8Ag     0.240479     1B1g    0.240481     4B2u    0.268793  
       4B3u    0.268793     9Ag     0.353635     8B1u    0.372917  
       1Au     0.372920     4B2g    0.514563     4B3g    0.514563  
       9B1u    0.540683     5B3u    0.670953     5B2u    0.670953  
      10B1u    0.730316    10Ag     0.741934     5B2g    0.771843  
       5B3g    0.771843     6B2u    0.836521     6B3u    0.836521  
      11Ag     0.849442    12Ag     0.866606     2B1g    0.866617  
      11B1u    0.923684     2Au     0.923694    13Ag     0.934760  
       6B3g    1.020852     6B2g    1.020852    12B1u    1.163099  
      13B1u    1.566072     7B2u    4.574121     7B3u    4.574121  
      14Ag     4.621003     3B1g    4.621008    14B1u    4.667799  
       3Au     4.667805    15Ag     4.671838     7B3g    4.779037  
       7B2g    4.779037    15B1u    4.840107  

    Beta Occupied:                                                        

       1Ag   -89.251539     1B1u  -89.251539     2Ag    -8.170273  
       2B1u   -8.170177     3Ag    -6.080419     3B1u   -6.079685  
       1B3u   -6.071618     1B2u   -6.071618     1B2g   -6.071563  
       1B3g   -6.071563     4Ag    -0.940580     4B1u   -0.694143  
       5Ag    -0.473526     2B2u   -0.424706     2B3u   -0.424706  

    Beta Virtual:                                                         

       2B3g   -0.064617     2B2g   -0.064617     5B1u    0.033047  
       6Ag     0.074658     3B3u    0.082828     3B2u    0.082828  
       7Ag     0.096891     3B2g    0.117914     3B3g    0.117914  
       6B1u    0.130783     7B1u    0.223263     1B1g    0.255424  
       8Ag     0.255425     4B3u    0.298619     4B2u    0.298619  
       9Ag     0.363556     8B1u    0.399981     1Au     0.399981  
       4B2g    0.528956     4B3g    0.528956     9B1u    0.551989  
       5B3u    0.694530     5B2u    0.694530    10B1u    0.742989  
      10Ag     0.766522     5B2g    0.794530     5B3g    0.794530  
       6B3u    0.848989     6B2u    0.848989    11Ag     0.855309  
      12Ag     0.895699     2B1g    0.895710    13Ag     0.949659  
      11B1u    0.949960     2Au     0.949973     6B2g    1.039652  
       6B3g    1.039652    12B1u    1.179761    13B1u    1.589580  
       7B2u    4.581376     7B3u    4.581376    14Ag     4.637046  
       3B1g    4.637070    15Ag     4.676090    14B1u    4.683981  
       3Au     4.684005     7B3g    4.787429     7B2g    4.787429  
      15B1u    4.846683  

    Final Occupation by Irrep:
             Ag   B1g   B2g   B3g    Au   B1u   B2u   B3u 
    DOCC [     5,    0,    1,    1,    0,    4,    2,    2 ]
    SOCC [     0,    0,    1,    1,    0,    0,    0,    0 ]

  @DF-UKS Final Energy:  -796.33965378421476

   => Energetics <=

    Nuclear Repulsion Energy =             71.4416912474791701
    One-Electron Energy =               -1241.3238225040731777
    Two-Electron Energy =                 412.9882356840660123
    DFT Exchange-Correlation Energy =     -39.5793555589310841
    Empirical Dispersion Energy =           0.0000000000000000
    VV10 Nonlocal Energy =                  0.1335973472444901
    Total Energy =                       -796.3396537842145335

  UHF NO Occupations:
  HONO-2 :    2B3u 1.9980900
  HONO-1 :    2B2g 1.0000000
  HONO-0 :    2B3g 1.0000000
  LUNO+0 :    3B3u 0.0019100
  LUNO+1 :    3B2u 0.0019100
  LUNO+2 :    5B1u 0.0002222
  LUNO+3 :    6 Ag 0.0001727


Computation Completed


Properties will be evaluated at   0.000000,   0.000000,   0.000000 [a0]

Properties computed using the SCF density matrix

  Nuclear Dipole Moment: [e a0]
     X:     0.0000      Y:     0.0000      Z:     0.0000

  Electronic Dipole Moment: [e a0]
     X:     0.0000      Y:     0.0000      Z:     0.0000

  Dipole Moment: [e a0]
     X:     0.0000      Y:     0.0000      Z:     0.0000     Total:     0.0000

  Dipole Moment: [D]
     X:     0.0000      Y:     0.0000      Z:     0.0000     Total:     0.0000


*** tstop() called on bp1-compute00099.data.bp.acrc.priv at Tue Apr 27 18:02:21 2021
Module time:
	user time   =     115.65 seconds =       1.93 minutes
	system time =       5.12 seconds =       0.09 minutes
	total time  =          5 seconds =       0.08 minutes
Total time:
	user time   =     356.08 seconds =       5.93 minutes
	system time =      16.45 seconds =       0.27 minutes
	total time  =         16 seconds =       0.27 minutes

         ----------------------------------------------------------
                                   FINDIF
                     R. A. King and Jonathon Misiewicz
         ---------------------------------------------------------

  Computing gradient from energies.
    Using 3-point formula.
    Energy without displacement: -796.3396513020
    Check energies below for precision!
    Forces are for mass-weighted, symmetry-adapted cartesians (in au).

     Coord      Energy(-1)        Energy(+1)            Force
        0   -796.3396482835   -796.3396537842     -0.0005500748


-------------------------------------------------------------
  ## New Matrix (Symmetry 0) ##
  Irrep: 1 Size: 2 x 3

                 1                   2                   3

    1     0.00000000000000     0.00000000000000    -0.00219933893829
    2     0.00000000000000     0.00000000000000     0.00219933893829




			-----------------------------------------
			 OPTKING 2.0: for geometry optimizations 
			  - R.A. King,  Bethel University        
			-----------------------------------------
	At level 1: Red. Int., RFO, no backsteps, dynamic trust

	Internal coordinates to be generated automatically.
	Detected frag 1 with atoms:  1 2
	---Fragment 1 Bond Connectivity---
	 1 : 2
	 2 : 1

	---Fragment 1 Geometry and Gradient---
	 S           0.0000000000        0.0000000000       -1.7922961834
	 S           0.0000000000        0.0000000000        1.7922961834
	             0.0000000000        0.0000000000       -0.0021993389
	             0.0000000000        0.0000000000        0.0021993389

	Previous optimization step data not found.  Starting new optimization.

	---Fragment 1 Intrafragment Coordinates---
	 - Coordinate -           - BOHR/RAD -       - ANG/DEG -
	 R(1,2)           =         3.584592	       1.896885

	Current energy   :      -796.3396513020

	Generating empirical Hessian (Schlegel '84) for each fragment.
	Taking RFO optimization step.
	Going to follow RFO solution 1.
	Using RFO vector 1.
	Norm of target step-size    0.00442
	Projected energy change by RFO approximation:         0.0000000566

	Back-transformation to cartesian coordinates...
	Successfully converged to displaced geometry.

	--- Internal Coordinate Step in ANG or DEG, aJ/ANG or AJ/DEG ---
	 ---------------------------------------------------------------------------
	   Coordinate                Previous        Force       Change         New 
	   ----------                --------       ------       ------       ------
	    1 R(1,2)          =      1.896885    -0.018120    -0.002341     1.894543
	 ---------------------------------------------------------------------------
	Successfully symmetrized geometry.

  ==> Convergence Check <==

  Measures of convergence in internal coordinates in au.
  Criteria marked as inactive (o), active & met (*), and active & unmet ( ).
  --------------------------------------------------------------------------------------------- ~
   Step     Total Energy     Delta E     MAX Force     RMS Force      MAX Disp      RMS Disp    ~
  --------------------------------------------------------------------------------------------- ~
    Convergence Criteria    1.00e-06 *    3.00e-04 *             o    1.20e-03 *             o  ~
  --------------------------------------------------------------------------------------------- ~
      1    -796.33965130   -7.96e+02      2.20e-03      2.20e-03 o    4.42e-03      4.42e-03 o  ~
  ---------------------------------------------------------------------------------------------

	Writing optimization data to binary file.
	Structure for next step:
	Cartesian Geometry (in Angstrom)
	    S     0.0000000000   0.0000000000  -0.9472716811
	    S     0.0000000000   0.0000000000   0.9472716811
			--------------------------
			 OPTKING Finished Execution 
			--------------------------

    Structure for next step:
    Molecular point group: d2h
    Full point group: D_inf_h

    Geometry (in Angstrom), charge = 0, multiplicity = 3:

    S            0.000000000000     0.000000000000    -0.947271684801
    S            0.000000000000     0.000000000000     0.947271684801

gradient() will perform gradient computation by finite difference of analytic energies.

         ----------------------------------------------------------
                                   FINDIF
                     R. A. King and Jonathon Misiewicz
         ---------------------------------------------------------

  Using finite-differences of energies to determine gradients.
    Generating geometries for use with 3-point formula.
    Displacement size will be 5.00e-03.
    Number of atoms is 2.
    Number of symmetric SALCs is 1.
    Translations projected? 1. Rotations projected? 1.
    Number of geometries (including reference) is 3.

  //>>>>>>>>>>>>>>>>>>>>>>>>>>>>>>>>>>>//
  //    Loading displacement 1 of 3    //
  //<<<<<<<<<<<<<<<<<<<<<<<<<<<<<<<<<<<//

*** tstart() called on bp1-compute00099.data.bp.acrc.priv
*** at Tue Apr 27 18:02:21 2021

   => Loading Basis Set <=

    Name: AUG-CC-PV(D+D)Z
    Role: ORBITAL
    Keyword: BASIS
    atoms 1-2 entry S          line   724 file /work/zw18965/.conda/envs/p4env/share/psi4/basis/aug-cc-pv_dpd_z.gbs 


         ---------------------------------------------------------
                                   SCF
               by Justin Turney, Rob Parrish, Andy Simmonett
                          and Daniel G. A. Smith
                              UKS Reference
                       24 Threads, 137329 MiB Core
         ---------------------------------------------------------

  ==> Geometry <==

    Molecular point group: d2h
    Full point group: D_inf_h

    Geometry (in Angstrom), charge = 0, multiplicity = 3:

       Center              X                  Y                   Z               Mass       
    ------------   -----------------  -----------------  -----------------  -----------------
         S            0.000000000000     0.000000000000    -0.947271684801    31.972071174400
         S            0.000000000000     0.000000000000     0.947271684801    31.972071174400

  Running in d2h symmetry.

  Rotational constants: A = ************  B =      0.29380  C =      0.29380 [cm^-1]
  Rotational constants: A = ************  B =   8807.79749  C =   8807.79749 [MHz]
  Nuclear repulsion =   71.505022320998918

  Charge       = 0
  Multiplicity = 3
  Electrons    = 32
  Nalpha       = 17
  Nbeta        = 15

  ==> Algorithm <==

  SCF Algorithm Type is DF.
  DIIS enabled.
  MOM disabled.
  Fractional occupation disabled.
  Guess Type is READ.
  Energy threshold   = 1.00e-08
  Density threshold  = 1.00e-08
  Integral threshold = 0.00e+00

  ==> Primary Basis <==

  Basis Set: AUG-CC-PV(D+D)Z
    Blend: AUG-CC-PV(D+D)Z
    Number of shells: 24
    Number of basis function: 64
    Number of Cartesian functions: 70
    Spherical Harmonics?: true
    Max angular momentum: 2

  ==> DFT Potential <==

   => Composite Functional: WB97M-V <= 

    wB97M-V Hyb-GGA Exchange-Correlation Functional

    N. Mardirossian and M. Head-Gordon, J. Chem. Phys. 144, 214110 (2016)

    Deriv               =              1
    GGA                 =           TRUE
    Meta                =           TRUE

    Exchange Hybrid     =           TRUE
    MP2 Hybrid          =          FALSE

   => Exchange-Correlation Functionals <=

    1.0000   wB97M-V exchange-correlation functional

   => Exact (HF) Exchange <=

    0.8500            HF,LR [omega = 0.3000]
    0.1500               HF 

   => VV10 Non-Local Parameters <=

    VV10 B              =     6.0000E+00
    VV10 C              =     1.0000E-02

   => Molecular Quadrature <=

    Radial Scheme          =       TREUTLER
    Pruning Scheme         =           FLAT
    Nuclear Scheme         =       TREUTLER

    BS radius alpha        =              1
    Pruning alpha          =              1
    Radial Points          =             75
    Spherical Points       =            302
    Total Points           =          44778
    Total Blocks           =            418
    Max Points             =            255
    Max Functions          =             64

   => Loading Basis Set <=

    Name: (AUG-CC-PV(D+D)Z AUX)
    Role: JKFIT
    Keyword: DF_BASIS_SCF
    atoms 1-2 entry S          line   690 file /work/zw18965/.conda/envs/p4env/share/psi4/basis/aug-cc-pvdz-jkfit.gbs 

   => Loading Basis Set <=

    Name: AUG-CC-PV(D+D)Z
    Role: ORBITAL
    Keyword: BASIS
    atoms 1-2 entry S          line   724 file /work/zw18965/.conda/envs/p4env/share/psi4/basis/aug-cc-pv_dpd_z.gbs 

  Reading orbitals from file 180, no projection.

  ==> Pre-Iterations <==

   -------------------------------------------------------
    Irrep   Nso     Nmo     Nalpha   Nbeta   Ndocc  Nsocc
   -------------------------------------------------------
     Ag        15      15       0       0       0       0
     B1g        3       3       0       0       0       0
     B2g        7       7       0       0       0       0
     B3g        7       7       0       0       0       0
     Au         3       3       0       0       0       0
     B1u       15      15       0       0       0       0
     B2u        7       7       0       0       0       0
     B3u        7       7       0       0       0       0
   -------------------------------------------------------
    Total      64      64      17      15      15       2
   -------------------------------------------------------

  ==> Integral Setup <==

  ==> DiskDFJK: Density-Fitted J/K Matrices <==

    J tasked:                  Yes
    K tasked:                  Yes
    wK tasked:                 Yes
    Omega:               3.000E-01
    OpenMP threads:             24
    Integrals threads:          24
    Memory [MiB]:           102805
    Algorithm:                Core
    Integral Cache:           NONE
    Schwarz Cutoff:          1E-12
    Fitting Condition:       1E-10

   => Auxiliary Basis Set <=

  Basis Set: (AUG-CC-PV(D+D)Z AUX)
    Blend: AUG-CC-PVDZ-JKFIT
    Number of shells: 80
    Number of basis function: 256
    Number of Cartesian functions: 300
    Spherical Harmonics?: true
    Max angular momentum: 3

  Cached 100.0% of DFT collocation blocks in 0.187 [GiB].

  Minimum eigenvalue in the overlap matrix is 1.1538882851E-03.
  Using Symmetric Orthogonalization.

  SCF Guess: Orbitals guess was supplied from a previous computation.

  ==> Iterations <==

                           Total Energy        Delta E     RMS |[F,P]|

   @DF-UKS iter   0:  -796.34181082129055   -7.96342e+02   2.23044e-04 
   @DF-UKS iter   1:  -796.33965712611371    2.15370e-03   3.83321e-05 DIIS
   @DF-UKS iter   2:  -796.33965751402661   -3.87913e-07   2.50344e-05 DIIS
   @DF-UKS iter   3:  -796.33965766715619   -1.53130e-07   1.77786e-06 DIIS
   @DF-UKS iter   4:  -796.33965766893198   -1.77579e-09   2.77951e-07 DIIS
   @DF-UKS iter   5:  -796.33965766900178   -6.98037e-11   5.81337e-08 DIIS
   @DF-UKS iter   6:  -796.33965766900451   -2.72848e-12   1.35731e-08 DIIS
   @DF-UKS iter   7:  -796.33965766900519   -6.82121e-13   2.62321e-09 DIIS
  Energy and wave function converged.


  ==> Post-Iterations <==

   @Spin Contamination Metric:   8.483540364E-03
   @S^2 Expected:                2.000000000E+00
   @S^2 Observed:                2.008483540E+00
   @S   Expected:                1.000000000E+00
   @S   Observed:                1.000000000E+00

    Orbital Energies [Eh]
    ---------------------

    Alpha Occupied:                                                       

       1B1u  -89.257572     1Ag   -89.257570     2Ag    -8.176392  
       2B1u   -8.176378     1B3u   -6.084784     1B2u   -6.084784  
       1B2g   -6.084743     1B3g   -6.084743     3Ag    -6.084190  
       3B1u   -6.083450     4Ag    -0.966759     4B1u   -0.749069  
       5Ag    -0.500192     2B3u   -0.480471     2B2u   -0.480471  
       2B2g   -0.334075     2B3g   -0.334075  

    Alpha Virtual:                                                        

       5B1u    0.031239     6Ag     0.076281     3B2u    0.083322  
       3B3u    0.083322     7Ag     0.095043     6B1u    0.114792  
       3B3g    0.116214     3B2g    0.116214     7B1u    0.224001  
       8Ag     0.240407     1B1g    0.240408     4B2u    0.268872  
       4B3u    0.268872     9Ag     0.353541     8B1u    0.373043  
       1Au     0.373046     4B2g    0.514818     4B3g    0.514818  
       9B1u    0.541034     5B2u    0.670934     5B3u    0.670934  
      10B1u    0.730201    10Ag     0.741886     5B2g    0.771925  
       5B3g    0.771925     6B3u    0.836211     6B2u    0.836211  
      11Ag     0.849270    12Ag     0.866534     2B1g    0.866545  
      11B1u    0.923779     2Au     0.923789    13Ag     0.935131  
       6B2g    1.021296     6B3g    1.021296    12B1u    1.164326  
      13B1u    1.567254     7B3u    4.574154     7B2u    4.574154  
      14Ag     4.620976     3B1g    4.620983    14B1u    4.667963  
       3Au     4.667970    15Ag     4.672939     7B2g    4.779427  
       7B3g    4.779427    15B1u    4.839704  

    Beta Occupied:                                                        

       1Ag   -89.251391     1B1u  -89.251391     2Ag    -8.170178  
       2B1u   -8.170080     3Ag    -6.080322     3B1u   -6.079580  
       1B3u   -6.071521     1B2u   -6.071521     1B2g   -6.071465  
       1B3g   -6.071465     4Ag    -0.941046     4B1u   -0.693940  
       5Ag    -0.473614     2B3u   -0.424972     2B2u   -0.424972  

    Beta Virtual:                                                         

       2B2g   -0.064417     2B3g   -0.064417     5B1u    0.033149  
       6Ag     0.074664     3B2u    0.082784     3B3u    0.082784  
       7Ag     0.096854     3B2g    0.117931     3B3g    0.117931  
       6B1u    0.131216     7B1u    0.223305     1B1g    0.255354  
       8Ag     0.255355     4B2u    0.298728     4B3u    0.298728  
       9Ag     0.363448     8B1u    0.400103     1Au     0.400103  
       4B2g    0.529201     4B3g    0.529201     9B1u    0.552346  
       5B2u    0.694489     5B3u    0.694489    10B1u    0.742851  
      10Ag     0.766480     5B2g    0.794599     5B3g    0.794599  
       6B3u    0.848681     6B2u    0.848681    11Ag     0.855066  
      12Ag     0.895608     2B1g    0.895619    11B1u    0.950050  
       2Au     0.950063    13Ag     0.950111     6B2g    1.040115  
       6B3g    1.040115    12B1u    1.180992    13B1u    1.590779  
       7B3u    4.581408     7B2u    4.581408    14Ag     4.637014  
       3B1g    4.637038    15Ag     4.677194    14B1u    4.684141  
       3Au     4.684166     7B2g    4.787825     7B3g    4.787825  
      15B1u    4.846287  

    Final Occupation by Irrep:
             Ag   B1g   B2g   B3g    Au   B1u   B2u   B3u 
    DOCC [     5,    0,    1,    1,    0,    4,    2,    2 ]
    SOCC [     0,    0,    1,    1,    0,    0,    0,    0 ]

  @DF-UKS Final Energy:  -796.33965766900519

   => Energetics <=

    Nuclear Repulsion Energy =             71.5050223209989184
    One-Electron Energy =               -1241.4510233573623736
    Two-Electron Energy =                 413.0527747775395255
    DFT Exchange-Correlation Energy =     -39.5800266007461943
    Empirical Dispersion Energy =           0.0000000000000000
    VV10 Nonlocal Energy =                  0.1335951905648496
    Total Energy =                       -796.3396576690053053

  UHF NO Occupations:
  HONO-2 :    2B2u 1.9980936
  HONO-1 :    2B3g 1.0000000
  HONO-0 :    2B2g 1.0000000
  LUNO+0 :    3B2u 0.0019064
  LUNO+1 :    3B3u 0.0019064
  LUNO+2 :    5B1u 0.0002222
  LUNO+3 :    6 Ag 0.0001727


Computation Completed


Properties will be evaluated at   0.000000,   0.000000,   0.000000 [a0]

Properties computed using the SCF density matrix

  Nuclear Dipole Moment: [e a0]
     X:     0.0000      Y:     0.0000      Z:     0.0000

  Electronic Dipole Moment: [e a0]
     X:     0.0000      Y:     0.0000      Z:     0.0000

  Dipole Moment: [e a0]
     X:     0.0000      Y:     0.0000      Z:     0.0000     Total:     0.0000

  Dipole Moment: [D]
     X:     0.0000      Y:     0.0000      Z:     0.0000     Total:     0.0000


*** tstop() called on bp1-compute00099.data.bp.acrc.priv at Tue Apr 27 18:02:24 2021
Module time:
	user time   =      86.29 seconds =       1.44 minutes
	system time =       3.68 seconds =       0.06 minutes
	total time  =          3 seconds =       0.05 minutes
Total time:
	user time   =     442.73 seconds =       7.38 minutes
	system time =      20.15 seconds =       0.34 minutes
	total time  =         19 seconds =       0.32 minutes

  //>>>>>>>>>>>>>>>>>>>>>>>>>>>>>>>>>>>//
  //    Loading displacement 2 of 3    //
  //<<<<<<<<<<<<<<<<<<<<<<<<<<<<<<<<<<<//

*** tstart() called on bp1-compute00099.data.bp.acrc.priv
*** at Tue Apr 27 18:02:24 2021

   => Loading Basis Set <=

    Name: AUG-CC-PV(D+D)Z
    Role: ORBITAL
    Keyword: BASIS
    atoms 1-2 entry S          line   724 file /work/zw18965/.conda/envs/p4env/share/psi4/basis/aug-cc-pv_dpd_z.gbs 


         ---------------------------------------------------------
                                   SCF
               by Justin Turney, Rob Parrish, Andy Simmonett
                          and Daniel G. A. Smith
                              UKS Reference
                       24 Threads, 137329 MiB Core
         ---------------------------------------------------------

  ==> Geometry <==

    Molecular point group: d2h
    Full point group: D_inf_h

    Geometry (in Angstrom), charge = 0, multiplicity = 3:

       Center              X                  Y                   Z               Mass       
    ------------   -----------------  -----------------  -----------------  -----------------
         S            0.000000000000     0.000000000000    -0.947602564981    31.972071174400
         S            0.000000000000     0.000000000000     0.947602564981    31.972071174400

  Running in d2h symmetry.

  Rotational constants: A = ************  B =      0.29359  C =      0.29359 [cm^-1]
  Rotational constants: A = ************  B =   8801.64762  C =   8801.64762 [MHz]
  Nuclear repulsion =   71.480054475245993

  Charge       = 0
  Multiplicity = 3
  Electrons    = 32
  Nalpha       = 17
  Nbeta        = 15

  ==> Algorithm <==

  SCF Algorithm Type is DF.
  DIIS enabled.
  MOM disabled.
  Fractional occupation disabled.
  Guess Type is READ.
  Energy threshold   = 1.00e-08
  Density threshold  = 1.00e-08
  Integral threshold = 0.00e+00

  ==> Primary Basis <==

  Basis Set: AUG-CC-PV(D+D)Z
    Blend: AUG-CC-PV(D+D)Z
    Number of shells: 24
    Number of basis function: 64
    Number of Cartesian functions: 70
    Spherical Harmonics?: true
    Max angular momentum: 2

  ==> DFT Potential <==

   => Composite Functional: WB97M-V <= 

    wB97M-V Hyb-GGA Exchange-Correlation Functional

    N. Mardirossian and M. Head-Gordon, J. Chem. Phys. 144, 214110 (2016)

    Deriv               =              1
    GGA                 =           TRUE
    Meta                =           TRUE

    Exchange Hybrid     =           TRUE
    MP2 Hybrid          =          FALSE

   => Exchange-Correlation Functionals <=

    1.0000   wB97M-V exchange-correlation functional

   => Exact (HF) Exchange <=

    0.8500            HF,LR [omega = 0.3000]
    0.1500               HF 

   => VV10 Non-Local Parameters <=

    VV10 B              =     6.0000E+00
    VV10 C              =     1.0000E-02

   => Molecular Quadrature <=

    Radial Scheme          =       TREUTLER
    Pruning Scheme         =           FLAT
    Nuclear Scheme         =       TREUTLER

    BS radius alpha        =              1
    Pruning alpha          =              1
    Radial Points          =             75
    Spherical Points       =            302
    Total Points           =          44778
    Total Blocks           =            418
    Max Points             =            255
    Max Functions          =             64

   => Loading Basis Set <=

    Name: (AUG-CC-PV(D+D)Z AUX)
    Role: JKFIT
    Keyword: DF_BASIS_SCF
    atoms 1-2 entry S          line   690 file /work/zw18965/.conda/envs/p4env/share/psi4/basis/aug-cc-pvdz-jkfit.gbs 

   => Loading Basis Set <=

    Name: AUG-CC-PV(D+D)Z
    Role: ORBITAL
    Keyword: BASIS
    atoms 1-2 entry S          line   724 file /work/zw18965/.conda/envs/p4env/share/psi4/basis/aug-cc-pv_dpd_z.gbs 

  Reading orbitals from file 180, no projection.

  ==> Pre-Iterations <==

   -------------------------------------------------------
    Irrep   Nso     Nmo     Nalpha   Nbeta   Ndocc  Nsocc
   -------------------------------------------------------
     Ag        15      15       0       0       0       0
     B1g        3       3       0       0       0       0
     B2g        7       7       0       0       0       0
     B3g        7       7       0       0       0       0
     Au         3       3       0       0       0       0
     B1u       15      15       0       0       0       0
     B2u        7       7       0       0       0       0
     B3u        7       7       0       0       0       0
   -------------------------------------------------------
    Total      64      64      17      15      15       2
   -------------------------------------------------------

  ==> Integral Setup <==

  ==> DiskDFJK: Density-Fitted J/K Matrices <==

    J tasked:                  Yes
    K tasked:                  Yes
    wK tasked:                 Yes
    Omega:               3.000E-01
    OpenMP threads:             24
    Integrals threads:          24
    Memory [MiB]:           102805
    Algorithm:                Core
    Integral Cache:           NONE
    Schwarz Cutoff:          1E-12
    Fitting Condition:       1E-10

   => Auxiliary Basis Set <=

  Basis Set: (AUG-CC-PV(D+D)Z AUX)
    Blend: AUG-CC-PVDZ-JKFIT
    Number of shells: 80
    Number of basis function: 256
    Number of Cartesian functions: 300
    Spherical Harmonics?: true
    Max angular momentum: 3

  Cached 100.0% of DFT collocation blocks in 0.187 [GiB].

  Minimum eigenvalue in the overlap matrix is 1.1565519168E-03.
  Using Symmetric Orthogonalization.

  SCF Guess: Orbitals guess was supplied from a previous computation.

  ==> Iterations <==

                           Total Energy        Delta E     RMS |[F,P]|

   @DF-UKS iter   0:  -796.33904736414024   -7.96339e+02   6.31054e-05 
   @DF-UKS iter   1:  -796.33965651029939   -6.09146e-04   1.08424e-05 DIIS
   @DF-UKS iter   2:  -796.33965654133181   -3.10324e-08   7.07995e-06 DIIS
   @DF-UKS iter   3:  -796.33965655357861   -1.22468e-08   5.02691e-07 DIIS
   @DF-UKS iter   4:  -796.33965655372037   -1.41767e-10   7.86591e-08 DIIS
   @DF-UKS iter   5:  -796.33965655372606   -5.68434e-12   1.64933e-08 DIIS
   @DF-UKS iter   6:  -796.33965655372629   -2.27374e-13   3.84246e-09 DIIS
  Energy and wave function converged.


  ==> Post-Iterations <==

   @Spin Contamination Metric:   8.489143891E-03
   @S^2 Expected:                2.000000000E+00
   @S^2 Observed:                2.008489144E+00
   @S   Expected:                1.000000000E+00
   @S   Observed:                1.000000000E+00

    Orbital Energies [Eh]
    ---------------------

    Alpha Occupied:                                                       

       1B1u  -89.257631     1Ag   -89.257629     2Ag    -8.176430  
       2B1u   -8.176417     1B3u   -6.084824     1B2u   -6.084824  
       1B2g   -6.084783     1B3g   -6.084783     3Ag    -6.084228  
       3B1u   -6.083491     4Ag    -0.966590     4B1u   -0.749146  
       5Ag    -0.500151     2B2u   -0.480387     2B3u   -0.480387  
       2B3g   -0.334150     2B2g   -0.334150  

    Alpha Virtual:                                                        

       5B1u    0.031177     6Ag     0.076276     3B2u    0.083332  
       3B3u    0.083332     7Ag     0.095054     6B1u    0.114636  
       3B2g    0.116206     3B3g    0.116206     7B1u    0.223986  
       8Ag     0.240435     1B1g    0.240437     4B3u    0.268841  
       4B2u    0.268841     9Ag     0.353578     8B1u    0.372993  
       1Au     0.372997     4B2g    0.514718     4B3g    0.514718  
       9B1u    0.540895     5B3u    0.670942     5B2u    0.670942  
      10B1u    0.730246    10Ag     0.741905     5B2g    0.771893  
       5B3g    0.771893     6B3u    0.836333     6B2u    0.836333  
      11Ag     0.849338    12Ag     0.866562     2B1g    0.866573  
      11B1u    0.923742     2Au     0.923752    13Ag     0.934985  
       6B2g    1.021121     6B3g    1.021121    12B1u    1.163842  
      13B1u    1.566788     7B3u    4.574141     7B2u    4.574141  
      14Ag     4.620987     3B1g    4.620993    14B1u    4.667899  
       3Au     4.667905    15Ag     4.672505     7B2g    4.779273  
       7B3g    4.779273    15B1u    4.839864  

    Beta Occupied:                                                        

       1Ag   -89.251450     1B1u  -89.251450     2Ag    -8.170216  
       2B1u   -8.170118     3Ag    -6.080360     3B1u   -6.079621  
       1B3u   -6.071559     1B2u   -6.071559     1B2g   -6.071503  
       1B3g   -6.071503     4Ag    -0.940862     4B1u   -0.694020  
       5Ag    -0.473579     2B2u   -0.424867     2B3u   -0.424867  

    Beta Virtual:                                                         

       2B2g   -0.064496     2B3g   -0.064496     5B1u    0.033109  
       6Ag     0.074661     3B2u    0.082801     3B3u    0.082801  
       7Ag     0.096869     3B2g    0.117924     3B3g    0.117924  
       6B1u    0.131045     7B1u    0.223289     1B1g    0.255382  
       8Ag     0.255383     4B3u    0.298685     4B2u    0.298685  
       9Ag     0.363491     8B1u    0.400055     1Au     0.400055  
       4B2g    0.529104     4B3g    0.529104     9B1u    0.552205  
       5B3u    0.694505     5B2u    0.694505    10B1u    0.742905  
      10Ag     0.766496     5B2g    0.794572     5B3g    0.794572  
       6B3u    0.848803     6B2u    0.848803    11Ag     0.855162  
      12Ag     0.895644     2B1g    0.895655    13Ag     0.949932  
      11B1u    0.950015     2Au     0.950027     6B2g    1.039932  
       6B3g    1.039932    12B1u    1.180506    13B1u    1.590306  
       7B3u    4.581395     7B2u    4.581395    14Ag     4.637027  
       3B1g    4.637050    15Ag     4.676758    14B1u    4.684078  
       3Au     4.684102     7B2g    4.787669     7B3g    4.787669  
      15B1u    4.846444  

    Final Occupation by Irrep:
             Ag   B1g   B2g   B3g    Au   B1u   B2u   B3u 
    DOCC [     5,    0,    1,    1,    0,    4,    2,    2 ]
    SOCC [     0,    0,    1,    1,    0,    0,    0,    0 ]

  @DF-UKS Final Energy:  -796.33965655372629

   => Energetics <=

    Nuclear Repulsion Energy =             71.4800544752459928
    One-Electron Energy =               -1241.4008756777234339
    Two-Electron Energy =                 413.0273305166347200
    DFT Exchange-Correlation Energy =     -39.5797619080336531
    Empirical Dispersion Energy =           0.0000000000000000
    VV10 Nonlocal Energy =                  0.1335960401500524
    Total Energy =                       -796.3396565537262859

  UHF NO Occupations:
  HONO-2 :    2B3u 1.9980922
  HONO-1 :    2B3g 1.0000000
  HONO-0 :    2B2g 1.0000000
  LUNO+0 :    3B3u 0.0019078
  LUNO+1 :    3B2u 0.0019078
  LUNO+2 :    5B1u 0.0002222
  LUNO+3 :    6 Ag 0.0001727


Computation Completed


Properties will be evaluated at   0.000000,   0.000000,   0.000000 [a0]

Properties computed using the SCF density matrix

  Nuclear Dipole Moment: [e a0]
     X:     0.0000      Y:     0.0000      Z:     0.0000

  Electronic Dipole Moment: [e a0]
     X:     0.0000      Y:     0.0000      Z:     0.0000

  Dipole Moment: [e a0]
     X:     0.0000      Y:     0.0000      Z:     0.0000     Total:     0.0000

  Dipole Moment: [D]
     X:     0.0000      Y:     0.0000      Z:     0.0000     Total:     0.0000


*** tstop() called on bp1-compute00099.data.bp.acrc.priv at Tue Apr 27 18:02:28 2021
Module time:
	user time   =      80.70 seconds =       1.34 minutes
	system time =       3.36 seconds =       0.06 minutes
	total time  =          4 seconds =       0.07 minutes
Total time:
	user time   =     523.57 seconds =       8.73 minutes
	system time =      23.51 seconds =       0.39 minutes
	total time  =         23 seconds =       0.38 minutes

  //>>>>>>>>>>>>>>>>>>>>>>>>>>>>>>>>>>>//
  //    Loading displacement 3 of 3    //
  //<<<<<<<<<<<<<<<<<<<<<<<<<<<<<<<<<<<//

*** tstart() called on bp1-compute00099.data.bp.acrc.priv
*** at Tue Apr 27 18:02:28 2021

   => Loading Basis Set <=

    Name: AUG-CC-PV(D+D)Z
    Role: ORBITAL
    Keyword: BASIS
    atoms 1-2 entry S          line   724 file /work/zw18965/.conda/envs/p4env/share/psi4/basis/aug-cc-pv_dpd_z.gbs 


         ---------------------------------------------------------
                                   SCF
               by Justin Turney, Rob Parrish, Andy Simmonett
                          and Daniel G. A. Smith
                              UKS Reference
                       24 Threads, 137329 MiB Core
         ---------------------------------------------------------

  ==> Geometry <==

    Molecular point group: d2h
    Full point group: D_inf_h

    Geometry (in Angstrom), charge = 0, multiplicity = 3:

       Center              X                  Y                   Z               Mass       
    ------------   -----------------  -----------------  -----------------  -----------------
         S            0.000000000000     0.000000000000    -0.946940804621    31.972071174400
         S            0.000000000000     0.000000000000     0.946940804621    31.972071174400

  Running in d2h symmetry.

  Rotational constants: A = ************  B =      0.29400  C =      0.29400 [cm^-1]
  Rotational constants: A = ************  B =   8813.95381  C =   8813.95381 [MHz]
  Nuclear repulsion =   71.530007615287772

  Charge       = 0
  Multiplicity = 3
  Electrons    = 32
  Nalpha       = 17
  Nbeta        = 15

  ==> Algorithm <==

  SCF Algorithm Type is DF.
  DIIS enabled.
  MOM disabled.
  Fractional occupation disabled.
  Guess Type is READ.
  Energy threshold   = 1.00e-08
  Density threshold  = 1.00e-08
  Integral threshold = 0.00e+00

  ==> Primary Basis <==

  Basis Set: AUG-CC-PV(D+D)Z
    Blend: AUG-CC-PV(D+D)Z
    Number of shells: 24
    Number of basis function: 64
    Number of Cartesian functions: 70
    Spherical Harmonics?: true
    Max angular momentum: 2

  ==> DFT Potential <==

   => Composite Functional: WB97M-V <= 

    wB97M-V Hyb-GGA Exchange-Correlation Functional

    N. Mardirossian and M. Head-Gordon, J. Chem. Phys. 144, 214110 (2016)

    Deriv               =              1
    GGA                 =           TRUE
    Meta                =           TRUE

    Exchange Hybrid     =           TRUE
    MP2 Hybrid          =          FALSE

   => Exchange-Correlation Functionals <=

    1.0000   wB97M-V exchange-correlation functional

   => Exact (HF) Exchange <=

    0.8500            HF,LR [omega = 0.3000]
    0.1500               HF 

   => VV10 Non-Local Parameters <=

    VV10 B              =     6.0000E+00
    VV10 C              =     1.0000E-02

   => Molecular Quadrature <=

    Radial Scheme          =       TREUTLER
    Pruning Scheme         =           FLAT
    Nuclear Scheme         =       TREUTLER

    BS radius alpha        =              1
    Pruning alpha          =              1
    Radial Points          =             75
    Spherical Points       =            302
    Total Points           =          44778
    Total Blocks           =            418
    Max Points             =            255
    Max Functions          =             64

   => Loading Basis Set <=

    Name: (AUG-CC-PV(D+D)Z AUX)
    Role: JKFIT
    Keyword: DF_BASIS_SCF
    atoms 1-2 entry S          line   690 file /work/zw18965/.conda/envs/p4env/share/psi4/basis/aug-cc-pvdz-jkfit.gbs 

   => Loading Basis Set <=

    Name: AUG-CC-PV(D+D)Z
    Role: ORBITAL
    Keyword: BASIS
    atoms 1-2 entry S          line   724 file /work/zw18965/.conda/envs/p4env/share/psi4/basis/aug-cc-pv_dpd_z.gbs 

  Reading orbitals from file 180, no projection.

  ==> Pre-Iterations <==

   -------------------------------------------------------
    Irrep   Nso     Nmo     Nalpha   Nbeta   Ndocc  Nsocc
   -------------------------------------------------------
     Ag        15      15       0       0       0       0
     B1g        3       3       0       0       0       0
     B2g        7       7       0       0       0       0
     B3g        7       7       0       0       0       0
     Au         3       3       0       0       0       0
     B1u       15      15       0       0       0       0
     B2u        7       7       0       0       0       0
     B3u        7       7       0       0       0       0
   -------------------------------------------------------
    Total      64      64      17      15      15       2
   -------------------------------------------------------

  ==> Integral Setup <==

  ==> DiskDFJK: Density-Fitted J/K Matrices <==

    J tasked:                  Yes
    K tasked:                  Yes
    wK tasked:                 Yes
    Omega:               3.000E-01
    OpenMP threads:             24
    Integrals threads:          24
    Memory [MiB]:           102805
    Algorithm:                Core
    Integral Cache:           NONE
    Schwarz Cutoff:          1E-12
    Fitting Condition:       1E-10

   => Auxiliary Basis Set <=

  Basis Set: (AUG-CC-PV(D+D)Z AUX)
    Blend: AUG-CC-PVDZ-JKFIT
    Number of shells: 80
    Number of basis function: 256
    Number of Cartesian functions: 300
    Spherical Harmonics?: true
    Max angular momentum: 3

  Cached 100.0% of DFT collocation blocks in 0.187 [GiB].

  Minimum eigenvalue in the overlap matrix is 1.1512305338E-03.
  Using Symmetric Orthogonalization.

  SCF Guess: Orbitals guess was supplied from a previous computation.

  ==> Iterations <==

                           Total Energy        Delta E     RMS |[F,P]|

   @DF-UKS iter   0:  -796.34026821501493   -7.96340e+02   6.32039e-05 
   @DF-UKS iter   1:  -796.33965819989544    6.10015e-04   1.08432e-05 DIIS
   @DF-UKS iter   2:  -796.33965823093502   -3.10396e-08   7.08053e-06 DIIS
   @DF-UKS iter   3:  -796.33965824318102   -1.22460e-08   5.03073e-07 DIIS
   @DF-UKS iter   4:  -796.33965824332267   -1.41654e-10   7.86316e-08 DIIS
   @DF-UKS iter   5:  -796.33965824332870   -6.02540e-12   1.65447e-08 DIIS
   @DF-UKS iter   6:  -796.33965824332847    2.27374e-13   3.84865e-09 DIIS
  Energy and wave function converged.


  ==> Post-Iterations <==

   @Spin Contamination Metric:   8.477938964E-03
   @S^2 Expected:                2.000000000E+00
   @S^2 Observed:                2.008477939E+00
   @S   Expected:                1.000000000E+00
   @S   Observed:                1.000000000E+00

    Orbital Energies [Eh]
    ---------------------

    Alpha Occupied:                                                       

       1B1u  -89.257513     1Ag   -89.257511     2Ag    -8.176354  
       2B1u   -8.176339     1B3u   -6.084744     1B2u   -6.084744  
       1B2g   -6.084703     1B3g   -6.084703     3Ag    -6.084151  
       3B1u   -6.083408     4Ag    -0.966929     4B1u   -0.748992  
       5Ag    -0.500233     2B2u   -0.480554     2B3u   -0.480554  
       2B3g   -0.333999     2B2g   -0.333999  

    Alpha Virtual:                                                        

       5B1u    0.031300     6Ag     0.076286     3B3u    0.083312  
       3B2u    0.083312     7Ag     0.095031     6B1u    0.114949  
       3B3g    0.116222     3B2g    0.116222     7B1u    0.224016  
       8Ag     0.240378     1B1g    0.240379     4B2u    0.268903  
       4B3u    0.268903     9Ag     0.353503     8B1u    0.373093  
       1Au     0.373096     4B3g    0.514919     4B2g    0.514919  
       9B1u    0.541172     5B2u    0.670926     5B3u    0.670926  
      10B1u    0.730156    10Ag     0.741866     5B3g    0.771957  
       5B2g    0.771957     6B2u    0.836089     6B3u    0.836089  
      11Ag     0.849202    12Ag     0.866505     2B1g    0.866517  
      11B1u    0.923817     2Au     0.923827    13Ag     0.935278  
       6B3g    1.021472     6B2g    1.021472    12B1u    1.164811  
      13B1u    1.567720     7B3u    4.574168     7B2u    4.574168  
      14Ag     4.620966     3B1g    4.620972    14B1u    4.668028  
       3Au     4.668035    15Ag     4.673375     7B3g    4.779580  
       7B2g    4.779580    15B1u    4.839543  

    Beta Occupied:                                                        

       1Ag   -89.251333     1B1u  -89.251333     2Ag    -8.170141  
       2B1u   -8.170042     3Ag    -6.080284     3B1u   -6.079538  
       1B3u   -6.071482     1B2u   -6.071482     1B2g   -6.071426  
       1B3g   -6.071426     4Ag    -0.941230     4B1u   -0.693860  
       5Ag    -0.473648     2B2u   -0.425076     2B3u   -0.425076  

    Beta Virtual:                                                         

       2B2g   -0.064338     2B3g   -0.064338     5B1u    0.033189  
       6Ag     0.074666     3B2u    0.082766     3B3u    0.082766  
       7Ag     0.096839     3B3g    0.117937     3B2g    0.117937  
       6B1u    0.131386     7B1u    0.223322     1B1g    0.255327  
       8Ag     0.255328     4B2u    0.298771     4B3u    0.298771  
       9Ag     0.363406     8B1u    0.400151     1Au     0.400151  
       4B3g    0.529297     4B2g    0.529297     9B1u    0.552487  
       5B2u    0.694472     5B3u    0.694472    10B1u    0.742797  
      10Ag     0.766463     5B3g    0.794626     5B2g    0.794626  
       6B2u    0.848560     6B3u    0.848560    11Ag     0.854970  
      12Ag     0.895572     2B1g    0.895583    11B1u    0.950086  
       2Au     0.950099    13Ag     0.950289     6B3g    1.040298  
       6B2g    1.040298    12B1u    1.181478    13B1u    1.591251  
       7B3u    4.581421     7B2u    4.581421    14Ag     4.637002  
       3B1g    4.637025    15Ag     4.677630    14B1u    4.684205  
       3Au     4.684229     7B3g    4.787981     7B2g    4.787981  
      15B1u    4.846129  

    Final Occupation by Irrep:
             Ag   B1g   B2g   B3g    Au   B1u   B2u   B3u 
    DOCC [     5,    0,    1,    1,    0,    4,    2,    2 ]
    SOCC [     0,    0,    1,    1,    0,    0,    0,    0 ]

  @DF-UKS Final Energy:  -796.33965824332847

   => Energetics <=

    Nuclear Repulsion Energy =             71.5300076152877722
    One-Electron Energy =               -1241.5012048174610300
    Two-Electron Energy =                 413.0782362514195256
    DFT Exchange-Correlation Energy =     -39.5802916338185327
    Empirical Dispersion Energy =           0.0000000000000000
    VV10 Nonlocal Energy =                  0.1335943412436712
    Total Energy =                       -796.3396582433285857

  UHF NO Occupations:
  HONO-2 :    2B3u 1.9980950
  HONO-1 :    2B3g 1.0000000
  HONO-0 :    2B2g 1.0000000
  LUNO+0 :    3B3u 0.0019050
  LUNO+1 :    3B2u 0.0019050
  LUNO+2 :    5B1u 0.0002222
  LUNO+3 :    6 Ag 0.0001727


Computation Completed


Properties will be evaluated at   0.000000,   0.000000,   0.000000 [a0]

Properties computed using the SCF density matrix

  Nuclear Dipole Moment: [e a0]
     X:     0.0000      Y:     0.0000      Z:     0.0000

  Electronic Dipole Moment: [e a0]
     X:     0.0000      Y:     0.0000      Z:     0.0000

  Dipole Moment: [e a0]
     X:     0.0000      Y:     0.0000      Z:     0.0000     Total:     0.0000

  Dipole Moment: [D]
     X:     0.0000      Y:     0.0000      Z:     0.0000     Total:     0.0000


*** tstop() called on bp1-compute00099.data.bp.acrc.priv at Tue Apr 27 18:02:32 2021
Module time:
	user time   =      77.83 seconds =       1.30 minutes
	system time =       3.16 seconds =       0.05 minutes
	total time  =          4 seconds =       0.07 minutes
Total time:
	user time   =     601.53 seconds =      10.03 minutes
	system time =      26.67 seconds =       0.44 minutes
	total time  =         27 seconds =       0.45 minutes

         ----------------------------------------------------------
                                   FINDIF
                     R. A. King and Jonathon Misiewicz
         ---------------------------------------------------------

  Computing gradient from energies.
    Using 3-point formula.
    Energy without displacement: -796.3396576690
    Check energies below for precision!
    Forces are for mass-weighted, symmetry-adapted cartesians (in au).

     Coord      Energy(-1)        Energy(+1)            Force
        0   -796.3396565537   -796.3396582433     -0.0001689602


-------------------------------------------------------------
  ## New Matrix (Symmetry 0) ##
  Irrep: 1 Size: 2 x 3

                 1                   2                   3

    1     0.00000000000000     0.00000000000000    -0.00067554588130
    2     0.00000000000000     0.00000000000000     0.00067554588130




			-----------------------------------------
			 OPTKING 2.0: for geometry optimizations 
			  - R.A. King,  Bethel University        
			-----------------------------------------
	At level 1: Red. Int., RFO, no backsteps, dynamic trust

	Previous internal coordinate definitions found.
	---Fragment 1 Geometry and Gradient---
	 S           0.0000000000        0.0000000000       -1.7900840507
	 S           0.0000000000        0.0000000000        1.7900840507
	             0.0000000000        0.0000000000       -0.0006755459
	             0.0000000000        0.0000000000        0.0006755459

	---Fragment 1 Intrafragment Coordinates---
	 - Coordinate -           - BOHR/RAD -       - ANG/DEG -
	 R(1,2)           =         3.580168	       1.894543

	Current energy   :      -796.3396576690

	Energy change for the previous step:
		Projected    :         0.0000000566
		Actual       :        -0.0000063670

	Performing BFGS update.
	Previous computed or guess Hessian on step 1.
	Steps to be used in Hessian update: 1
	Taking RFO optimization step.
[...]


Computation Completed


Properties will be evaluated at   0.000000,   0.000000,   0.000000 [a0]

Properties computed using the SCF density matrix

  Nuclear Dipole Moment: [e a0]
     X:     0.0000      Y:     0.0000      Z:     0.0000

  Electronic Dipole Moment: [e a0]
     X:     0.0000      Y:     0.0000      Z:     0.0000

  Dipole Moment: [e a0]
     X:     0.0000      Y:     0.0000      Z:     0.0000     Total:     0.0000

  Dipole Moment: [D]
     X:     0.0000      Y:     0.0000      Z:     0.0000     Total:     0.0000


*** tstop() called on bp1-compute00099.data.bp.acrc.priv at Tue Apr 27 18:03:08 2021
Module time:
	user time   =     130.27 seconds =       2.17 minutes
	system time =       4.92 seconds =       0.08 minutes
	total time  =          6 seconds =       0.10 minutes
Total time:
	user time   =    1445.02 seconds =      24.08 minutes
	system time =      60.09 seconds =       1.00 minutes
	total time  =         63 seconds =       1.05 minutes

  //>>>>>>>>>>>>>>>>>>>>>>>>>>>>>>>>>>>//
  //    Loading displacement 3 of 3    //
  //<<<<<<<<<<<<<<<<<<<<<<<<<<<<<<<<<<<//

*** tstart() called on bp1-compute00099.data.bp.acrc.priv
*** at Tue Apr 27 18:03:08 2021

   => Loading Basis Set <=

    Name: AUG-CC-PV(D+D)Z
    Role: ORBITAL
    Keyword: BASIS
    atoms 1-2 entry S          line   724 file /work/zw18965/.conda/envs/p4env/share/psi4/basis/aug-cc-pv_dpd_z.gbs 


         ---------------------------------------------------------
                                   SCF
               by Justin Turney, Rob Parrish, Andy Simmonett
                          and Daniel G. A. Smith
                              UKS Reference
                       24 Threads, 137329 MiB Core
         ---------------------------------------------------------

  ==> Geometry <==

    Molecular point group: d2h
    Full point group: D_inf_h

    Geometry (in Angstrom), charge = 0, multiplicity = 3:

       Center              X                  Y                   Z               Mass       
    ------------   -----------------  -----------------  -----------------  -----------------
         S            0.000000000000     0.000000000000    -0.946421837920    31.972071174400
         S            0.000000000000     0.000000000000     0.946421837920    31.972071174400

  Running in d2h symmetry.

  Rotational constants: A = ************  B =      0.29432  C =      0.29432 [cm^-1]
  Rotational constants: A = ************  B =   8823.62266  C =   8823.62266 [MHz]
  Nuclear repulsion =   71.569230814290506

  Charge       = 0
  Multiplicity = 3
  Electrons    = 32
  Nalpha       = 17
  Nbeta        = 15

  ==> Algorithm <==

  SCF Algorithm Type is DF.
  DIIS enabled.
  MOM disabled.
  Fractional occupation disabled.
  Guess Type is SAD.
  Energy threshold   = 1.00e-10
  Density threshold  = 1.00e-10
  Integral threshold = 0.00e+00

  ==> Primary Basis <==

  Basis Set: AUG-CC-PV(D+D)Z
    Blend: AUG-CC-PV(D+D)Z
    Number of shells: 24
    Number of basis function: 64
    Number of Cartesian functions: 70
    Spherical Harmonics?: true
    Max angular momentum: 2

  ==> DFT Potential <==

   => Composite Functional: WB97M-V <= 

    wB97M-V Hyb-GGA Exchange-Correlation Functional

    N. Mardirossian and M. Head-Gordon, J. Chem. Phys. 144, 214110 (2016)

    Deriv               =              1
    GGA                 =           TRUE
    Meta                =           TRUE

    Exchange Hybrid     =           TRUE
    MP2 Hybrid          =          FALSE

   => Exchange-Correlation Functionals <=

    1.0000   wB97M-V exchange-correlation functional

   => Exact (HF) Exchange <=

    0.8500            HF,LR [omega = 0.3000]
    0.1500               HF 

   => VV10 Non-Local Parameters <=

    VV10 B              =     6.0000E+00
    VV10 C              =     1.0000E-02

   => Molecular Quadrature <=

    Radial Scheme          =       TREUTLER
    Pruning Scheme         =           FLAT
    Nuclear Scheme         =       TREUTLER

    BS radius alpha        =              1
    Pruning alpha          =              1
    Radial Points          =             75
    Spherical Points       =            302
    Total Points           =          44778
    Total Blocks           =            418
    Max Points             =            255
    Max Functions          =             64

   => Loading Basis Set <=

    Name: (AUG-CC-PV(D+D)Z AUX)
    Role: JKFIT
    Keyword: DF_BASIS_SCF
    atoms 1-2 entry S          line   690 file /work/zw18965/.conda/envs/p4env/share/psi4/basis/aug-cc-pvdz-jkfit.gbs 

  ==> Pre-Iterations <==

   -------------------------------------------------------
    Irrep   Nso     Nmo     Nalpha   Nbeta   Ndocc  Nsocc
   -------------------------------------------------------
     Ag        15      15       0       0       0       0
     B1g        3       3       0       0       0       0
     B2g        7       7       0       0       0       0
     B3g        7       7       0       0       0       0
     Au         3       3       0       0       0       0
     B1u       15      15       0       0       0       0
     B2u        7       7       0       0       0       0
     B3u        7       7       0       0       0       0
   -------------------------------------------------------
    Total      64      64      17      15      15       2
   -------------------------------------------------------

  ==> Integral Setup <==

  ==> DiskDFJK: Density-Fitted J/K Matrices <==

    J tasked:                  Yes
    K tasked:                  Yes
    wK tasked:                 Yes
    Omega:               3.000E-01
    OpenMP threads:             24
    Integrals threads:          24
    Memory [MiB]:           102805
    Algorithm:                Core
    Integral Cache:           NONE
    Schwarz Cutoff:          1E-12
    Fitting Condition:       1E-10

   => Auxiliary Basis Set <=

  Basis Set: (AUG-CC-PV(D+D)Z AUX)
    Blend: AUG-CC-PVDZ-JKFIT
    Number of shells: 80
    Number of basis function: 256
    Number of Cartesian functions: 300
    Spherical Harmonics?: true
    Max angular momentum: 3

  Cached 100.0% of DFT collocation blocks in 0.187 [GiB].

  Minimum eigenvalue in the overlap matrix is 1.1470738279E-03.
  Using Symmetric Orthogonalization.

  SCF Guess: Superposition of Atomic Densities via on-the-fly atomic UHF.

  ==> Iterations <==

                           Total Energy        Delta E     RMS |[F,P]|

   @DF-UKS iter SAD:  -796.03799453609736   -7.96038e+02   0.00000e+00 
   @DF-UKS iter   1:  -796.32870555702198   -2.90711e-01   4.88709e-03 DIIS
   @DF-UKS iter   2:  -796.33879354881947   -1.00880e-02   1.62702e-03 DIIS
   @DF-UKS iter   3:  -796.33954689214761   -7.53343e-04   3.11469e-04 DIIS
   @DF-UKS iter   4:  -796.33964933953644   -1.02447e-04   1.05304e-04 DIIS
   @DF-UKS iter   5:  -796.33965751093604   -8.17140e-06   3.15771e-05 DIIS
   @DF-UKS iter   6:  -796.33965802532884   -5.14393e-07   5.21678e-06 DIIS
   @DF-UKS iter   7:  -796.33965804941545   -2.40866e-08   8.34151e-07 DIIS
   @DF-UKS iter   8:  -796.33965805028731   -8.71864e-10   1.25218e-07 DIIS
   @DF-UKS iter   9:  -796.33965805030675   -1.94404e-11   1.45470e-08 DIIS
   @DF-UKS iter  10:  -796.33965805030687   -1.13687e-13   2.04850e-09 DIIS
   @DF-UKS iter  11:  -796.33965805030721   -3.41061e-13   2.66236e-10 DIIS
   @DF-UKS iter  12:  -796.33965805030721    0.00000e+00   3.24195e-11 DIIS
  Energy and wave function converged.


  ==> Post-Iterations <==

   @Spin Contamination Metric:   8.469159797E-03
   @S^2 Expected:                2.000000000E+00
   @S^2 Observed:                2.008469160E+00
   @S   Expected:                1.000000000E+00
   @S   Observed:                1.000000000E+00

    Orbital Energies [Eh]
    ---------------------

    Alpha Occupied:                                                       

       1B1u  -89.257420     1Ag   -89.257419     2Ag    -8.176295  
       2B1u   -8.176279     1B3u   -6.084682     1B2u   -6.084682  
       1B2g   -6.084641     1B3g   -6.084641     3Ag    -6.084091  
       3B1u   -6.083342     4Ag    -0.967196     4B1u   -0.748871  
       5Ag    -0.500296     2B3u   -0.480686     2B2u   -0.480686  
       2B2g   -0.333881     2B3g   -0.333881  

    Alpha Virtual:                                                        

       5B1u    0.031396     6Ag     0.076294     3B3u    0.083296  
       3B2u    0.083296     7Ag     0.095013     6B1u    0.115196  
       3B3g    0.116234     3B2g    0.116234     7B1u    0.224040  
       8Ag     0.240333     1B1g    0.240335     4B2u    0.268952  
       4B3u    0.268952     9Ag     0.353445     8B1u    0.373171  
       1Au     0.373174     4B2g    0.515076     4B3g    0.515076  
       9B1u    0.541388     5B2u    0.670913     5B3u    0.670913  
      10B1u    0.730086    10Ag     0.741836     5B3g    0.772007  
       5B2g    0.772007     6B3u    0.835898     6B2u    0.835898  
      11Ag     0.849095    12Ag     0.866461     2B1g    0.866472  
      11B1u    0.923876     2Au     0.923886    13Ag     0.935508  
       6B2g    1.021748     6B3g    1.021748    12B1u    1.165574  
      13B1u    1.568451     7B3u    4.574191     7B2u    4.574191  
      14Ag     4.620950     3B1g    4.620956    14B1u    4.668130  
       3Au     4.668136    15Ag     4.674060     7B2g    4.779820  
       7B3g    4.779820    15B1u    4.839288  

    Beta Occupied:                                                        

       1Ag   -89.251241     1B1u  -89.251241     2Ag    -8.170082  
       2B1u   -8.169982     3Ag    -6.080224     3B1u   -6.079473  
       1B3u   -6.071422     1B2u   -6.071422     1B2g   -6.071365  
       1B3g   -6.071365     4Ag    -0.941519     4B1u   -0.693735  
       5Ag    -0.473702     2B3u   -0.425241     2B2u   -0.425241  

    Beta Virtual:                                                         

       2B2g   -0.064215     2B3g   -0.064215     5B1u    0.033252  
       6Ag     0.074670     3B2u    0.082738     3B3u    0.082738  
       7Ag     0.096816     3B3g    0.117947     3B2g    0.117947  
       6B1u    0.131654     7B1u    0.223348     1B1g    0.255284  
       8Ag     0.255285     4B2u    0.298838     4B3u    0.298838  
       9Ag     0.363339     8B1u    0.400226     1Au     0.400227  
       4B2g    0.529449     4B3g    0.529449     9B1u    0.552707  
       5B2u    0.694446     5B3u    0.694446    10B1u    0.742712  
      10Ag     0.766437     5B3g    0.794668     5B2g    0.794668  
       6B3u    0.848371     6B2u    0.848371    11Ag     0.854819  
      12Ag     0.895515     2B1g    0.895526    11B1u    0.950142  
       2Au     0.950155    13Ag     0.950570     6B2g    1.040586  
       6B3g    1.040586    12B1u    1.182244    13B1u    1.591992  
       7B3u    4.581443     7B2u    4.581443    14Ag     4.636982  
       3B1g    4.637006    15Ag     4.678317    14B1u    4.684304  
       3Au     4.684329     7B2g    4.788224     7B3g    4.788224  
      15B1u    4.845879  

    Final Occupation by Irrep:
             Ag   B1g   B2g   B3g    Au   B1u   B2u   B3u 
    DOCC [     5,    0,    1,    1,    0,    4,    2,    2 ]
    SOCC [     0,    0,    1,    1,    0,    0,    0,    0 ]

  @DF-UKS Final Energy:  -796.33965805030721

   => Energetics <=

    Nuclear Repulsion Energy =             71.5692308142905063
    One-Electron Energy =               -1241.5799776504559304
    Two-Electron Energy =                 413.1182036665606461
    DFT Exchange-Correlation Energy =     -39.5807078901150149
    Empirical Dispersion Energy =           0.0000000000000000
    VV10 Nonlocal Energy =                  0.1335930094126374
    Total Energy =                       -796.3396580503072073

  UHF NO Occupations:
  HONO-2 :    2B3u 1.9980973
  HONO-1 :    2B3g 1.0000000
  HONO-0 :    2B2g 1.0000000
  LUNO+0 :    3B3u 0.0019027
  LUNO+1 :    3B2u 0.0019027
  LUNO+2 :    5B1u 0.0002223
  LUNO+3 :    6 Ag 0.0001727


Computation Completed


Properties will be evaluated at   0.000000,   0.000000,   0.000000 [a0]

Properties computed using the SCF density matrix

  Nuclear Dipole Moment: [e a0]
     X:     0.0000      Y:     0.0000      Z:     0.0000

  Electronic Dipole Moment: [e a0]
     X:     0.0000      Y:     0.0000      Z:     0.0000

  Dipole Moment: [e a0]
     X:     0.0000      Y:     0.0000      Z:     0.0000     Total:     0.0000

  Dipole Moment: [D]
     X:     0.0000      Y:     0.0000      Z:     0.0000     Total:     0.0000


*** tstop() called on bp1-compute00099.data.bp.acrc.priv at Tue Apr 27 18:03:14 2021
Module time:
	user time   =     127.48 seconds =       2.12 minutes
	system time =       5.36 seconds =       0.09 minutes
	total time  =          6 seconds =       0.10 minutes
Total time:
	user time   =    1572.64 seconds =      26.21 minutes
	system time =      65.45 seconds =       1.09 minutes
	total time  =         69 seconds =       1.15 minutes

         ----------------------------------------------------------
                                   FINDIF
                     R. A. King and Jonathon Misiewicz
         ---------------------------------------------------------

  Computing second-derivative from energies using projected, 
  symmetry-adapted, cartesian coordinates.

  3 energies passed in, including the reference geometry.
    Using 3-point formula.
    Energy without displacement: -796.3396583287
    Check energies below for precision!
    0: -1 :      -796.3396580619
    0: 1  :      -796.3396580503

-------------------------------------------------------------


  ==> Harmonic Vibrational Analysis <==

  non-mass-weighted Hessian:       Symmetric? True   Hermitian? True   Lin Dep Dim?  5 (0)
  projection of translations (True) and rotations (True) removed 5 degrees of freedom (5)
  total projector:                 Symmetric? True   Hermitian? True   Lin Dep Dim?  5 (5)
  mass-weighted Hessian:           Symmetric? True   Hermitian? True   Lin Dep Dim?  5 (0)
  pre-proj  low-frequency mode:    0.0000  [cm^-1]
  pre-proj  low-frequency mode:    0.0000  [cm^-1]
  pre-proj  low-frequency mode:    0.0000  [cm^-1]
  pre-proj  low-frequency mode:    0.0000  [cm^-1]
  pre-proj  low-frequency mode:    0.0000  [cm^-1]
  pre-proj  all modes:['0.0000' '0.0000' '0.0000' '0.0000' '0.0000' '759.1229']
  projected mass-weighted Hessian: Symmetric? True   Hermitian? True   Lin Dep Dim?  5 (5)
  post-proj low-frequency mode:    0.0000i [cm^-1] (TR)
  post-proj low-frequency mode:    0.0000  [cm^-1] (TR)
  post-proj low-frequency mode:    0.0000  [cm^-1] (TR)
  post-proj low-frequency mode:    0.0000  [cm^-1] (TR)
  post-proj low-frequency mode:    0.0000  [cm^-1] (TR)
  post-proj  all modes:['0.0000i' '0.0000' '0.0000' '0.0000' '0.0000' '759.1229']

  Vibration                       6           
  Freq [cm^-1]                 759.1229       
  Irrep                           Ag          
  Reduced mass [u]             31.9721        
  Force const [mDyne/A]        10.8554        
  Turning point v=0 [a0]        0.0704        
  RMS dev v=0 [a0 u^1/2]        0.2816        
  Char temp [K]               1092.2089       
  ----------------------------------------------------------------------------------
      1   S                0.00  0.00  0.71   
      2   S                0.00  0.00 -0.71   

  ==> Thermochemistry Components <==

  Entropy, S
    Electronic S            2.183 [cal/(mol K)]        9.134 [J/(mol K)]       0.00347910 [mEh/K] (multiplicity = 3)
    Translational S        38.385 [cal/(mol K)]      160.603 [J/(mol K)]       0.06117054 [mEh/K] (mol. weight = 63.9441 [u], P = 101325.00 [Pa])
    Rotational S           13.641 [cal/(mol K)]       57.074 [J/(mol K)]       0.02173834 [mEh/K] (symmetry no. = 2)
    Vibrational S           0.243 [cal/(mol K)]        1.018 [J/(mol K)]       0.00038766 [mEh/K]
  Total S                  54.453 [cal/(mol K)]      227.829 [J/(mol K)]       0.08677564 [mEh/K]
  Correction S              0.000 [cal/(mol K)]        0.000 [J/(mol K)]       0.00000000 [mEh/K]

  Constant volume heat capacity, Cv
    Electronic Cv           0.000 [cal/(mol K)]        0.000 [J/(mol K)]       0.00000000 [mEh/K]
    Translational Cv        2.981 [cal/(mol K)]       12.472 [J/(mol K)]       0.00475022 [mEh/K]
    Rotational Cv           1.987 [cal/(mol K)]        8.314 [J/(mol K)]       0.00316681 [mEh/K]
    Vibrational Cv          0.720 [cal/(mol K)]        3.014 [J/(mol K)]       0.00114812 [mEh/K]
  Total Cv                  5.688 [cal/(mol K)]       23.801 [J/(mol K)]       0.00906515 [mEh/K]
  Correction Cv             0.000 [cal/(mol K)]        0.000 [J/(mol K)]       0.00000000 [mEh/K]

  Constant pressure heat capacity, Cp
    Electronic Cp           0.000 [cal/(mol K)]        0.000 [J/(mol K)]       0.00000000 [mEh/K]
    Translational Cp        4.968 [cal/(mol K)]       20.786 [J/(mol K)]       0.00791703 [mEh/K]
    Rotational Cp           1.987 [cal/(mol K)]        8.314 [J/(mol K)]       0.00316681 [mEh/K]
    Vibrational Cp          0.720 [cal/(mol K)]        3.014 [J/(mol K)]       0.00114812 [mEh/K]
  Total Cp                  7.676 [cal/(mol K)]       32.115 [J/(mol K)]       0.01223196 [mEh/K]
  Correction Cp             0.000 [cal/(mol K)]        0.000 [J/(mol K)]       0.00000000 [mEh/K]

  ==> Thermochemistry Energy Analysis <==

  Raw electronic energy, E0
  Total E0, Electronic energy at well bottom at 0 [K]                 -796.33965833 [Eh]

  Zero-point energy, ZPE_vib = Sum_i nu_i / 2
    Electronic ZPE          0.000 [kcal/mol]        0.000 [kJ/mol]       0.00000000 [Eh]
    Translational ZPE       0.000 [kcal/mol]        0.000 [kJ/mol]       0.00000000 [Eh]
    Rotational ZPE          0.000 [kcal/mol]        0.000 [kJ/mol]       0.00000000 [Eh]
    Vibrational ZPE         1.085 [kcal/mol]        4.541 [kJ/mol]       0.00172941 [Eh]         379.561 [cm^-1]
  Correction ZPE            1.085 [kcal/mol]        4.541 [kJ/mol]       0.00172941 [Eh]         379.561 [cm^-1]
  Total ZPE, Electronic energy at 0 [K]                               -796.33792892 [Eh]

  Thermal Energy, E (includes ZPE)
    Electronic E            0.000 [kcal/mol]        0.000 [kJ/mol]       0.00000000 [Eh]
    Translational E         0.889 [kcal/mol]        3.718 [kJ/mol]       0.00141628 [Eh]
    Rotational E            0.592 [kcal/mol]        2.479 [kJ/mol]       0.00094418 [Eh]
    Vibrational E           1.142 [kcal/mol]        4.780 [kJ/mol]       0.00182046 [Eh]
  Correction E              2.624 [kcal/mol]       10.977 [kJ/mol]       0.00418092 [Eh]
  Total E, Electronic energy at  298.15 [K]                           -796.33547741 [Eh]

  Enthalpy, H_trans = E_trans + k_B * T
    Electronic H            0.000 [kcal/mol]        0.000 [kJ/mol]       0.00000000 [Eh]
    Translational H         1.481 [kcal/mol]        6.197 [kJ/mol]       0.00236046 [Eh]
    Rotational H            0.592 [kcal/mol]        2.479 [kJ/mol]       0.00094418 [Eh]
    Vibrational H           1.142 [kcal/mol]        4.780 [kJ/mol]       0.00182046 [Eh]
  Correction H              3.216 [kcal/mol]       13.456 [kJ/mol]       0.00512510 [Eh]
  Total H, Enthalpy at  298.15 [K]                                    -796.33453323 [Eh]

  Gibbs free energy, G = H - T * S
    Electronic G           -0.651 [kcal/mol]       -2.723 [kJ/mol]      -0.00103729 [Eh]
    Translational G        -9.963 [kcal/mol]      -41.686 [kJ/mol]      -0.01587754 [Eh]
    Rotational G           -3.475 [kcal/mol]      -14.538 [kJ/mol]      -0.00553710 [Eh]
    Vibrational G           1.070 [kcal/mol]        4.476 [kJ/mol]       0.00170488 [Eh]
  Correction G            -13.019 [kcal/mol]      -54.471 [kJ/mol]      -0.02074705 [Eh]
  Total G, Free enthalpy at  298.15 [K]                               -796.36040538 [Eh]

    Psi4 stopped on: Tuesday, 27 April 2021 06:03PM
    Psi4 wall time for execution: 0:01:09.15

*** Psi4 exiting successfully. Buy a developer a beer!
