
    -----------------------------------------------------------------------
          Psi4: An Open-Source Ab Initio Electronic Structure Package
                               Psi4 1.3.2 release

                         Git: Rev {HEAD} ecbda83 


    R. M. Parrish, L. A. Burns, D. G. A. Smith, A. C. Simmonett,
    A. E. DePrince III, E. G. Hohenstein, U. Bozkaya, A. Yu. Sokolov,
    R. Di Remigio, R. M. Richard, J. F. Gonthier, A. M. James,
    H. R. McAlexander, A. Kumar, M. Saitow, X. Wang, B. P. Pritchard,
    P. Verma, H. F. Schaefer III, K. Patkowski, R. A. King, E. F. Valeev,
    F. A. Evangelista, J. M. Turney, T. D. Crawford, and C. D. Sherrill,
    J. Chem. Theory Comput. 13(7) pp 3185--3197 (2017).
    (doi: 10.1021/acs.jctc.7b00174)


                         Additional Contributions by
    P. Kraus, H. Kruse, M. H. Lechner, M. C. Schieber, R. A. Shaw,
    A. Alenaizan, R. Galvelis, Z. L. Glick, S. Lehtola, and J. P. Misiewicz

    -----------------------------------------------------------------------


    Psi4 started on: Tuesday, 27 April 2021 05:35PM

    Process ID: 185501
    Host:       bp1-compute00116.data.bp.acrc.priv
    PSIDATADIR: /work/zw18965/.conda/envs/p4env/share/psi4
    Memory:     500.0 MiB
    Threads:    24
    
  ==> Input File <==

--------------------------------------------------------------------------
memory 144 GB

molecule {
0 1
C 0.0000000000 0.0000000000 0.0000000000
C 0.0000000000 0.0000000000 1.2065000000
H 0.0000000000 -0.0000000000 2.2699000000
H -0.0000000000 -0.0000000000 -1.0634000000
}

set dynamic_level 1
set basis cc-pV(T+d)Z
 
optimize("wB97X-V")
frequencies("wB97X-V")
--------------------------------------------------------------------------

  Memory set to 134.110 GiB by Python driver.
gradient() will perform gradient computation by finite difference of analytic energies.

         ----------------------------------------------------------
                                   FINDIF
                     R. A. King and Jonathon Misiewicz
         ---------------------------------------------------------

  Using finite-differences of energies to determine gradients.
    Generating geometries for use with 3-point formula.
    Displacement size will be 5.00e-03.
    Number of atoms is 4.
    Number of symmetric SALCs is 2.
    Translations projected? 1. Rotations projected? 1.
    Number of geometries (including reference) is 5.

  //>>>>>>>>>>>>>>>>>>>>>>>>>>>>>>>>>>>//
  //    Loading displacement 1 of 5    //
  //<<<<<<<<<<<<<<<<<<<<<<<<<<<<<<<<<<<//

*** tstart() called on bp1-compute00116.data.bp.acrc.priv
*** at Tue Apr 27 17:35:19 2021

   => Loading Basis Set <=

    Name: CC-PV(T+D)Z
    Role: ORBITAL
    Keyword: BASIS
    atoms 1-2 entry C          line   195 file /work/zw18965/.conda/envs/p4env/share/psi4/basis/cc-pv_tpd_z.gbs 
    atoms 3-4 entry H          line    32 file /work/zw18965/.conda/envs/p4env/share/psi4/basis/cc-pv_tpd_z.gbs 


         ---------------------------------------------------------
                                   SCF
               by Justin Turney, Rob Parrish, Andy Simmonett
                          and Daniel G. A. Smith
                              RKS Reference
                       24 Threads, 137329 MiB Core
         ---------------------------------------------------------

  ==> Geometry <==

    Molecular point group: d2h
    Full point group: D_inf_h

    Geometry (in Angstrom), charge = 0, multiplicity = 1:

       Center              X                  Y                   Z               Mass       
    ------------   -----------------  -----------------  -----------------  -----------------
         C            0.000000000000     0.000000000000    -0.603250000000    12.000000000000
         C            0.000000000000     0.000000000000     0.603250000000    12.000000000000
         H            0.000000000000     0.000000000000     1.666650000000     1.007825032230
         H            0.000000000000     0.000000000000    -1.666650000000     1.007825032230

  Running in d2h symmetry.

  Rotational constants: A = ************  B =      1.17616  C =      1.17616 [cm^-1]
  Rotational constants: A = ************  B =  35260.38772  C =  35260.38772 [MHz]
  Nuclear repulsion =   24.717610292828144

  Charge       = 0
  Multiplicity = 1
  Electrons    = 14
  Nalpha       = 7
  Nbeta        = 7

  ==> Algorithm <==

  SCF Algorithm Type is DF.
  DIIS enabled.
  MOM disabled.
  Fractional occupation disabled.
  Guess Type is SAD.
  Energy threshold   = 1.00e-08
  Density threshold  = 1.00e-08
  Integral threshold = 0.00e+00

  ==> Primary Basis <==

  Basis Set: CC-PV(T+D)Z
    Blend: CC-PV(T+D)Z
    Number of shells: 32
    Number of basis function: 88
    Number of Cartesian functions: 100
    Spherical Harmonics?: true
    Max angular momentum: 3

  ==> DFT Potential <==

   => Composite Functional: WB97X-V <= 

    wB97X-V Hyb-GGA Exchange-Correlation Functional

    N. Mardirossian and M. Head-Gordon, Phys. Chem. Chem. Phys. 16, 9904 (2014)

    Deriv               =              1
    GGA                 =           TRUE
    Meta                =          FALSE

    Exchange Hybrid     =           TRUE
    MP2 Hybrid          =          FALSE

   => Exchange-Correlation Functionals <=

    1.0000   wB97X-V range-separated functional

   => Exact (HF) Exchange <=

    0.8330            HF,LR [omega = 0.3000]
    0.1670               HF 

   => VV10 Non-Local Parameters <=

    VV10 B              =     6.0000E+00
    VV10 C              =     1.0000E-02

   => Molecular Quadrature <=

    Radial Scheme          =       TREUTLER
    Pruning Scheme         =           FLAT
    Nuclear Scheme         =       TREUTLER

    BS radius alpha        =              1
    Pruning alpha          =              1
    Radial Points          =             75
    Spherical Points       =            302
    Total Points           =          88542
    Total Blocks           =            710
    Max Points             =            256
    Max Functions          =             88

   => Loading Basis Set <=

    Name: (CC-PV(T+D)Z AUX)
    Role: JKFIT
    Keyword: DF_BASIS_SCF
    atoms 1-2 entry C          line   125 file /work/zw18965/.conda/envs/p4env/share/psi4/basis/cc-pvtz-jkfit.gbs 
    atoms 3-4 entry H          line    51 file /work/zw18965/.conda/envs/p4env/share/psi4/basis/cc-pvtz-jkfit.gbs 

  ==> Pre-Iterations <==

   -------------------------------------------------------
    Irrep   Nso     Nmo     Nalpha   Nbeta   Ndocc  Nsocc
   -------------------------------------------------------
     Ag        20      20       0       0       0       0
     B1g        4       4       0       0       0       0
     B2g       10      10       0       0       0       0
     B3g       10      10       0       0       0       0
     Au         4       4       0       0       0       0
     B1u       20      20       0       0       0       0
     B2u       10      10       0       0       0       0
     B3u       10      10       0       0       0       0
   -------------------------------------------------------
    Total      88      88       7       7       7       0
   -------------------------------------------------------

  ==> Integral Setup <==

  ==> DiskDFJK: Density-Fitted J/K Matrices <==

    J tasked:                  Yes
    K tasked:                  Yes
    wK tasked:                 Yes
    Omega:               3.000E-01
    OpenMP threads:             24
    Integrals threads:          24
    Memory [MiB]:           102787
    Algorithm:                Core
    Integral Cache:           NONE
    Schwarz Cutoff:          1E-12
    Fitting Condition:       1E-10

   => Auxiliary Basis Set <=

  Basis Set: (CC-PV(T+D)Z AUX)
    Blend: CC-PVTZ-JKFIT
    Number of shells: 70
    Number of basis function: 218
    Number of Cartesian functions: 262
    Spherical Harmonics?: true
    Max angular momentum: 4

  Cached 100.0% of DFT collocation blocks in 0.204 [GiB].

  Minimum eigenvalue in the overlap matrix is 1.2842865361E-04.
  Using Symmetric Orthogonalization.

  SCF Guess: Superposition of Atomic Densities via on-the-fly atomic UHF.

  ==> Iterations <==

                           Total Energy        Delta E     RMS |[F,P]|

   @DF-RKS iter SAD:   -76.49504239488972   -7.64950e+01   0.00000e+00 
   @DF-RKS iter   1:   -77.24811975840069   -7.53077e-01   1.20621e-02 DIIS
   @DF-RKS iter   2:   -77.30461878386166   -5.64990e-02   6.62279e-03 DIIS
   @DF-RKS iter   3:   -77.32974983718523   -2.51311e-02   2.01613e-04 DIIS
   @DF-RKS iter   4:   -77.32979320225479   -4.33651e-05   2.67413e-05 DIIS
   @DF-RKS iter   5:   -77.32979432162529   -1.11937e-06   3.43888e-06 DIIS
   @DF-RKS iter   6:   -77.32979434109110   -1.94658e-08   6.25797e-07 DIIS
   @DF-RKS iter   7:   -77.32979434170066   -6.09560e-10   5.85944e-08 DIIS
   @DF-RKS iter   8:   -77.32979434170481   -4.14957e-12   1.03772e-08 DIIS
   @DF-RKS iter   9:   -77.32979434170504   -2.27374e-13   9.79123e-10 DIIS
  Energy and wave function converged.


  ==> Post-Iterations <==

    Orbital Energies [Eh]
    ---------------------

    Doubly Occupied:                                                      

       1Ag   -10.281249     1B1u  -10.278853     2Ag    -0.883110  
       2B1u   -0.686675     3Ag    -0.607908     1B2u   -0.397242  
       1B3u   -0.397242  

    Virtual:                                                              

       1B3g    0.120062     1B2g    0.120062     3B1u    0.135368  
       4Ag     0.157369     5Ag     0.271508     4B1u    0.342865  
       2B2u    0.384529     2B3u    0.384529     5B1u    0.480282  
       2B3g    0.494960     2B2g    0.494960     6Ag     0.539658  
       7Ag     0.694495     1B1g    0.694495     8Ag     0.719321  
       3B3u    0.724078     3B2u    0.724078     6B1u    0.877407  
       7B1u    0.979829     3B3g    0.989013     3B2g    0.989013  
       8B1u    1.000833     1Au     1.000834     9Ag     1.100637  
       4B3u    1.352248     4B2u    1.352248     9B1u    1.488606  
       4B2g    1.550129     4B3g    1.550129    10Ag     1.556621  
      10B1u    1.850748     5B2u    2.106813     5B3u    2.106813  
      11Ag     2.301512    11B1u    2.485726     2B1g    2.518268  
      12Ag     2.518268     5B2g    2.564283     5B3g    2.564283  
       6B3u    2.635662     6B2u    2.635662     7B3u    2.803342  
       7B2u    2.803342    13Ag     2.946065     6B2g    3.006843  
       6B3g    3.006843    14Ag     3.010052     3B1g    3.010055  
      15Ag     3.027461     7B3g    3.044227     7B2g    3.044227  
      12B1u    3.055563    13B1u    3.105725     2Au     3.105729  
       8B3u    3.236862     8B2u    3.236862    14B1u    3.253037  
       3Au     3.253037    15B1u    3.674852    16Ag     3.718833  
       4B1g    3.718836     8B2g    3.932908     8B3g    3.932908  
       9B3u    4.098283     9B2u    4.098283    17Ag     4.285024  
      16B1u    4.303563     4Au     4.303564    17B1u    4.589052  
       9B2g    4.678389     9B3g    4.678389    18Ag     4.931722  
      10B2u    5.565709    10B3u    5.565709    18B1u    5.866729  
      10B2g    6.072320    10B3g    6.072320    19B1u    6.103620  
      19Ag     6.480720    20Ag     9.161141    20B1u   16.020815  

    Final Occupation by Irrep:
             Ag   B1g   B2g   B3g    Au   B1u   B2u   B3u 
    DOCC [     3,    0,    0,    0,    0,    2,    1,    1 ]

  @DF-RKS Final Energy:   -77.32979434170504

   => Energetics <=

    Nuclear Repulsion Energy =             24.7176102928281445
    One-Electron Energy =                -151.7996961822001083
    Two-Electron Energy =                  57.5765768052592151
    DFT Exchange-Correlation Energy =      -7.8820146221086524
    Empirical Dispersion Energy =           0.0000000000000000
    VV10 Nonlocal Energy =                  0.0577293645163661
    Total Energy =                        -77.3297943417050533

Computation Completed


Properties will be evaluated at   0.000000,   0.000000,   0.000000 [a0]

Properties computed using the SCF density matrix

  Nuclear Dipole Moment: [e a0]
     X:     0.0000      Y:     0.0000      Z:    -0.0000

  Electronic Dipole Moment: [e a0]
     X:     0.0000      Y:     0.0000      Z:     0.0000

  Dipole Moment: [e a0]
     X:     0.0000      Y:     0.0000      Z:    -0.0000     Total:     0.0000

  Dipole Moment: [D]
     X:     0.0000      Y:     0.0000      Z:    -0.0000     Total:     0.0000


*** tstop() called on bp1-compute00116.data.bp.acrc.priv at Tue Apr 27 17:35:23 2021
Module time:
	user time   =      71.54 seconds =       1.19 minutes
	system time =       3.08 seconds =       0.05 minutes
	total time  =          4 seconds =       0.07 minutes
Total time:
	user time   =      71.54 seconds =       1.19 minutes
	system time =       3.08 seconds =       0.05 minutes
	total time  =          4 seconds =       0.07 minutes

  //>>>>>>>>>>>>>>>>>>>>>>>>>>>>>>>>>>>//
  //    Loading displacement 2 of 5    //
  //<<<<<<<<<<<<<<<<<<<<<<<<<<<<<<<<<<<//

*** tstart() called on bp1-compute00116.data.bp.acrc.priv
*** at Tue Apr 27 17:35:23 2021

   => Loading Basis Set <=

    Name: CC-PV(T+D)Z
    Role: ORBITAL
    Keyword: BASIS
    atoms 1-2 entry C          line   195 file /work/zw18965/.conda/envs/p4env/share/psi4/basis/cc-pv_tpd_z.gbs 
    atoms 3-4 entry H          line    32 file /work/zw18965/.conda/envs/p4env/share/psi4/basis/cc-pv_tpd_z.gbs 


         ---------------------------------------------------------
                                   SCF
               by Justin Turney, Rob Parrish, Andy Simmonett
                          and Daniel G. A. Smith
                              RKS Reference
                       24 Threads, 137329 MiB Core
         ---------------------------------------------------------

  ==> Geometry <==

    Molecular point group: d2h
    Full point group: D_inf_h

    Geometry (in Angstrom), charge = 0, multiplicity = 1:

       Center              X                  Y                   Z               Mass       
    ------------   -----------------  -----------------  -----------------  -----------------
         C            0.000000000000     0.000000000000    -0.603790089229    12.000000000000
         C            0.000000000000     0.000000000000     0.603790089229    12.000000000000
         H            0.000000000000     0.000000000000     1.666650000000     1.007825032230
         H            0.000000000000     0.000000000000    -1.666650000000     1.007825032230

  Running in d2h symmetry.

  Rotational constants: A = ************  B =      1.17488  C =      1.17488 [cm^-1]
  Rotational constants: A = ************  B =  35221.93903  C =  35221.93903 [MHz]
  Nuclear repulsion =   24.705855296097269

  Charge       = 0
  Multiplicity = 1
  Electrons    = 14
  Nalpha       = 7
  Nbeta        = 7

  ==> Algorithm <==

  SCF Algorithm Type is DF.
  DIIS enabled.
  MOM disabled.
  Fractional occupation disabled.
  Guess Type is SAD.
  Energy threshold   = 1.00e-08
  Density threshold  = 1.00e-08
  Integral threshold = 0.00e+00

  ==> Primary Basis <==

  Basis Set: CC-PV(T+D)Z
    Blend: CC-PV(T+D)Z
    Number of shells: 32
    Number of basis function: 88
    Number of Cartesian functions: 100
    Spherical Harmonics?: true
    Max angular momentum: 3

  ==> DFT Potential <==

   => Composite Functional: WB97X-V <= 

    wB97X-V Hyb-GGA Exchange-Correlation Functional

    N. Mardirossian and M. Head-Gordon, Phys. Chem. Chem. Phys. 16, 9904 (2014)

    Deriv               =              1
    GGA                 =           TRUE
    Meta                =          FALSE

    Exchange Hybrid     =           TRUE
    MP2 Hybrid          =          FALSE

   => Exchange-Correlation Functionals <=

    1.0000   wB97X-V range-separated functional

   => Exact (HF) Exchange <=

    0.8330            HF,LR [omega = 0.3000]
    0.1670               HF 

   => VV10 Non-Local Parameters <=

    VV10 B              =     6.0000E+00
    VV10 C              =     1.0000E-02

   => Molecular Quadrature <=

    Radial Scheme          =       TREUTLER
    Pruning Scheme         =           FLAT
    Nuclear Scheme         =       TREUTLER

    BS radius alpha        =              1
    Pruning alpha          =              1
    Radial Points          =             75
    Spherical Points       =            302
    Total Points           =          88542
    Total Blocks           =            710
    Max Points             =            256
    Max Functions          =             88

   => Loading Basis Set <=

    Name: (CC-PV(T+D)Z AUX)
    Role: JKFIT
    Keyword: DF_BASIS_SCF
    atoms 1-2 entry C          line   125 file /work/zw18965/.conda/envs/p4env/share/psi4/basis/cc-pvtz-jkfit.gbs 
    atoms 3-4 entry H          line    51 file /work/zw18965/.conda/envs/p4env/share/psi4/basis/cc-pvtz-jkfit.gbs 

  ==> Pre-Iterations <==

   -------------------------------------------------------
    Irrep   Nso     Nmo     Nalpha   Nbeta   Ndocc  Nsocc
   -------------------------------------------------------
     Ag        20      20       0       0       0       0
     B1g        4       4       0       0       0       0
     B2g       10      10       0       0       0       0
     B3g       10      10       0       0       0       0
     Au         4       4       0       0       0       0
     B1u       20      20       0       0       0       0
     B2u       10      10       0       0       0       0
     B3u       10      10       0       0       0       0
   -------------------------------------------------------
    Total      88      88       7       7       7       0
   -------------------------------------------------------

  ==> Integral Setup <==

  ==> DiskDFJK: Density-Fitted J/K Matrices <==

    J tasked:                  Yes
    K tasked:                  Yes
    wK tasked:                 Yes
    Omega:               3.000E-01
    OpenMP threads:             24
    Integrals threads:          24
    Memory [MiB]:           102787
    Algorithm:                Core
    Integral Cache:           NONE
    Schwarz Cutoff:          1E-12
    Fitting Condition:       1E-10

   => Auxiliary Basis Set <=

  Basis Set: (CC-PV(T+D)Z AUX)
    Blend: CC-PVTZ-JKFIT
    Number of shells: 70
    Number of basis function: 218
    Number of Cartesian functions: 262
    Spherical Harmonics?: true
    Max angular momentum: 4

  Cached 100.0% of DFT collocation blocks in 0.204 [GiB].

  Minimum eigenvalue in the overlap matrix is 1.2896583728E-04.
  Using Symmetric Orthogonalization.

  SCF Guess: Superposition of Atomic Densities via on-the-fly atomic UHF.

  ==> Iterations <==

                           Total Energy        Delta E     RMS |[F,P]|

   @DF-RKS iter SAD:   -76.49417353878806   -7.64942e+01   0.00000e+00 
   @DF-RKS iter   1:   -77.24841727136501   -7.54244e-01   1.20326e-02 DIIS
   @DF-RKS iter   2:   -77.30472667318030   -5.63094e-02   6.60133e-03 DIIS
   @DF-RKS iter   3:   -77.32969772268957   -2.49710e-02   2.01130e-04 DIIS
   @DF-RKS iter   4:   -77.32974109026087   -4.33676e-05   2.67750e-05 DIIS
   @DF-RKS iter   5:   -77.32974221430459   -1.12404e-06   3.42391e-06 DIIS
   @DF-RKS iter   6:   -77.32974223365198   -1.93474e-08   6.20212e-07 DIIS
   @DF-RKS iter   7:   -77.32974223424790   -5.95918e-10   5.79978e-08 DIIS
   @DF-RKS iter   8:   -77.32974223425185   -3.95062e-12   1.03173e-08 DIIS
   @DF-RKS iter   9:   -77.32974223425197   -1.13687e-13   9.75715e-10 DIIS
  Energy and wave function converged.


  ==> Post-Iterations <==

    Orbital Energies [Eh]
    ---------------------

    Doubly Occupied:                                                      

       1Ag   -10.281517     1B1u  -10.279141     2Ag    -0.882947  
       2B1u   -0.686982     3Ag    -0.608028     1B3u   -0.397075  
       1B2u   -0.397075  

    Virtual:                                                              

       1B3g    0.119751     1B2g    0.119751     3B1u    0.135369  
       4Ag     0.157379     5Ag     0.271556     4B1u    0.342622  
       2B3u    0.384608     2B2u    0.384608     5B1u    0.480389  
       2B2g    0.494816     2B3g    0.494816     6Ag     0.539770  
       7Ag     0.694463     1B1g    0.694463     8Ag     0.719309  
       3B2u    0.723947     3B3u    0.723947     6B1u    0.876635  
       7B1u    0.979488     3B3g    0.988960     3B2g    0.988960  
       8B1u    1.000582     1Au     1.000582     9Ag     1.100858  
       4B2u    1.351951     4B3u    1.351951     9B1u    1.488563  
       4B3g    1.550518     4B2g    1.550518    10Ag     1.557345  
      10B1u    1.849625     5B2u    2.107105     5B3u    2.107105  
      11Ag     2.301290    11B1u    2.484662     2B1g    2.517950  
      12Ag     2.517950     5B3g    2.563158     5B2g    2.563158  
       6B2u    2.635894     6B3u    2.635894     7B2u    2.802845  
       7B3u    2.802845    13Ag     2.946064     6B3g    3.007266  
       6B2g    3.007266    14Ag     3.010034     3B1g    3.010037  
      15Ag     3.027004     7B3g    3.043616     7B2g    3.043616  
      12B1u    3.056169    13B1u    3.105605     2Au     3.105608  
       8B2u    3.236181     8B3u    3.236181    14B1u    3.252551  
       3Au     3.252552    15B1u    3.674915    16Ag     3.719010  
       4B1g    3.719013     8B3g    3.932601     8B2g    3.932601  
       9B2u    4.098306     9B3u    4.098306    17Ag     4.283994  
      16B1u    4.303027     4Au     4.303028    17B1u    4.589673  
       9B3g    4.678334     9B2g    4.678334    18Ag     4.933894  
      10B3u    5.565787    10B2u    5.565787    18B1u    5.867673  
      10B3g    6.073048    10B2g    6.073048    19B1u    6.102839  
      19Ag     6.477661    20Ag     9.169374    20B1u   15.996584  

    Final Occupation by Irrep:
             Ag   B1g   B2g   B3g    Au   B1u   B2u   B3u 
    DOCC [     3,    0,    0,    0,    0,    2,    1,    1 ]

  @DF-RKS Final Energy:   -77.32974223425197

   => Energetics <=

    Nuclear Repulsion Energy =             24.7058552960972690
    One-Electron Energy =                -151.7754222715839205
    Two-Electron Energy =                  57.5636073705933029
    DFT Exchange-Correlation Energy =      -7.8815118537588091
    Empirical Dispersion Energy =           0.0000000000000000
    VV10 Nonlocal Energy =                  0.0577292244001945
    Total Energy =                        -77.3297422342519667

Computation Completed


Properties will be evaluated at   0.000000,   0.000000,   0.000000 [a0]

Properties computed using the SCF density matrix

  Nuclear Dipole Moment: [e a0]
     X:     0.0000      Y:     0.0000      Z:     0.0000

  Electronic Dipole Moment: [e a0]
     X:     0.0000      Y:     0.0000      Z:     0.0000

  Dipole Moment: [e a0]
     X:     0.0000      Y:     0.0000      Z:     0.0000     Total:     0.0000

  Dipole Moment: [D]
     X:     0.0000      Y:     0.0000      Z:     0.0000     Total:     0.0000


*** tstop() called on bp1-compute00116.data.bp.acrc.priv at Tue Apr 27 17:35:26 2021
Module time:
	user time   =      74.09 seconds =       1.23 minutes
	system time =       2.81 seconds =       0.05 minutes
	total time  =          3 seconds =       0.05 minutes
Total time:
	user time   =     145.77 seconds =       2.43 minutes
	system time =       5.90 seconds =       0.10 minutes
	total time  =          7 seconds =       0.12 minutes

  //>>>>>>>>>>>>>>>>>>>>>>>>>>>>>>>>>>>//
  //    Loading displacement 3 of 5    //
  //<<<<<<<<<<<<<<<<<<<<<<<<<<<<<<<<<<<//

*** tstart() called on bp1-compute00116.data.bp.acrc.priv
*** at Tue Apr 27 17:35:26 2021

   => Loading Basis Set <=

    Name: CC-PV(T+D)Z
    Role: ORBITAL
    Keyword: BASIS
    atoms 1-2 entry C          line   195 file /work/zw18965/.conda/envs/p4env/share/psi4/basis/cc-pv_tpd_z.gbs 
    atoms 3-4 entry H          line    32 file /work/zw18965/.conda/envs/p4env/share/psi4/basis/cc-pv_tpd_z.gbs 


         ---------------------------------------------------------
                                   SCF
               by Justin Turney, Rob Parrish, Andy Simmonett
                          and Daniel G. A. Smith
                              RKS Reference
                       24 Threads, 137329 MiB Core
         ---------------------------------------------------------

  ==> Geometry <==

    Molecular point group: d2h
    Full point group: D_inf_h

    Geometry (in Angstrom), charge = 0, multiplicity = 1:

       Center              X                  Y                   Z               Mass       
    ------------   -----------------  -----------------  -----------------  -----------------
         C            0.000000000000     0.000000000000    -0.602709910771    12.000000000000
         C            0.000000000000     0.000000000000     0.602709910771    12.000000000000
         H            0.000000000000     0.000000000000     1.666650000000     1.007825032230
         H            0.000000000000     0.000000000000    -1.666650000000     1.007825032230

  Running in d2h symmetry.

  Rotational constants: A = ************  B =      1.17744  C =      1.17744 [cm^-1]
  Rotational constants: A = ************  B =  35298.88593  C =  35298.88593 [MHz]
  Nuclear repulsion =   24.729394000008451

  Charge       = 0
  Multiplicity = 1
  Electrons    = 14
  Nalpha       = 7
  Nbeta        = 7

  ==> Algorithm <==

  SCF Algorithm Type is DF.
  DIIS enabled.
  MOM disabled.
  Fractional occupation disabled.
  Guess Type is SAD.
  Energy threshold   = 1.00e-08
  Density threshold  = 1.00e-08
  Integral threshold = 0.00e+00

  ==> Primary Basis <==

  Basis Set: CC-PV(T+D)Z
    Blend: CC-PV(T+D)Z
    Number of shells: 32
    Number of basis function: 88
    Number of Cartesian functions: 100
    Spherical Harmonics?: true
    Max angular momentum: 3

  ==> DFT Potential <==

   => Composite Functional: WB97X-V <= 

    wB97X-V Hyb-GGA Exchange-Correlation Functional

    N. Mardirossian and M. Head-Gordon, Phys. Chem. Chem. Phys. 16, 9904 (2014)

    Deriv               =              1
    GGA                 =           TRUE
    Meta                =          FALSE

    Exchange Hybrid     =           TRUE
    MP2 Hybrid          =          FALSE

   => Exchange-Correlation Functionals <=

    1.0000   wB97X-V range-separated functional

   => Exact (HF) Exchange <=

    0.8330            HF,LR [omega = 0.3000]
    0.1670               HF 

   => VV10 Non-Local Parameters <=

    VV10 B              =     6.0000E+00
    VV10 C              =     1.0000E-02

   => Molecular Quadrature <=

    Radial Scheme          =       TREUTLER
    Pruning Scheme         =           FLAT
    Nuclear Scheme         =       TREUTLER

    BS radius alpha        =              1
    Pruning alpha          =              1
    Radial Points          =             75
    Spherical Points       =            302
    Total Points           =          88542
    Total Blocks           =            710
    Max Points             =            256
    Max Functions          =             88

   => Loading Basis Set <=

    Name: (CC-PV(T+D)Z AUX)
    Role: JKFIT
    Keyword: DF_BASIS_SCF
    atoms 1-2 entry C          line   125 file /work/zw18965/.conda/envs/p4env/share/psi4/basis/cc-pvtz-jkfit.gbs 
    atoms 3-4 entry H          line    51 file /work/zw18965/.conda/envs/p4env/share/psi4/basis/cc-pvtz-jkfit.gbs 

  ==> Pre-Iterations <==

   -------------------------------------------------------
    Irrep   Nso     Nmo     Nalpha   Nbeta   Ndocc  Nsocc
   -------------------------------------------------------
     Ag        20      20       0       0       0       0
     B1g        4       4       0       0       0       0
     B2g       10      10       0       0       0       0
     B3g       10      10       0       0       0       0
     Au         4       4       0       0       0       0
     B1u       20      20       0       0       0       0
     B2u       10      10       0       0       0       0
     B3u       10      10       0       0       0       0
   -------------------------------------------------------
    Total      88      88       7       7       7       0
   -------------------------------------------------------

  ==> Integral Setup <==

  ==> DiskDFJK: Density-Fitted J/K Matrices <==

    J tasked:                  Yes
    K tasked:                  Yes
    wK tasked:                 Yes
    Omega:               3.000E-01
    OpenMP threads:             24
    Integrals threads:          24
    Memory [MiB]:           102787
    Algorithm:                Core
    Integral Cache:           NONE
    Schwarz Cutoff:          1E-12
    Fitting Condition:       1E-10

   => Auxiliary Basis Set <=

  Basis Set: (CC-PV(T+D)Z AUX)
    Blend: CC-PVTZ-JKFIT
    Number of shells: 70
    Number of basis function: 218
    Number of Cartesian functions: 262
    Spherical Harmonics?: true
    Max angular momentum: 4

  Cached 100.0% of DFT collocation blocks in 0.204 [GiB].

  Minimum eigenvalue in the overlap matrix is 1.2789383774E-04.
  Using Symmetric Orthogonalization.

  SCF Guess: Superposition of Atomic Densities via on-the-fly atomic UHF.

  ==> Iterations <==

                           Total Energy        Delta E     RMS |[F,P]|

   @DF-RKS iter SAD:   -76.49590903927260   -7.64959e+01   0.00000e+00 
   @DF-RKS iter   1:   -77.24781494990839   -7.51906e-01   1.20917e-02 DIIS
   @DF-RKS iter   2:   -77.30450432204364   -5.66894e-02   6.64433e-03 DIIS
   @DF-RKS iter   3:   -77.32979649960804   -2.52922e-02   2.02106e-04 DIIS
   @DF-RKS iter   4:   -77.32983986491621   -4.33653e-05   2.67081e-05 DIIS
   @DF-RKS iter   5:   -77.32984097959364   -1.11468e-06   3.45374e-06 DIIS
   @DF-RKS iter   6:   -77.32984099917830   -1.95847e-08   6.31280e-07 DIIS
   @DF-RKS iter   7:   -77.32984099980148   -6.23174e-10   5.91890e-08 DIIS
   @DF-RKS iter   8:   -77.32984099980557   -4.09273e-12   1.04334e-08 DIIS
   @DF-RKS iter   9:   -77.32984099980560   -2.84217e-14   9.82430e-10 DIIS
  Energy and wave function converged.


  ==> Post-Iterations <==

    Orbital Energies [Eh]
    ---------------------

    Doubly Occupied:                                                      

       1Ag   -10.280982     1B1u  -10.278565     2Ag    -0.883273  
       2B1u   -0.686368     3Ag    -0.607788     1B2u   -0.397409  
       1B3u   -0.397409  

    Virtual:                                                              

       1B2g    0.120373     1B3g    0.120373     3B1u    0.135368  
       4Ag     0.157360     5Ag     0.271460     4B1u    0.343108  
       2B2u    0.384450     2B3u    0.384450     5B1u    0.480175  
       2B3g    0.495104     2B2g    0.495104     6Ag     0.539547  
       7Ag     0.694527     1B1g    0.694527     8Ag     0.719332  
       3B3u    0.724209     3B2u    0.724209     6B1u    0.878174  
       7B1u    0.980176     3B3g    0.989067     3B2g    0.989067  
       8B1u    1.001085     1Au     1.001086     9Ag     1.100419  
       4B3u    1.352545     4B2u    1.352545     9B1u    1.488652  
       4B2g    1.549739     4B3g    1.549739    10Ag     1.555898  
      10B1u    1.851881     5B2u    2.106520     5B3u    2.106520  
      11Ag     2.301735    11B1u    2.486791     2B1g    2.518587  
      12Ag     2.518587     5B3g    2.565409     5B2g    2.565409  
       6B2u    2.635431     6B3u    2.635431     7B3u    2.803839  
       7B2u    2.803839    13Ag     2.946062     6B2g    3.006419  
       6B3g    3.006419    14Ag     3.010070     3B1g    3.010073  
      15Ag     3.027919     7B3g    3.044839     7B2g    3.044839  
      12B1u    3.054959    13B1u    3.105845     2Au     3.105848  
       8B3u    3.237545     8B2u    3.237545    14B1u    3.253522  
       3Au     3.253522    15B1u    3.674789    16Ag     3.718658  
       4B1g    3.718660     8B2g    3.933213     8B3g    3.933213  
       9B3u    4.098260     9B2u    4.098260    17Ag     4.286053  
      16B1u    4.304101     4Au     4.304102    17B1u    4.588439  
       9B2g    4.678443     9B3g    4.678443    18Ag     4.929552  
      10B2u    5.565632    10B3u    5.565632    18B1u    5.865804  
      10B2g    6.071594    10B3g    6.071594    19B1u    6.104411  
      19Ag     6.483795    20Ag     9.152926    20B1u   16.045034  

    Final Occupation by Irrep:
             Ag   B1g   B2g   B3g    Au   B1u   B2u   B3u 
    DOCC [     3,    0,    0,    0,    0,    2,    1,    1 ]

  @DF-RKS Final Energy:   -77.32984099980560

   => Energetics <=

    Nuclear Repulsion Energy =             24.7293940000084511
    One-Electron Energy =                -151.8240154289423458
    Two-Electron Energy =                  57.5895702041321798
    DFT Exchange-Correlation Energy =      -7.8825192831988069
    Empirical Dispersion Energy =           0.0000000000000000
    VV10 Nonlocal Energy =                  0.0577295081949238
    Total Energy =                        -77.3298409998055973

Computation Completed


Properties will be evaluated at   0.000000,   0.000000,   0.000000 [a0]

Properties computed using the SCF density matrix

  Nuclear Dipole Moment: [e a0]
     X:     0.0000      Y:     0.0000      Z:     0.0000

  Electronic Dipole Moment: [e a0]
     X:     0.0000      Y:     0.0000      Z:     0.0000

  Dipole Moment: [e a0]
     X:     0.0000      Y:     0.0000      Z:     0.0000     Total:     0.0000

  Dipole Moment: [D]
     X:     0.0000      Y:     0.0000      Z:     0.0000     Total:     0.0000


*** tstop() called on bp1-compute00116.data.bp.acrc.priv at Tue Apr 27 17:35:29 2021
Module time:
	user time   =      72.69 seconds =       1.21 minutes
	system time =       2.42 seconds =       0.04 minutes
	total time  =          3 seconds =       0.05 minutes
Total time:
	user time   =     218.61 seconds =       3.64 minutes
	system time =       8.33 seconds =       0.14 minutes
	total time  =         10 seconds =       0.17 minutes

  //>>>>>>>>>>>>>>>>>>>>>>>>>>>>>>>>>>>//
  //    Loading displacement 4 of 5    //
  //<<<<<<<<<<<<<<<<<<<<<<<<<<<<<<<<<<<//

*** tstart() called on bp1-compute00116.data.bp.acrc.priv
*** at Tue Apr 27 17:35:29 2021

   => Loading Basis Set <=

    Name: CC-PV(T+D)Z
    Role: ORBITAL
    Keyword: BASIS
    atoms 1-2 entry C          line   195 file /work/zw18965/.conda/envs/p4env/share/psi4/basis/cc-pv_tpd_z.gbs 
    atoms 3-4 entry H          line    32 file /work/zw18965/.conda/envs/p4env/share/psi4/basis/cc-pv_tpd_z.gbs 


         ---------------------------------------------------------
                                   SCF
               by Justin Turney, Rob Parrish, Andy Simmonett
                          and Daniel G. A. Smith
                              RKS Reference
                       24 Threads, 137329 MiB Core
         ---------------------------------------------------------

  ==> Geometry <==

    Molecular point group: d2h
    Full point group: D_inf_h

    Geometry (in Angstrom), charge = 0, multiplicity = 1:

       Center              X                  Y                   Z               Mass       
    ------------   -----------------  -----------------  -----------------  -----------------
         C            0.000000000000     0.000000000000    -0.603250000000    12.000000000000
         C            0.000000000000     0.000000000000     0.603250000000    12.000000000000
         H            0.000000000000     0.000000000000     1.664786353368     1.007825032230
         H            0.000000000000     0.000000000000    -1.664786353368     1.007825032230

  Running in d2h symmetry.

  Rotational constants: A = ************  B =      1.17719  C =      1.17719 [cm^-1]
  Rotational constants: A = ************  B =  35291.20161  C =  35291.20161 [MHz]
  Nuclear repulsion =   24.730570443607064

  Charge       = 0
  Multiplicity = 1
  Electrons    = 14
  Nalpha       = 7
  Nbeta        = 7

  ==> Algorithm <==

  SCF Algorithm Type is DF.
  DIIS enabled.
  MOM disabled.
  Fractional occupation disabled.
  Guess Type is SAD.
  Energy threshold   = 1.00e-08
  Density threshold  = 1.00e-08
  Integral threshold = 0.00e+00

  ==> Primary Basis <==

  Basis Set: CC-PV(T+D)Z
    Blend: CC-PV(T+D)Z
    Number of shells: 32
    Number of basis function: 88
    Number of Cartesian functions: 100
    Spherical Harmonics?: true
    Max angular momentum: 3

  ==> DFT Potential <==

   => Composite Functional: WB97X-V <= 

    wB97X-V Hyb-GGA Exchange-Correlation Functional

    N. Mardirossian and M. Head-Gordon, Phys. Chem. Chem. Phys. 16, 9904 (2014)

    Deriv               =              1
    GGA                 =           TRUE
    Meta                =          FALSE

    Exchange Hybrid     =           TRUE
    MP2 Hybrid          =          FALSE

   => Exchange-Correlation Functionals <=

    1.0000   wB97X-V range-separated functional

   => Exact (HF) Exchange <=

    0.8330            HF,LR [omega = 0.3000]
    0.1670               HF 

   => VV10 Non-Local Parameters <=

    VV10 B              =     6.0000E+00
    VV10 C              =     1.0000E-02

   => Molecular Quadrature <=

    Radial Scheme          =       TREUTLER
    Pruning Scheme         =           FLAT
    Nuclear Scheme         =       TREUTLER

    BS radius alpha        =              1
    Pruning alpha          =              1
    Radial Points          =             75
    Spherical Points       =            302
    Total Points           =          88542
    Total Blocks           =            710
    Max Points             =            256
    Max Functions          =             88

   => Loading Basis Set <=

    Name: (CC-PV(T+D)Z AUX)
    Role: JKFIT
    Keyword: DF_BASIS_SCF
    atoms 1-2 entry C          line   125 file /work/zw18965/.conda/envs/p4env/share/psi4/basis/cc-pvtz-jkfit.gbs 
    atoms 3-4 entry H          line    51 file /work/zw18965/.conda/envs/p4env/share/psi4/basis/cc-pvtz-jkfit.gbs 

  ==> Pre-Iterations <==

   -------------------------------------------------------
    Irrep   Nso     Nmo     Nalpha   Nbeta   Ndocc  Nsocc
   -------------------------------------------------------
     Ag        20      20       0       0       0       0
     B1g        4       4       0       0       0       0
     B2g       10      10       0       0       0       0
     B3g       10      10       0       0       0       0
     Au         4       4       0       0       0       0
     B1u       20      20       0       0       0       0
     B2u       10      10       0       0       0       0
     B3u       10      10       0       0       0       0
   -------------------------------------------------------
    Total      88      88       7       7       7       0
   -------------------------------------------------------

  ==> Integral Setup <==

  ==> DiskDFJK: Density-Fitted J/K Matrices <==

    J tasked:                  Yes
    K tasked:                  Yes
    wK tasked:                 Yes
    Omega:               3.000E-01
    OpenMP threads:             24
    Integrals threads:          24
    Memory [MiB]:           102787
    Algorithm:                Core
    Integral Cache:           NONE
    Schwarz Cutoff:          1E-12
    Fitting Condition:       1E-10

   => Auxiliary Basis Set <=

  Basis Set: (CC-PV(T+D)Z AUX)
    Blend: CC-PVTZ-JKFIT
    Number of shells: 70
    Number of basis function: 218
    Number of Cartesian functions: 262
    Spherical Harmonics?: true
    Max angular momentum: 4

  Cached 100.0% of DFT collocation blocks in 0.204 [GiB].

  Minimum eigenvalue in the overlap matrix is 1.2832393164E-04.
  Using Symmetric Orthogonalization.

  SCF Guess: Superposition of Atomic Densities via on-the-fly atomic UHF.

  ==> Iterations <==

                           Total Energy        Delta E     RMS |[F,P]|

   @DF-RKS iter SAD:   -76.49582747355268   -7.64958e+01   0.00000e+00 
   @DF-RKS iter   1:   -77.24817503732751   -7.52348e-01   1.20593e-02 DIIS
   @DF-RKS iter   2:   -77.30468685188758   -5.65118e-02   6.61422e-03 DIIS
   @DF-RKS iter   3:   -77.32973197927271   -2.50451e-02   2.01436e-04 DIIS
   @DF-RKS iter   4:   -77.32977541568845   -4.34364e-05   2.67957e-05 DIIS
   @DF-RKS iter   5:   -77.32977654107577   -1.12539e-06   3.41481e-06 DIIS
   @DF-RKS iter   6:   -77.32977656036658   -1.92908e-08   6.18348e-07 DIIS
   @DF-RKS iter   7:   -77.32977656095660   -5.90020e-10   5.76859e-08 DIIS
   @DF-RKS iter   8:   -77.32977656096044   -3.83693e-12   1.02576e-08 DIIS
   @DF-RKS iter   9:   -77.32977656096055   -1.13687e-13   9.73539e-10 DIIS
  Energy and wave function converged.


  ==> Post-Iterations <==

    Orbital Energies [Eh]
    ---------------------

    Doubly Occupied:                                                      

       1Ag   -10.281095     1B1u  -10.278698     2Ag    -0.883199  
       2B1u   -0.687237     3Ag    -0.608371     1B2u   -0.397273  
       1B3u   -0.397273  

    Virtual:                                                              

       1B2g    0.120019     1B3g    0.120019     3B1u    0.135598  
       4Ag     0.157466     5Ag     0.271469     4B1u    0.343315  
       2B2u    0.384526     2B3u    0.384526     5B1u    0.480398  
       2B2g    0.494944     2B3g    0.494944     6Ag     0.540135  
       7Ag     0.694458     1B1g    0.694458     8Ag     0.719889  
       3B3u    0.724383     3B2u    0.724383     6B1u    0.877178  
       7B1u    0.980983     3B2g    0.989641     3B3g    0.989641  
       8B1u    1.000797     1Au     1.000798     9Ag     1.100056  
       4B3u    1.353139     4B2u    1.353139     9B1u    1.489523  
       4B2g    1.550586     4B3g    1.550586    10Ag     1.559573  
      10B1u    1.850243     5B2u    2.107010     5B3u    2.107010  
      11Ag     2.301271    11B1u    2.484025     2B1g    2.518421  
      12Ag     2.518422     5B2g    2.564706     5B3g    2.564706  
       6B2u    2.635628     6B3u    2.635628     7B3u    2.802846  
       7B2u    2.802846    13Ag     2.945874     6B2g    3.006109  
       6B3g    3.006109    14Ag     3.009536     3B1g    3.009539  
      15Ag     3.030077     7B2g    3.044187     7B3g    3.044187  
      12B1u    3.058555    13B1u    3.105508     2Au     3.105511  
       8B3u    3.237987     8B2u    3.237987    14B1u    3.253830  
       3Au     3.253831    15B1u    3.677109    16Ag     3.721134  
       4B1g    3.721136     8B2g    3.933206     8B3g    3.933206  
       9B3u    4.100275     9B2u    4.100275    17Ag     4.288186  
      16B1u    4.306405     4Au     4.306406    17B1u    4.593174  
       9B3g    4.683212     9B2g    4.683212    18Ag     4.939467  
      10B3u    5.572949    10B2u    5.572949    18B1u    5.873317  
      10B2g    6.075318    10B3g    6.075318    19B1u    6.106245  
      19Ag     6.487036    20Ag     9.189802    20B1u   16.025512  

    Final Occupation by Irrep:
             Ag   B1g   B2g   B3g    Au   B1u   B2u   B3u 
    DOCC [     3,    0,    0,    0,    0,    2,    1,    1 ]

  @DF-RKS Final Energy:   -77.32977656096055

   => Energetics <=

    Nuclear Repulsion Energy =             24.7305704436070641
    One-Electron Energy =                -151.8231388845295271
    Two-Electron Energy =                  57.5881618948557374
    DFT Exchange-Correlation Energy =      -7.8831012717573454
    Empirical Dispersion Energy =           0.0000000000000000
    VV10 Nonlocal Energy =                  0.0577312568635192
    Total Energy =                        -77.3297765609605392

Computation Completed


Properties will be evaluated at   0.000000,   0.000000,   0.000000 [a0]

Properties computed using the SCF density matrix

  Nuclear Dipole Moment: [e a0]
     X:     0.0000      Y:     0.0000      Z:    -0.0000

  Electronic Dipole Moment: [e a0]
     X:     0.0000      Y:     0.0000      Z:     0.0000

  Dipole Moment: [e a0]
     X:     0.0000      Y:     0.0000      Z:    -0.0000     Total:     0.0000

  Dipole Moment: [D]
     X:     0.0000      Y:     0.0000      Z:    -0.0000     Total:     0.0000


*** tstop() called on bp1-compute00116.data.bp.acrc.priv at Tue Apr 27 17:35:32 2021
Module time:
	user time   =      71.84 seconds =       1.20 minutes
	system time =       2.11 seconds =       0.04 minutes
	total time  =          3 seconds =       0.05 minutes
Total time:
	user time   =     290.59 seconds =       4.84 minutes
	system time =      10.45 seconds =       0.17 minutes
	total time  =         13 seconds =       0.22 minutes

  //>>>>>>>>>>>>>>>>>>>>>>>>>>>>>>>>>>>//
  //    Loading displacement 5 of 5    //
  //<<<<<<<<<<<<<<<<<<<<<<<<<<<<<<<<<<<//

*** tstart() called on bp1-compute00116.data.bp.acrc.priv
*** at Tue Apr 27 17:35:32 2021

   => Loading Basis Set <=

    Name: CC-PV(T+D)Z
    Role: ORBITAL
    Keyword: BASIS
    atoms 1-2 entry C          line   195 file /work/zw18965/.conda/envs/p4env/share/psi4/basis/cc-pv_tpd_z.gbs 
    atoms 3-4 entry H          line    32 file /work/zw18965/.conda/envs/p4env/share/psi4/basis/cc-pv_tpd_z.gbs 


         ---------------------------------------------------------
                                   SCF
               by Justin Turney, Rob Parrish, Andy Simmonett
                          and Daniel G. A. Smith
                              RKS Reference
                       24 Threads, 137329 MiB Core
         ---------------------------------------------------------

  ==> Geometry <==

    Molecular point group: d2h
    Full point group: D_inf_h

    Geometry (in Angstrom), charge = 0, multiplicity = 1:

       Center              X                  Y                   Z               Mass       
    ------------   -----------------  -----------------  -----------------  -----------------
         C            0.000000000000     0.000000000000    -0.603250000000    12.000000000000
         C            0.000000000000     0.000000000000     0.603250000000    12.000000000000
         H            0.000000000000     0.000000000000     1.668513646632     1.007825032230
         H            0.000000000000     0.000000000000    -1.668513646632     1.007825032230

  Running in d2h symmetry.

  Rotational constants: A = ************  B =      1.17513  C =      1.17513 [cm^-1]
  Rotational constants: A = ************  B =  35229.59320  C =  35229.59320 [MHz]
  Nuclear repulsion =   24.704690992421998

  Charge       = 0
  Multiplicity = 1
  Electrons    = 14
  Nalpha       = 7
  Nbeta        = 7

  ==> Algorithm <==

  SCF Algorithm Type is DF.
  DIIS enabled.
  MOM disabled.
  Fractional occupation disabled.
  Guess Type is SAD.
  Energy threshold   = 1.00e-08
  Density threshold  = 1.00e-08
  Integral threshold = 0.00e+00

  ==> Primary Basis <==

  Basis Set: CC-PV(T+D)Z
    Blend: CC-PV(T+D)Z
    Number of shells: 32
    Number of basis function: 88
    Number of Cartesian functions: 100
    Spherical Harmonics?: true
    Max angular momentum: 3

  ==> DFT Potential <==

   => Composite Functional: WB97X-V <= 

    wB97X-V Hyb-GGA Exchange-Correlation Functional

    N. Mardirossian and M. Head-Gordon, Phys. Chem. Chem. Phys. 16, 9904 (2014)

    Deriv               =              1
    GGA                 =           TRUE
    Meta                =          FALSE

    Exchange Hybrid     =           TRUE
    MP2 Hybrid          =          FALSE

   => Exchange-Correlation Functionals <=

    1.0000   wB97X-V range-separated functional

   => Exact (HF) Exchange <=

    0.8330            HF,LR [omega = 0.3000]
    0.1670               HF 

   => VV10 Non-Local Parameters <=

    VV10 B              =     6.0000E+00
    VV10 C              =     1.0000E-02

   => Molecular Quadrature <=

    Radial Scheme          =       TREUTLER
    Pruning Scheme         =           FLAT
    Nuclear Scheme         =       TREUTLER

    BS radius alpha        =              1
    Pruning alpha          =              1
    Radial Points          =             75
    Spherical Points       =            302
    Total Points           =          88542
    Total Blocks           =            714
    Max Points             =            254
    Max Functions          =             88

   => Loading Basis Set <=

    Name: (CC-PV(T+D)Z AUX)
    Role: JKFIT
    Keyword: DF_BASIS_SCF
    atoms 1-2 entry C          line   125 file /work/zw18965/.conda/envs/p4env/share/psi4/basis/cc-pvtz-jkfit.gbs 
    atoms 3-4 entry H          line    51 file /work/zw18965/.conda/envs/p4env/share/psi4/basis/cc-pvtz-jkfit.gbs 

  ==> Pre-Iterations <==

   -------------------------------------------------------
    Irrep   Nso     Nmo     Nalpha   Nbeta   Ndocc  Nsocc
   -------------------------------------------------------
     Ag        20      20       0       0       0       0
     B1g        4       4       0       0       0       0
     B2g       10      10       0       0       0       0
     B3g       10      10       0       0       0       0
     Au         4       4       0       0       0       0
     B1u       20      20       0       0       0       0
     B2u       10      10       0       0       0       0
     B3u       10      10       0       0       0       0
   -------------------------------------------------------
    Total      88      88       7       7       7       0
   -------------------------------------------------------

  ==> Integral Setup <==

  ==> DiskDFJK: Density-Fitted J/K Matrices <==

    J tasked:                  Yes
    K tasked:                  Yes
    wK tasked:                 Yes
    Omega:               3.000E-01
    OpenMP threads:             24
    Integrals threads:          24
    Memory [MiB]:           102787
    Algorithm:                Core
    Integral Cache:           NONE
    Schwarz Cutoff:          1E-12
    Fitting Condition:       1E-10

   => Auxiliary Basis Set <=

  Basis Set: (CC-PV(T+D)Z AUX)
    Blend: CC-PVTZ-JKFIT
    Number of shells: 70
    Number of basis function: 218
    Number of Cartesian functions: 262
    Spherical Harmonics?: true
    Max angular momentum: 4

  Cached 100.0% of DFT collocation blocks in 0.204 [GiB].

  Minimum eigenvalue in the overlap matrix is 1.2853416969E-04.
  Using Symmetric Orthogonalization.

  SCF Guess: Superposition of Atomic Densities via on-the-fly atomic UHF.

  ==> Iterations <==

                           Total Energy        Delta E     RMS |[F,P]|

   @DF-RKS iter SAD:   -76.49424966909102   -7.64942e+01   0.00000e+00 
   @DF-RKS iter   1:   -77.24805314304872   -7.53803e-01   1.20649e-02 DIIS
   @DF-RKS iter   2:   -77.30453981617480   -5.64867e-02   6.63140e-03 DIIS
   @DF-RKS iter   3:   -77.32975735081000   -2.52175e-02   2.01797e-04 DIIS
   @DF-RKS iter   4:   -77.32980064660821   -4.32958e-05   2.66887e-05 DIIS
   @DF-RKS iter   5:   -77.32980176001345   -1.11341e-06   3.46301e-06 DIIS
   @DF-RKS iter   6:   -77.32980177965854   -1.96451e-08   6.33069e-07 DIIS
   @DF-RKS iter   7:   -77.32980178028741   -6.28873e-10   5.94726e-08 DIIS
   @DF-RKS iter   8:   -77.32980178029173   -4.32010e-12   1.04869e-08 DIIS
   @DF-RKS iter   9:   -77.32980178029180   -7.10543e-14   9.84516e-10 DIIS
  Energy and wave function converged.


  ==> Post-Iterations <==

    Orbital Energies [Eh]
    ---------------------

    Doubly Occupied:                                                      

       1Ag   -10.281404     1B1u  -10.279008     2Ag    -0.883021  
       2B1u   -0.686114     3Ag    -0.607446     1B2u   -0.397211  
       1B3u   -0.397211  

    Virtual:                                                              

       1B2g    0.120105     1B3g    0.120105     3B1u    0.135136  
       4Ag     0.157270     5Ag     0.271551     4B1u    0.342417  
       2B2u    0.384533     2B3u    0.384533     5B1u    0.480167  
       2B3g    0.494975     2B2g    0.494975     6Ag     0.539186  
       7Ag     0.694531     1B1g    0.694531     8Ag     0.718757  
       3B2u    0.723774     3B3u    0.723774     6B1u    0.877634  
       7B1u    0.978679     3B2g    0.988386     3B3g    0.988386  
       8B1u    1.000870     1Au     1.000870     9Ag     1.101233  
       4B2u    1.351356     4B3u    1.351356     9B1u    1.487692  
       4B3g    1.549669     4B2g    1.549669    10Ag     1.553680  
      10B1u    1.851268     5B2u    2.106617     5B3u    2.106617  
      11Ag     2.301751    11B1u    2.487439     2B1g    2.518118  
      12Ag     2.518118     5B3g    2.563862     5B2g    2.563862  
       6B2u    2.635697     6B3u    2.635697     7B2u    2.803839  
       7B3u    2.803839    13Ag     2.946217     6B3g    3.007567  
       6B2g    3.007567    14Ag     3.010568     3B1g    3.010570  
      15Ag     3.024880     7B3g    3.044267     7B2g    3.044267  
      12B1u    3.052585    13B1u    3.105946     2Au     3.105950  
       8B2u    3.235734     8B3u    3.235734    14B1u    3.252248  
       3Au     3.252249    15B1u    3.672599    16Ag     3.716539  
       4B1g    3.716542     8B3g    3.932601     8B2g    3.932601  
       9B2u    4.096301     9B3u    4.096301    17Ag     4.281863  
      16B1u    4.300727     4Au     4.300729    17B1u    4.584959  
       9B3g    4.673579     9B2g    4.673579    18Ag     4.923994  
      10B2u    5.558481    10B3u    5.558481    18B1u    5.860185  
      10B3g    6.069297    10B2g    6.069297    19B1u    6.101052  
      19Ag     6.474425    20Ag     9.132701    20B1u   16.016221  

    Final Occupation by Irrep:
             Ag   B1g   B2g   B3g    Au   B1u   B2u   B3u 
    DOCC [     3,    0,    0,    0,    0,    2,    1,    1 ]

  @DF-RKS Final Energy:   -77.32980178029180

   => Energetics <=

    Nuclear Repulsion Energy =             24.7046909924219982
    One-Electron Energy =                -151.7763091947392695
    Two-Electron Energy =                  57.5650201534358317
    DFT Exchange-Correlation Energy =      -7.8809312092297912
    Empirical Dispersion Energy =           0.0000000000000000
    VV10 Nonlocal Energy =                  0.0577274778194214
    Total Energy =                        -77.3298017802918025

Computation Completed


Properties will be evaluated at   0.000000,   0.000000,   0.000000 [a0]

Properties computed using the SCF density matrix

  Nuclear Dipole Moment: [e a0]
     X:     0.0000      Y:     0.0000      Z:    -0.0000

  Electronic Dipole Moment: [e a0]
     X:     0.0000      Y:     0.0000      Z:     0.0000

  Dipole Moment: [e a0]
     X:     0.0000      Y:     0.0000      Z:    -0.0000     Total:     0.0000

  Dipole Moment: [D]
     X:     0.0000      Y:     0.0000      Z:    -0.0000     Total:     0.0000


*** tstop() called on bp1-compute00116.data.bp.acrc.priv at Tue Apr 27 17:35:35 2021
Module time:
	user time   =      73.03 seconds =       1.22 minutes
	system time =       2.15 seconds =       0.04 minutes
	total time  =          3 seconds =       0.05 minutes
Total time:
	user time   =     363.76 seconds =       6.06 minutes
	system time =      12.61 seconds =       0.21 minutes
	total time  =         16 seconds =       0.27 minutes

         ----------------------------------------------------------
                                   FINDIF
                     R. A. King and Jonathon Misiewicz
         ---------------------------------------------------------

  Computing gradient from energies.
    Using 3-point formula.
    Energy without displacement:  -77.3297943417
    Check energies below for precision!
    Forces are for mass-weighted, symmetry-adapted cartesians (in au).

     Coord      Energy(-1)        Energy(+1)            Force
        0    -77.3297422343    -77.3298409998     -0.0098765554
        1    -77.3297765610    -77.3298017803     -0.0025219331


-------------------------------------------------------------
  ## New Matrix (Symmetry 0) ##
  Irrep: 1 Size: 4 x 3

                 1                   2                   3

    1     0.00000000000000     0.00000000000000    -0.02419252105586
    2     0.00000000000000     0.00000000000000     0.02419252105586
    3     0.00000000000000     0.00000000000000    -0.00179023951461
    4     0.00000000000000     0.00000000000000     0.00179023951461




			-----------------------------------------
			 OPTKING 2.0: for geometry optimizations 
			  - R.A. King,  Bethel University        
			-----------------------------------------
	At level 1: Red. Int., RFO, no backsteps, dynamic trust

	Internal coordinates to be generated automatically.
	Detected frag 1 with atoms:  1 2 3 4
	---Fragment 1 Bond Connectivity---
	 1 : 2 4
	 2 : 1 3
	 3 : 2
	 4 : 1

	---Fragment 1 Geometry and Gradient---
	 C           0.0000000000        0.0000000000       -1.1399772852
	 C           0.0000000000        0.0000000000        1.1399772852
	 H           0.0000000000        0.0000000000        3.1495120470
	 H           0.0000000000        0.0000000000       -3.1495120470
	             0.0000000000        0.0000000000       -0.0241925211
	             0.0000000000        0.0000000000        0.0241925211
	             0.0000000000        0.0000000000       -0.0017902395
	             0.0000000000        0.0000000000        0.0017902395

	Previous optimization step data not found.  Starting new optimization.

	---Fragment 1 Intrafragment Coordinates---
	 - Coordinate -           - BOHR/RAD -       - ANG/DEG -
	 R(1,2)           =         2.279955	       1.206500
	 R(1,4)           =         2.009535	       1.063400
	 R(2,3)           =         2.009535	       1.063400
	 L(1,2,3)         =         3.141593	     180.000000
	 l(1,2,3)         =         3.141593	     180.000000
	 L(2,1,4)         =         3.141593	     180.000000
	 l(2,1,4)         =         3.141593	     180.000000

	Current energy   :       -77.3297943417

	Generating empirical Hessian (Schlegel '84) for each fragment.
	Taking RFO optimization step.
	Going to follow RFO solution 1.
	Using RFO vector 1.
	Norm of target step-size    0.02301
	Projected energy change by RFO approximation:        -0.0005101373

	Back-transformation to cartesian coordinates...
	Successfully converged to displaced geometry.

	--- Internal Coordinate Step in ANG or DEG, aJ/ANG or AJ/DEG ---
	 ---------------------------------------------------------------------------
	   Coordinate                Previous        Force       Change         New 
	   ----------                --------       ------       ------       ------
	    1 R(1,2)          =      1.206500    -0.184566    -0.011660     1.194840
	    2 R(1,4)          =      1.063400     0.014749     0.002485     1.065885
	    3 R(2,3)          =      1.063400     0.014749     0.002485     1.065885
	    4 L(1,2,3)        =    180.000000     0.000000     0.000000   180.000000
	    5 l(1,2,3)        =    180.000000     0.000000     0.000000   180.000000
	    6 L(2,1,4)        =    180.000000     0.000000     0.000000   180.000000
	    7 l(2,1,4)        =    180.000000     0.000000     0.000000   180.000000
	 ---------------------------------------------------------------------------
	Successfully symmetrized geometry.

  ==> Convergence Check <==

  Measures of convergence in internal coordinates in au.
  Criteria marked as inactive (o), active & met (*), and active & unmet ( ).
  --------------------------------------------------------------------------------------------- ~
   Step     Total Energy     Delta E     MAX Force     RMS Force      MAX Disp      RMS Disp    ~
  --------------------------------------------------------------------------------------------- ~
    Convergence Criteria    1.00e-06 *    3.00e-04 *             o    1.20e-03 *             o  ~
  --------------------------------------------------------------------------------------------- ~
      1     -77.32979434   -7.73e+01      2.24e-02      8.52e-03 o    2.20e-02      8.70e-03 o  ~
  ---------------------------------------------------------------------------------------------

	Writing optimization data to binary file.
	Structure for next step:
	Cartesian Geometry (in Angstrom)
	    C    -0.0000000000  -0.0000000000  -0.5974202412
	    C    -0.0000000000   0.0000000000   0.5974202412
	    H     0.0000000000   0.0000000000   1.6633049107
	    H     0.0000000000   0.0000000000  -1.6633049107
			--------------------------
			 OPTKING Finished Execution 
			--------------------------

    Structure for next step:
    Molecular point group: d2h
    Full point group: D_inf_h

    Geometry (in Angstrom), charge = 0, multiplicity = 1:

    C           -0.000000000000     0.000000000000    -0.597420243597
    C            0.000000000000     0.000000000000     0.597420243597
    H            0.000000000000    -0.000000000000     1.663304917204
    H            0.000000000000    -0.000000000000    -1.663304917204

gradient() will perform gradient computation by finite difference of analytic energies.

         ----------------------------------------------------------
                                   FINDIF
                     R. A. King and Jonathon Misiewicz
         ---------------------------------------------------------

  Using finite-differences of energies to determine gradients.
    Generating geometries for use with 3-point formula.
    Displacement size will be 5.00e-03.
    Number of atoms is 4.
    Number of symmetric SALCs is 2.
    Translations projected? 1. Rotations projected? 1.
    Number of geometries (including reference) is 5.

  //>>>>>>>>>>>>>>>>>>>>>>>>>>>>>>>>>>>//
  //    Loading displacement 1 of 5    //
  //<<<<<<<<<<<<<<<<<<<<<<<<<<<<<<<<<<<//

*** tstart() called on bp1-compute00116.data.bp.acrc.priv
*** at Tue Apr 27 17:35:35 2021

   => Loading Basis Set <=

    Name: CC-PV(T+D)Z
    Role: ORBITAL
    Keyword: BASIS
    atoms 1-2 entry C          line   195 file /work/zw18965/.conda/envs/p4env/share/psi4/basis/cc-pv_tpd_z.gbs 
    atoms 3-4 entry H          line    32 file /work/zw18965/.conda/envs/p4env/share/psi4/basis/cc-pv_tpd_z.gbs 


         ---------------------------------------------------------
                                   SCF
               by Justin Turney, Rob Parrish, Andy Simmonett
                          and Daniel G. A. Smith
                              RKS Reference
                       24 Threads, 137329 MiB Core
         ---------------------------------------------------------

  ==> Geometry <==

    Molecular point group: d2h
    Full point group: D_inf_h

    Geometry (in Angstrom), charge = 0, multiplicity = 1:

       Center              X                  Y                   Z               Mass       
    ------------   -----------------  -----------------  -----------------  -----------------
         C            0.000000000000     0.000000000000    -0.597420243597    12.000000000000
         C           -0.000000000000     0.000000000000     0.597420243597    12.000000000000
         H           -0.000000000000     0.000000000000     1.663304917204     1.007825032230
         H           -0.000000000000     0.000000000000    -1.663304917204     1.007825032230

  Running in d2h symmetry.

  Rotational constants: A = ************  B =      1.19200  C =      1.19200 [cm^-1]
  Rotational constants: A = ************  B =  35735.21026  C =  35735.21026 [MHz]
  Nuclear repulsion =   24.869442977435558

  Charge       = 0
  Multiplicity = 1
  Electrons    = 14
  Nalpha       = 7
  Nbeta        = 7

  ==> Algorithm <==

  SCF Algorithm Type is DF.
  DIIS enabled.
  MOM disabled.
  Fractional occupation disabled.
  Guess Type is READ.
  Energy threshold   = 1.00e-08
  Density threshold  = 1.00e-08
  Integral threshold = 0.00e+00

  ==> Primary Basis <==

  Basis Set: CC-PV(T+D)Z
    Blend: CC-PV(T+D)Z
    Number of shells: 32
    Number of basis function: 88
    Number of Cartesian functions: 100
    Spherical Harmonics?: true
    Max angular momentum: 3

  ==> DFT Potential <==

   => Composite Functional: WB97X-V <= 

    wB97X-V Hyb-GGA Exchange-Correlation Functional

    N. Mardirossian and M. Head-Gordon, Phys. Chem. Chem. Phys. 16, 9904 (2014)

    Deriv               =              1
    GGA                 =           TRUE
    Meta                =          FALSE

    Exchange Hybrid     =           TRUE
    MP2 Hybrid          =          FALSE

   => Exchange-Correlation Functionals <=

    1.0000   wB97X-V range-separated functional

   => Exact (HF) Exchange <=

    0.8330            HF,LR [omega = 0.3000]
    0.1670               HF 

   => VV10 Non-Local Parameters <=

    VV10 B              =     6.0000E+00
    VV10 C              =     1.0000E-02

   => Molecular Quadrature <=

    Radial Scheme          =       TREUTLER
    Pruning Scheme         =           FLAT
    Nuclear Scheme         =       TREUTLER

    BS radius alpha        =              1
    Pruning alpha          =              1
    Radial Points          =             75
    Spherical Points       =            302
    Total Points           =          88542
    Total Blocks           =            710
    Max Points             =            256
    Max Functions          =             88

   => Loading Basis Set <=

    Name: (CC-PV(T+D)Z AUX)
    Role: JKFIT
    Keyword: DF_BASIS_SCF
    atoms 1-2 entry C          line   125 file /work/zw18965/.conda/envs/p4env/share/psi4/basis/cc-pvtz-jkfit.gbs 
    atoms 3-4 entry H          line    51 file /work/zw18965/.conda/envs/p4env/share/psi4/basis/cc-pvtz-jkfit.gbs 

   => Loading Basis Set <=

    Name: CC-PV(T+D)Z
    Role: ORBITAL
    Keyword: BASIS
    atoms 1-2 entry C          line   195 file /work/zw18965/.conda/envs/p4env/share/psi4/basis/cc-pv_tpd_z.gbs 
    atoms 3-4 entry H          line    32 file /work/zw18965/.conda/envs/p4env/share/psi4/basis/cc-pv_tpd_z.gbs 

  Reading orbitals from file 180, no projection.

  ==> Pre-Iterations <==

   -------------------------------------------------------
    Irrep   Nso     Nmo     Nalpha   Nbeta   Ndocc  Nsocc
   -------------------------------------------------------
     Ag        20      20       0       0       0       0
     B1g        4       4       0       0       0       0
     B2g       10      10       0       0       0       0
     B3g       10      10       0       0       0       0
     Au         4       4       0       0       0       0
     B1u       20      20       0       0       0       0
     B2u       10      10       0       0       0       0
     B3u       10      10       0       0       0       0
   -------------------------------------------------------
    Total      88      88       7       7       7       0
   -------------------------------------------------------

  ==> Integral Setup <==

  ==> DiskDFJK: Density-Fitted J/K Matrices <==

    J tasked:                  Yes
    K tasked:                  Yes
    wK tasked:                 Yes
    Omega:               3.000E-01
    OpenMP threads:             24
    Integrals threads:          24
    Memory [MiB]:           102787
    Algorithm:                Core
    Integral Cache:           NONE
    Schwarz Cutoff:          1E-12
    Fitting Condition:       1E-10

   => Auxiliary Basis Set <=

  Basis Set: (CC-PV(T+D)Z AUX)
    Blend: CC-PVTZ-JKFIT
    Number of shells: 70
    Number of basis function: 218
    Number of Cartesian functions: 262
    Spherical Harmonics?: true
    Max angular momentum: 4

  Cached 100.0% of DFT collocation blocks in 0.204 [GiB].

  Minimum eigenvalue in the overlap matrix is 1.2259387515E-04.
  Using Symmetric Orthogonalization.

  SCF Guess: Orbitals guess was supplied from a previous computation.

  ==> Iterations <==

                           Total Energy        Delta E     RMS |[F,P]|

   @DF-RKS iter   0:   -77.31985325966163   -7.73199e+01   1.29127e-03 
   @DF-RKS iter   1:   -77.33001203558204   -1.01588e-02   1.32160e-04 DIIS
   @DF-RKS iter   2:   -77.33002175452324   -9.71894e-06   7.52279e-05 DIIS
   @DF-RKS iter   3:   -77.33002472612981   -2.97161e-06   5.01898e-06 DIIS
   @DF-RKS iter   4:   -77.33002474382134   -1.76915e-08   1.53797e-06 DIIS
   @DF-RKS iter   5:   -77.33002474567793   -1.85659e-09   1.36812e-07 DIIS
   @DF-RKS iter   6:   -77.33002474570650   -2.85638e-11   1.85571e-08 DIIS
   @DF-RKS iter   7:   -77.33002474570715   -6.53699e-13   2.25921e-09 DIIS
  Energy and wave function converged.


  ==> Post-Iterations <==

    Orbital Energies [Eh]
    ---------------------

    Doubly Occupied:                                                      

       1Ag   -10.278075     1B1u  -10.275447     2Ag    -0.885027  
       2B1u   -0.684358     3Ag    -0.607419     1B2u   -0.399122  
       1B3u   -0.399122  

    Virtual:                                                              

       1B2g    0.123353     1B3g    0.123353     3B1u    0.135778  
       4Ag     0.157439     5Ag     0.270943     4B1u    0.346268  
       2B2u    0.383663     2B3u    0.383663     5B1u    0.479326  
       2B3g    0.496511     2B2g    0.496511     6Ag     0.539325  
       7Ag     0.694785     1B1g    0.694785     8Ag     0.720456  
       3B3u    0.726041     3B2u    0.726041     6B1u    0.885049  
       7B1u    0.985911     3B2g    0.990729     3B3g    0.990729  
       8B1u    1.003487     1Au     1.003487     9Ag     1.097311  
       4B2u    1.357072     4B3u    1.357072     9B1u    1.490749  
       4B3g    1.546716     4B2g    1.546716    10Ag     1.554116  
      10B1u    1.862460     5B3u    2.103933     5B2u    2.103933  
      11Ag     2.303560    11B1u    2.494241     2B1g    2.522014  
      12Ag     2.522015     5B2g    2.577262     5B3g    2.577262  
       6B2u    2.633125     6B3u    2.633125     7B3u    2.807853  
       7B2u    2.807853    13Ag     2.945294     6B2g    3.000929  
       6B3g    3.000929    14Ag     3.009331     3B1g    3.009333  
      15Ag     3.037328     7B3g    3.050800     7B2g    3.050800  
      12B1u    3.054579    13B1u    3.106540     2Au     3.106543  
       8B3u    3.246329     8B2u    3.246329    14B1u    3.259712  
       3Au     3.259712    15B1u    3.678215    16Ag     3.721134  
       4B1g    3.721137     8B3g    3.936656     8B2g    3.936656  
       9B3u    4.101631     9B2u    4.101631    17Ag     4.301790  
      16B1u    4.314589     4Au     4.314590    17B1u    4.590198  
       9B3g    4.687563     9B2g    4.687563    18Ag     4.922187  
      10B2u    5.577907    10B3u    5.577907    18B1u    5.869265  
      10B2g    6.069778    10B3g    6.069778    19B1u    6.117235  
      19Ag     6.525855    20Ag     9.123962    20B1u   16.289951  

    Final Occupation by Irrep:
             Ag   B1g   B2g   B3g    Au   B1u   B2u   B3u 
    DOCC [     3,    0,    0,    0,    0,    2,    1,    1 ]

  @DF-RKS Final Energy:   -77.33002474570715

   => Energetics <=

    Nuclear Repulsion Energy =             24.8694429774355577
    One-Electron Energy =                -152.1065354524505153
    Two-Electron Energy =                  57.7388307065320987
    DFT Exchange-Correlation Energy =      -7.8894974287382489
    Empirical Dispersion Energy =           0.0000000000000000
    VV10 Nonlocal Energy =                  0.0577344515139705
    Total Energy =                        -77.3300247457071492

Computation Completed


Properties will be evaluated at   0.000000,   0.000000,   0.000000 [a0]

Properties computed using the SCF density matrix

  Nuclear Dipole Moment: [e a0]
     X:     0.0000      Y:     0.0000      Z:     0.0000

  Electronic Dipole Moment: [e a0]
     X:     0.0000      Y:     0.0000      Z:     0.0000

  Dipole Moment: [e a0]
     X:     0.0000      Y:     0.0000      Z:     0.0000     Total:     0.0000

  Dipole Moment: [D]
     X:     0.0000      Y:     0.0000      Z:     0.0000     Total:     0.0000


*** tstop() called on bp1-compute00116.data.bp.acrc.priv at Tue Apr 27 17:35:38 2021
Module time:
	user time   =      56.50 seconds =       0.94 minutes
	system time =       1.88 seconds =       0.03 minutes
	total time  =          3 seconds =       0.05 minutes
Total time:
	user time   =     420.64 seconds =       7.01 minutes
	system time =      14.51 seconds =       0.24 minutes
	total time  =         19 seconds =       0.32 minutes

  //>>>>>>>>>>>>>>>>>>>>>>>>>>>>>>>>>>>//
  //    Loading displacement 2 of 5    //
  //<<<<<<<<<<<<<<<<<<<<<<<<<<<<<<<<<<<//

*** tstart() called on bp1-compute00116.data.bp.acrc.priv
*** at Tue Apr 27 17:35:38 2021

   => Loading Basis Set <=

    Name: CC-PV(T+D)Z
    Role: ORBITAL
    Keyword: BASIS
    atoms 1-2 entry C          line   195 file /work/zw18965/.conda/envs/p4env/share/psi4/basis/cc-pv_tpd_z.gbs 
    atoms 3-4 entry H          line    32 file /work/zw18965/.conda/envs/p4env/share/psi4/basis/cc-pv_tpd_z.gbs 


         ---------------------------------------------------------
                                   SCF
               by Justin Turney, Rob Parrish, Andy Simmonett
                          and Daniel G. A. Smith
                              RKS Reference
                       24 Threads, 137329 MiB Core
         ---------------------------------------------------------

  ==> Geometry <==

    Molecular point group: d2h
    Full point group: D_inf_h

    Geometry (in Angstrom), charge = 0, multiplicity = 1:

       Center              X                  Y                   Z               Mass       
    ------------   -----------------  -----------------  -----------------  -----------------
         C            0.000000000000     0.000000000000    -0.597960332826    12.000000000000
         C           -0.000000000000     0.000000000000     0.597960332826    12.000000000000
         H           -0.000000000000     0.000000000000     1.663304917204     1.007825032230
         H           -0.000000000000     0.000000000000    -1.663304917204     1.007825032230

  Running in d2h symmetry.

  Rotational constants: A = ************  B =      1.19069  C =      1.19069 [cm^-1]
  Rotational constants: A = ************  B =  35696.10070  C =  35696.10070 [MHz]
  Nuclear repulsion =   24.857391566684001

  Charge       = 0
  Multiplicity = 1
  Electrons    = 14
  Nalpha       = 7
  Nbeta        = 7

  ==> Algorithm <==

  SCF Algorithm Type is DF.
  DIIS enabled.
  MOM disabled.
  Fractional occupation disabled.
  Guess Type is READ.
  Energy threshold   = 1.00e-08
  Density threshold  = 1.00e-08
  Integral threshold = 0.00e+00

  ==> Primary Basis <==

  Basis Set: CC-PV(T+D)Z
    Blend: CC-PV(T+D)Z
    Number of shells: 32
    Number of basis function: 88
    Number of Cartesian functions: 100
    Spherical Harmonics?: true
    Max angular momentum: 3

  ==> DFT Potential <==

   => Composite Functional: WB97X-V <= 

    wB97X-V Hyb-GGA Exchange-Correlation Functional

    N. Mardirossian and M. Head-Gordon, Phys. Chem. Chem. Phys. 16, 9904 (2014)

    Deriv               =              1
    GGA                 =           TRUE
    Meta                =          FALSE

    Exchange Hybrid     =           TRUE
    MP2 Hybrid          =          FALSE

   => Exchange-Correlation Functionals <=

    1.0000   wB97X-V range-separated functional

   => Exact (HF) Exchange <=

    0.8330            HF,LR [omega = 0.3000]
    0.1670               HF 

   => VV10 Non-Local Parameters <=

    VV10 B              =     6.0000E+00
    VV10 C              =     1.0000E-02

   => Molecular Quadrature <=

    Radial Scheme          =       TREUTLER
    Pruning Scheme         =           FLAT
    Nuclear Scheme         =       TREUTLER

    BS radius alpha        =              1
    Pruning alpha          =              1
    Radial Points          =             75
    Spherical Points       =            302
    Total Points           =          88542
    Total Blocks           =            710
    Max Points             =            256
    Max Functions          =             88

   => Loading Basis Set <=

    Name: (CC-PV(T+D)Z AUX)
    Role: JKFIT
    Keyword: DF_BASIS_SCF
    atoms 1-2 entry C          line   125 file /work/zw18965/.conda/envs/p4env/share/psi4/basis/cc-pvtz-jkfit.gbs 
    atoms 3-4 entry H          line    51 file /work/zw18965/.conda/envs/p4env/share/psi4/basis/cc-pvtz-jkfit.gbs 

   => Loading Basis Set <=

    Name: CC-PV(T+D)Z
    Role: ORBITAL
    Keyword: BASIS
    atoms 1-2 entry C          line   195 file /work/zw18965/.conda/envs/p4env/share/psi4/basis/cc-pv_tpd_z.gbs 
    atoms 3-4 entry H          line    32 file /work/zw18965/.conda/envs/p4env/share/psi4/basis/cc-pv_tpd_z.gbs 

  Reading orbitals from file 180, no projection.

  ==> Pre-Iterations <==

   -------------------------------------------------------
    Irrep   Nso     Nmo     Nalpha   Nbeta   Ndocc  Nsocc
   -------------------------------------------------------
     Ag        20      20       0       0       0       0
     B1g        4       4       0       0       0       0
     B2g       10      10       0       0       0       0
     B3g       10      10       0       0       0       0
     Au         4       4       0       0       0       0
     B1u       20      20       0       0       0       0
     B2u       10      10       0       0       0       0
     B3u       10      10       0       0       0       0
   -------------------------------------------------------
    Total      88      88       7       7       7       0
   -------------------------------------------------------

  ==> Integral Setup <==

  ==> DiskDFJK: Density-Fitted J/K Matrices <==

    J tasked:                  Yes
    K tasked:                  Yes
    wK tasked:                 Yes
    Omega:               3.000E-01
    OpenMP threads:             24
    Integrals threads:          24
    Memory [MiB]:           102787
    Algorithm:                Core
    Integral Cache:           NONE
    Schwarz Cutoff:          1E-12
    Fitting Condition:       1E-10

   => Auxiliary Basis Set <=

  Basis Set: (CC-PV(T+D)Z AUX)
    Blend: CC-PVTZ-JKFIT
    Number of shells: 70
    Number of basis function: 218
    Number of Cartesian functions: 262
    Spherical Harmonics?: true
    Max angular momentum: 4

  Cached 100.0% of DFT collocation blocks in 0.204 [GiB].

  Minimum eigenvalue in the overlap matrix is 1.2310589175E-04.
  Using Symmetric Orthogonalization.

  SCF Guess: Orbitals guess was supplied from a previous computation.

  ==> Iterations <==

                           Total Energy        Delta E     RMS |[F,P]|

   @DF-RKS iter   0:   -77.33113132465920   -7.73311e+01   1.36169e-04 
   @DF-RKS iter   1:   -77.33002725756326    1.10407e-03   1.32252e-05 DIIS
   @DF-RKS iter   2:   -77.33002735374299   -9.61797e-08   7.18708e-06 DIIS
   @DF-RKS iter   3:   -77.33002738053244   -2.67895e-08   5.63509e-07 DIIS
   @DF-RKS iter   4:   -77.33002738075800   -2.25555e-10   1.71564e-07 DIIS
   @DF-RKS iter   5:   -77.33002738078234   -2.43432e-11   1.47592e-08 DIIS
   @DF-RKS iter   6:   -77.33002738078272   -3.83693e-13   1.81794e-09 DIIS
  Energy and wave function converged.


  ==> Post-Iterations <==

    Orbital Energies [Eh]
    ---------------------

    Doubly Occupied:                                                      

       1Ag   -10.278344     1B1u  -10.275738     2Ag    -0.884864  
       2B1u   -0.684667     3Ag    -0.607543     1B2u   -0.398951  
       1B3u   -0.398951  

    Virtual:                                                              

       1B3g    0.123041     1B2g    0.123041     3B1u    0.135778  
       4Ag     0.157449     5Ag     0.270985     4B1u    0.346032  
       2B2u    0.383744     2B3u    0.383744     5B1u    0.479433  
       2B3g    0.496363     2B2g    0.496363     6Ag     0.539431  
       7Ag     0.694751     1B1g    0.694751     8Ag     0.720446  
       3B3u    0.725910     3B2u    0.725910     6B1u    0.884331  
       7B1u    0.985506     3B2g    0.990674     3B3g    0.990674  
       8B1u    1.003235     1Au     1.003235     9Ag     1.097512  
       4B3u    1.356773     4B2u    1.356773     9B1u    1.490691  
[...]
    atoms 3-4 entry H          line    32 file /work/zw18965/.conda/envs/p4env/share/psi4/basis/cc-pv_tpd_z.gbs 


         ---------------------------------------------------------
                                   SCF
               by Justin Turney, Rob Parrish, Andy Simmonett
                          and Daniel G. A. Smith
                              RKS Reference
                       24 Threads, 137329 MiB Core
         ---------------------------------------------------------

  ==> Geometry <==

    Molecular point group: c2v
    Full point group: C2v

    Geometry (in Angstrom), charge = 0, multiplicity = 1:

       Center              X                  Y                   Z               Mass       
    ------------   -----------------  -----------------  -----------------  -----------------
         C           -0.000150333491     0.000000000000    -0.597981526892    12.000000000000
         C           -0.000150333491     0.000000000000     0.597981526892    12.000000000000
         H            0.001789995126     0.000000000000     1.663485645361     1.007825032230
         H            0.001789995126     0.000000000000    -1.663485645361     1.007825032230

  Running in c2v symmetry.

  Rotational constants: A = 2407987.46702  B =      1.19054  C =      1.19054 [cm^-1]
  Rotational constants: A = 72189648157.17369  B =  35691.51196  C =  35691.49432 [MHz]
  Nuclear repulsion =   24.855655581373771

  Charge       = 0
  Multiplicity = 1
  Electrons    = 14
  Nalpha       = 7
  Nbeta        = 7

  ==> Algorithm <==

  SCF Algorithm Type is DF.
  DIIS enabled.
  MOM disabled.
  Fractional occupation disabled.
  Guess Type is SAD.
  Energy threshold   = 1.00e-10
  Density threshold  = 1.00e-10
  Integral threshold = 0.00e+00

  ==> Primary Basis <==

  Basis Set: CC-PV(T+D)Z
    Blend: CC-PV(T+D)Z
    Number of shells: 32
    Number of basis function: 88
    Number of Cartesian functions: 100
    Spherical Harmonics?: true
    Max angular momentum: 3

  ==> DFT Potential <==

   => Composite Functional: WB97X-V <= 

    wB97X-V Hyb-GGA Exchange-Correlation Functional

    N. Mardirossian and M. Head-Gordon, Phys. Chem. Chem. Phys. 16, 9904 (2014)

    Deriv               =              1
    GGA                 =           TRUE
    Meta                =          FALSE

    Exchange Hybrid     =           TRUE
    MP2 Hybrid          =          FALSE

   => Exchange-Correlation Functionals <=

    1.0000   wB97X-V range-separated functional

   => Exact (HF) Exchange <=

    0.8330            HF,LR [omega = 0.3000]
    0.1670               HF 

   => VV10 Non-Local Parameters <=

    VV10 B              =     6.0000E+00
    VV10 C              =     1.0000E-02

   => Molecular Quadrature <=

    Radial Scheme          =       TREUTLER
    Pruning Scheme         =           FLAT
    Nuclear Scheme         =       TREUTLER

    BS radius alpha        =              1
    Pruning alpha          =              1
    Radial Points          =             75
    Spherical Points       =            302
    Total Points           =          88542
    Total Blocks           =            708
    Max Points             =            254
    Max Functions          =             88

   => Loading Basis Set <=

    Name: (CC-PV(T+D)Z AUX)
    Role: JKFIT
    Keyword: DF_BASIS_SCF
    atoms 1-2 entry C          line   125 file /work/zw18965/.conda/envs/p4env/share/psi4/basis/cc-pvtz-jkfit.gbs 
    atoms 3-4 entry H          line    51 file /work/zw18965/.conda/envs/p4env/share/psi4/basis/cc-pvtz-jkfit.gbs 

  ==> Pre-Iterations <==

   -------------------------------------------------------
    Irrep   Nso     Nmo     Nalpha   Nbeta   Ndocc  Nsocc
   -------------------------------------------------------
     A1        30      30       0       0       0       0
     A2        14      14       0       0       0       0
     B1        14      14       0       0       0       0
     B2        30      30       0       0       0       0
   -------------------------------------------------------
    Total      88      88       7       7       7       0
   -------------------------------------------------------

  ==> Integral Setup <==

  ==> DiskDFJK: Density-Fitted J/K Matrices <==

    J tasked:                  Yes
    K tasked:                  Yes
    wK tasked:                 Yes
    Omega:               3.000E-01
    OpenMP threads:             24
    Integrals threads:          24
    Memory [MiB]:           102787
    Algorithm:                Core
    Integral Cache:           NONE
    Schwarz Cutoff:          1E-12
    Fitting Condition:       1E-10

   => Auxiliary Basis Set <=

  Basis Set: (CC-PV(T+D)Z AUX)
    Blend: CC-PVTZ-JKFIT
    Number of shells: 70
    Number of basis function: 218
    Number of Cartesian functions: 262
    Spherical Harmonics?: true
    Max angular momentum: 4

  Cached 100.0% of DFT collocation blocks in 0.204 [GiB].

  Minimum eigenvalue in the overlap matrix is 1.2313974351E-04.
  Using Symmetric Orthogonalization.

  SCF Guess: Superposition of Atomic Densities via on-the-fly atomic UHF.

  ==> Iterations <==

                           Total Energy        Delta E     RMS |[F,P]|

   @DF-RKS iter SAD:   -76.50477242275682   -7.65048e+01   0.00000e+00 
   @DF-RKS iter   1:   -77.24497826718640   -7.40206e-01   9.25858e-03 DIIS
   @DF-RKS iter   2:   -77.30338600080742   -5.84077e-02   5.11409e-03 DIIS
   @DF-RKS iter   3:   -77.32998244834739   -2.65964e-02   1.54749e-04 DIIS
   @DF-RKS iter   4:   -77.33002602203739   -4.35737e-05   1.98753e-05 DIIS
   @DF-RKS iter   5:   -77.33002710478739   -1.08275e-06   2.65339e-06 DIIS
   @DF-RKS iter   6:   -77.33002712509635   -2.03090e-08   4.98527e-07 DIIS
   @DF-RKS iter   7:   -77.33002712580429   -7.07942e-10   4.77327e-08 DIIS
   @DF-RKS iter   8:   -77.33002712580898   -4.68958e-12   8.23329e-09 DIIS
   @DF-RKS iter   9:   -77.33002712580920   -2.13163e-13   9.83811e-10 DIIS
   @DF-RKS iter  10:   -77.33002712580908    1.13687e-13   1.89276e-10 DIIS
   @DF-RKS iter  11:   -77.33002712580914   -5.68434e-14   1.53014e-11 DIIS
  Energy and wave function converged.


  ==> Post-Iterations <==

    Orbital Energies [Eh]
    ---------------------

    Doubly Occupied:                                                      

       1A1   -10.278370     1B2   -10.275765     2A1    -0.884849  
       2B2    -0.684624     3A1    -0.607503     1B1    -0.398942  
       4A1    -0.398942  

    Virtual:                                                              

       3B2     0.123029     1A2     0.123033     4B2     0.135759  
       5A1     0.157440     6A1     0.270992     5B2     0.345978  
       7A1     0.383747     2B1     0.383747     6B2     0.479415  
       2A2     0.496358     7B2     0.496372     8A1     0.539390  
       9A1     0.694752     3B1     0.694752    10A1     0.720221  
       4B1     0.725876    11A1     0.726045     8B2     0.884314  
       9B2     0.985237     3A2     0.990590    10B2     0.990739  
      11B2     1.003248     4A2     1.003249    12A1     1.097579  
      13A1     1.356670     5B1     1.356672    12B2     1.490603  
      13B2     1.547078     5A2     1.547081    14A1     1.554578  
      14B2     1.861255     6B1     2.104231    15A1     2.104231  
      16A1     2.303338    15B2     2.493281     7B1     2.521662  
      17A1     2.521663    16B2     2.576033     6A2     2.576036  
       8B1     2.633365    18A1     2.633365    19A1     2.807378  
       9B1     2.807379    20A1     2.945379     7A2     3.001442  
      17B2     3.001445    21A1     3.009361    10B1     3.009363  
      22A1     3.036552     8A2     3.050154    18B2     3.050154  
      19B2     3.054888    20B2     3.106461     9A2     3.106464  
      11B1     3.245494    23A1     3.245512    21B2     3.259134  
      10A2     3.259135    22B2     3.678053    24A1     3.721080  
      12B1     3.721083    11A2     3.936326    23B2     3.936332  
      25A1     4.101451    13B1     4.101457    26A1     4.300423  
      24B2     4.313719    12A2     4.313721    25B2     4.590355  
      13A2     4.687059    26B2     4.687064    27A1     4.923680  
      28A1     5.577262    14B1     5.577266    27B2     5.869403  
      28B2     6.070235    14A2     6.070239    29B2     6.116100  
      29A1     6.521914    30A1     9.129637    30B2    16.264452  

    Final Occupation by Irrep:
             A1    A2    B1    B2 
    DOCC [     4,    0,    1,    2 ]

  @DF-RKS Final Energy:   -77.33002712580914

   => Energetics <=

    Nuclear Repulsion Energy =             24.8556555813737710
    One-Electron Energy =                -152.0785254621304432
    Two-Electron Energy =                  57.7239580478295906
    DFT Exchange-Correlation Energy =      -7.8888493799819557
    Empirical Dispersion Energy =           0.0000000000000000
    VV10 Nonlocal Energy =                  0.0577340870998943
    Total Energy =                        -77.3300271258091669

Computation Completed


Properties will be evaluated at   0.000000,   0.000000,   0.000000 [a0]

Properties computed using the SCF density matrix

  Nuclear Dipole Moment: [e a0]
     X:     0.0034      Y:     0.0000      Z:    -0.0000

  Electronic Dipole Moment: [e a0]
     X:    -0.0018      Y:     0.0000      Z:     0.0000

  Dipole Moment: [e a0]
     X:     0.0016      Y:     0.0000      Z:    -0.0000     Total:     0.0016

  Dipole Moment: [D]
     X:     0.0040      Y:     0.0000      Z:    -0.0000     Total:     0.0040


*** tstop() called on bp1-compute00116.data.bp.acrc.priv at Tue Apr 27 17:36:53 2021
Module time:
	user time   =      77.34 seconds =       1.29 minutes
	system time =       1.98 seconds =       0.03 minutes
	total time  =          3 seconds =       0.05 minutes
Total time:
	user time   =    2154.61 seconds =      35.91 minutes
	system time =      62.62 seconds =       1.04 minutes
	total time  =         94 seconds =       1.57 minutes

         ----------------------------------------------------------
                                   FINDIF
                     R. A. King and Jonathon Misiewicz
         ---------------------------------------------------------

  Computing second-derivative from energies using projected, 
  symmetry-adapted, cartesian coordinates.

  12 energies passed in, including the reference geometry.
    Using 3-point formula.
    Energy without displacement:  -77.3300274197
    Check energies below for precision!
    0: -1        :       -77.3300244121
    0: 1         :       -77.3300247111
    1: -1        :       -77.3300222664
    1: 1         :       -77.3300223572
    0: 1, 1: 1   :       -77.3300166096
    0: -1, 1: -1 :       -77.3300161793
    2: -1        :       -77.3300271885
    3: -1        :       -77.3300271883
    4: -1        :       -77.3300218947
    5: -1        :       -77.3300271264
    6: -1        :       -77.3300271258

-------------------------------------------------------------


  ==> Harmonic Vibrational Analysis <==

  non-mass-weighted Hessian:       Symmetric? True   Hermitian? True   Lin Dep Dim?  5 (0)
  projection of translations (True) and rotations (True) removed 5 degrees of freedom (5)
  total projector:                 Symmetric? True   Hermitian? True   Lin Dep Dim?  5 (5)
  mass-weighted Hessian:           Symmetric? True   Hermitian? True   Lin Dep Dim?  5 (0)
  pre-proj  low-frequency mode:    0.0000i [cm^-1]
  pre-proj  low-frequency mode:    0.0000i [cm^-1]
  pre-proj  low-frequency mode:    0.0000  [cm^-1]
  pre-proj  low-frequency mode:    0.0000  [cm^-1]
  pre-proj  low-frequency mode:    0.0000  [cm^-1]
  pre-proj  all modes:['0.0000i' '0.0000i' '0.0000' '0.0000' '0.0000' '699.1079' '699.4519'
 '787.5078' '788.2480' '2099.0688' '3417.5496' '3526.1695']
  projected mass-weighted Hessian: Symmetric? True   Hermitian? True   Lin Dep Dim?  5 (5)
  post-proj low-frequency mode:    0.0000i [cm^-1] (TR)
  post-proj low-frequency mode:    0.0000i [cm^-1] (TR)
  post-proj low-frequency mode:    0.0000  [cm^-1] (TR)
  post-proj low-frequency mode:    0.0000  [cm^-1] (TR)
  post-proj low-frequency mode:    0.0000  [cm^-1] (TR)
  post-proj  all modes:['0.0000i' '0.0000i' '0.0000' '0.0000' '0.0000' '699.1079' '699.4519'
 '787.5078' '788.2480' '2099.0688' '3417.5496' '3526.1695']

  Vibration                       6                   7                   8           
  Freq [cm^-1]                 699.1079            699.4519            787.5078       
  Irrep                          B2g                 B3g                 B2u          
  Reduced mass [u]              1.5768              1.5768              1.0848        
  Force const [mDyne/A]         0.4541              0.4545              0.3964        
  Turning point v=0 [a0]        0.3305              0.3304              0.3754        
  RMS dev v=0 [a0 u^1/2]        0.2934              0.2934              0.2765        
  Char temp [K]               1005.8606           1006.3555           1133.0484       
  ----------------------------------------------------------------------------------
      1   C                0.16 -0.00  0.00    0.00  0.16  0.00    0.00 -0.06  0.00   
      2   C               -0.16  0.00  0.00   -0.00 -0.16  0.00    0.00 -0.06  0.00   
      3   H                0.69 -0.00  0.00    0.00  0.69  0.00   -0.00  0.70  0.00   
      4   H               -0.69  0.00  0.00   -0.00 -0.69  0.00   -0.00  0.70  0.00   

  Vibration                       9                   10                  11          
  Freq [cm^-1]                 788.2480           2099.0688           3417.5496       
  Irrep                          B3u                  Ag                 B1u          
  Reduced mass [u]              1.0848              3.7238              1.0848        
  Force const [mDyne/A]         0.3971              9.6671              7.4651        
  Turning point v=0 [a0]        0.3752              0.1241              0.1802        
  RMS dev v=0 [a0 u^1/2]        0.2764              0.1693              0.1327        
  Char temp [K]               1134.1134           3020.0926           4917.0929       
  ----------------------------------------------------------------------------------
      1   C               -0.06 -0.00  0.00   -0.00  0.00  0.35    0.00 -0.00 -0.06   
      2   C               -0.06 -0.00  0.00   -0.00  0.00 -0.35    0.00 -0.00 -0.06   
      3   H                0.70  0.00  0.00    0.00 -0.00 -0.61    0.00 -0.00  0.70   
      4   H                0.70  0.00  0.00    0.00 -0.00  0.61   -0.00 -0.00  0.70   

  Vibration                       12          
  Freq [cm^-1]                3526.1695       
  Irrep                           Ag          
  Reduced mass [u]              1.2391        
  Force const [mDyne/A]         9.0775        
  Turning point v=0 [a0]        0.1660        
  RMS dev v=0 [a0 u^1/2]        0.1307        
  Char temp [K]               5073.3728       
  ----------------------------------------------------------------------------------
      1   C               -0.00  0.00  0.10   
      2   C                0.00  0.00 -0.10   
      3   H                0.00 -0.00  0.70   
      4   H               -0.00  0.00 -0.70   

  ==> Thermochemistry Components <==

  Entropy, S
    Electronic S            0.000 [cal/(mol K)]        0.000 [J/(mol K)]       0.00000000 [mEh/K] (multiplicity = 1)
    Translational S        35.704 [cal/(mol K)]      149.387 [J/(mol K)]       0.05689862 [mEh/K] (mol. weight = 26.0157 [u], P = 101325.00 [Pa])
    Rotational S           10.863 [cal/(mol K)]       45.449 [J/(mol K)]       0.01731057 [mEh/K] (symmetry no. = 2)
    Vibrational S           1.050 [cal/(mol K)]        4.391 [J/(mol K)]       0.00167256 [mEh/K]
  Total S                  47.617 [cal/(mol K)]      199.228 [J/(mol K)]       0.07588175 [mEh/K]
  Correction S              0.000 [cal/(mol K)]        0.000 [J/(mol K)]       0.00000000 [mEh/K]

  Constant volume heat capacity, Cv
    Electronic Cv           0.000 [cal/(mol K)]        0.000 [J/(mol K)]       0.00000000 [mEh/K]
    Translational Cv        2.981 [cal/(mol K)]       12.472 [J/(mol K)]       0.00475022 [mEh/K]
    Rotational Cv           1.987 [cal/(mol K)]        8.314 [J/(mol K)]       0.00316681 [mEh/K]
    Vibrational Cv          3.011 [cal/(mol K)]       12.599 [J/(mol K)]       0.00479875 [mEh/K]
  Total Cv                  7.979 [cal/(mol K)]       33.385 [J/(mol K)]       0.01271577 [mEh/K]
  Correction Cv             0.000 [cal/(mol K)]        0.000 [J/(mol K)]       0.00000000 [mEh/K]

  Constant pressure heat capacity, Cp
    Electronic Cp           0.000 [cal/(mol K)]        0.000 [J/(mol K)]       0.00000000 [mEh/K]
    Translational Cp        4.968 [cal/(mol K)]       20.786 [J/(mol K)]       0.00791703 [mEh/K]
    Rotational Cp           1.987 [cal/(mol K)]        8.314 [J/(mol K)]       0.00316681 [mEh/K]
    Vibrational Cp          3.011 [cal/(mol K)]       12.599 [J/(mol K)]       0.00479875 [mEh/K]
  Total Cp                  9.966 [cal/(mol K)]       41.700 [J/(mol K)]       0.01588258 [mEh/K]
  Correction Cp             0.000 [cal/(mol K)]        0.000 [J/(mol K)]       0.00000000 [mEh/K]

  ==> Thermochemistry Energy Analysis <==

  Raw electronic energy, E0
  Total E0, Electronic energy at well bottom at 0 [K]                  -77.33002742 [Eh]

  Zero-point energy, ZPE_vib = Sum_i nu_i / 2
    Electronic ZPE          0.000 [kcal/mol]        0.000 [kJ/mol]       0.00000000 [Eh]
    Translational ZPE       0.000 [kcal/mol]        0.000 [kJ/mol]       0.00000000 [Eh]
    Rotational ZPE          0.000 [kcal/mol]        0.000 [kJ/mol]       0.00000000 [Eh]
    Vibrational ZPE        17.179 [kcal/mol]       71.878 [kJ/mol]       0.02737698 [Eh]        6008.552 [cm^-1]
  Correction ZPE           17.179 [kcal/mol]       71.878 [kJ/mol]       0.02737698 [Eh]        6008.552 [cm^-1]
  Total ZPE, Electronic energy at 0 [K]                                -77.30265044 [Eh]

  Thermal Energy, E (includes ZPE)
    Electronic E            0.000 [kcal/mol]        0.000 [kJ/mol]       0.00000000 [Eh]
    Translational E         0.889 [kcal/mol]        3.718 [kJ/mol]       0.00141628 [Eh]
    Rotational E            0.592 [kcal/mol]        2.479 [kJ/mol]       0.00094418 [Eh]
    Vibrational E          17.424 [kcal/mol]       72.903 [kJ/mol]       0.02776720 [Eh]
  Correction E             18.905 [kcal/mol]       79.100 [kJ/mol]       0.03012766 [Eh]
  Total E, Electronic energy at  298.15 [K]                            -77.29989976 [Eh]

  Enthalpy, H_trans = E_trans + k_B * T
    Electronic H            0.000 [kcal/mol]        0.000 [kJ/mol]       0.00000000 [Eh]
    Translational H         1.481 [kcal/mol]        6.197 [kJ/mol]       0.00236046 [Eh]
    Rotational H            0.592 [kcal/mol]        2.479 [kJ/mol]       0.00094418 [Eh]
    Vibrational H          17.424 [kcal/mol]       72.903 [kJ/mol]       0.02776720 [Eh]
  Correction H             19.498 [kcal/mol]       81.579 [kJ/mol]       0.03107184 [Eh]
  Total H, Enthalpy at  298.15 [K]                                     -77.29895558 [Eh]

  Gibbs free energy, G = H - T * S
    Electronic G            0.000 [kcal/mol]        0.000 [kJ/mol]       0.00000000 [Eh]
    Translational G        -9.164 [kcal/mol]      -38.342 [kJ/mol]      -0.01460386 [Eh]
    Rotational G           -2.646 [kcal/mol]      -11.072 [kJ/mol]      -0.00421696 [Eh]
    Vibrational G          17.111 [kcal/mol]       71.593 [kJ/mol]       0.02726852 [Eh]
  Correction G              5.301 [kcal/mol]       22.179 [kJ/mol]       0.00844770 [Eh]
  Total G, Free enthalpy at  298.15 [K]                                -77.32157972 [Eh]

    Psi4 stopped on: Tuesday, 27 April 2021 05:36PM
    Psi4 wall time for execution: 0:01:34.59

*** Psi4 exiting successfully. Buy a developer a beer!
