
    -----------------------------------------------------------------------
          Psi4: An Open-Source Ab Initio Electronic Structure Package
                               Psi4 1.3.2 release

                         Git: Rev {HEAD} ecbda83 


    R. M. Parrish, L. A. Burns, D. G. A. Smith, A. C. Simmonett,
    A. E. DePrince III, E. G. Hohenstein, U. Bozkaya, A. Yu. Sokolov,
    R. Di Remigio, R. M. Richard, J. F. Gonthier, A. M. James,
    H. R. McAlexander, A. Kumar, M. Saitow, X. Wang, B. P. Pritchard,
    P. Verma, H. F. Schaefer III, K. Patkowski, R. A. King, E. F. Valeev,
    F. A. Evangelista, J. M. Turney, T. D. Crawford, and C. D. Sherrill,
    J. Chem. Theory Comput. 13(7) pp 3185--3197 (2017).
    (doi: 10.1021/acs.jctc.7b00174)


                         Additional Contributions by
    P. Kraus, H. Kruse, M. H. Lechner, M. C. Schieber, R. A. Shaw,
    A. Alenaizan, R. Galvelis, Z. L. Glick, S. Lehtola, and J. P. Misiewicz

    -----------------------------------------------------------------------


    Psi4 started on: Tuesday, 27 April 2021 05:35PM

    Process ID: 171788
    Host:       bp1-compute00139.data.bp.acrc.priv
    PSIDATADIR: /work/zw18965/.conda/envs/p4env/share/psi4
    Memory:     500.0 MiB
    Threads:    24
    
  ==> Input File <==

--------------------------------------------------------------------------
memory 144 GB

molecule {
0 1
C 0.0000000000 0.0000000000 0.0000000000
F 0.0000000000 0.0000000000 1.2971000000
F 1.2538059978 0.0000000000 -0.3323235319
}

set dynamic_level 1
set basis cc-pV(T+d)Z
 
optimize("wB97X-V")
frequencies("wB97X-V")
--------------------------------------------------------------------------

  Memory set to 134.110 GiB by Python driver.
gradient() will perform gradient computation by finite difference of analytic energies.

         ----------------------------------------------------------
                                   FINDIF
                     R. A. King and Jonathon Misiewicz
         ---------------------------------------------------------

  Using finite-differences of energies to determine gradients.
    Generating geometries for use with 3-point formula.
    Displacement size will be 5.00e-03.
    Number of atoms is 3.
    Number of symmetric SALCs is 2.
    Translations projected? 1. Rotations projected? 1.
    Number of geometries (including reference) is 5.

  //>>>>>>>>>>>>>>>>>>>>>>>>>>>>>>>>>>>//
  //    Loading displacement 1 of 5    //
  //<<<<<<<<<<<<<<<<<<<<<<<<<<<<<<<<<<<//

*** tstart() called on bp1-compute00139.data.bp.acrc.priv
*** at Tue Apr 27 17:35:57 2021

   => Loading Basis Set <=

    Name: CC-PV(T+D)Z
    Role: ORBITAL
    Keyword: BASIS
    atoms 1   entry C          line   195 file /work/zw18965/.conda/envs/p4env/share/psi4/basis/cc-pv_tpd_z.gbs 
    atoms 2-3 entry F          line   309 file /work/zw18965/.conda/envs/p4env/share/psi4/basis/cc-pv_tpd_z.gbs 


         ---------------------------------------------------------
                                   SCF
               by Justin Turney, Rob Parrish, Andy Simmonett
                          and Daniel G. A. Smith
                              RKS Reference
                       24 Threads, 137329 MiB Core
         ---------------------------------------------------------

  ==> Geometry <==

    Molecular point group: c2v
    Full point group: C2v

    Geometry (in Angstrom), charge = 0, multiplicity = 1:

       Center              X                  Y                   Z               Mass       
    ------------   -----------------  -----------------  -----------------  -----------------
         C            0.000000000000     0.000000000000    -0.601159776770    12.000000000000
         F           -0.000000000000     1.027989606760     0.189855885767    18.998403162730
         F            0.000000000000    -1.027989606760     0.189855885767    18.998403162730

  Running in c2v symmetry.

  Rotational constants: A =      2.95420  B =      0.41983  C =      0.36759 [cm^-1]
  Rotational constants: A =  88564.76119  B =  12586.14285  C =  11020.05707 [MHz]
  Nuclear repulsion =   64.908849321288884

  Charge       = 0
  Multiplicity = 1
  Electrons    = 24
  Nalpha       = 12
  Nbeta        = 12

  ==> Algorithm <==

  SCF Algorithm Type is DF.
  DIIS enabled.
  MOM disabled.
  Fractional occupation disabled.
  Guess Type is SAD.
  Energy threshold   = 1.00e-08
  Density threshold  = 1.00e-08
  Integral threshold = 0.00e+00

  ==> Primary Basis <==

  Basis Set: CC-PV(T+D)Z
    Blend: CC-PV(T+D)Z
    Number of shells: 30
    Number of basis function: 90
    Number of Cartesian functions: 105
    Spherical Harmonics?: true
    Max angular momentum: 3

  ==> DFT Potential <==

   => Composite Functional: WB97X-V <= 

    wB97X-V Hyb-GGA Exchange-Correlation Functional

    N. Mardirossian and M. Head-Gordon, Phys. Chem. Chem. Phys. 16, 9904 (2014)

    Deriv               =              1
    GGA                 =           TRUE
    Meta                =          FALSE

    Exchange Hybrid     =           TRUE
    MP2 Hybrid          =          FALSE

   => Exchange-Correlation Functionals <=

    1.0000   wB97X-V range-separated functional

   => Exact (HF) Exchange <=

    0.8330            HF,LR [omega = 0.3000]
    0.1670               HF 

   => VV10 Non-Local Parameters <=

    VV10 B              =     6.0000E+00
    VV10 C              =     1.0000E-02

   => Molecular Quadrature <=

    Radial Scheme          =       TREUTLER
    Pruning Scheme         =           FLAT
    Nuclear Scheme         =       TREUTLER

    BS radius alpha        =              1
    Pruning alpha          =              1
    Radial Points          =             75
    Spherical Points       =            302
    Total Points           =          65501
    Total Blocks           =            564
    Max Points             =            256
    Max Functions          =             90

   => Loading Basis Set <=

    Name: (CC-PV(T+D)Z AUX)
    Role: JKFIT
    Keyword: DF_BASIS_SCF
    atoms 1   entry C          line   125 file /work/zw18965/.conda/envs/p4env/share/psi4/basis/cc-pvtz-jkfit.gbs 
    atoms 2-3 entry F          line   281 file /work/zw18965/.conda/envs/p4env/share/psi4/basis/cc-pvtz-jkfit.gbs 

  ==> Pre-Iterations <==

   -------------------------------------------------------
    Irrep   Nso     Nmo     Nalpha   Nbeta   Ndocc  Nsocc
   -------------------------------------------------------
     A1        33      33       0       0       0       0
     A2        13      13       0       0       0       0
     B1        17      17       0       0       0       0
     B2        27      27       0       0       0       0
   -------------------------------------------------------
    Total      90      90      12      12      12       0
   -------------------------------------------------------

  ==> Integral Setup <==

  ==> DiskDFJK: Density-Fitted J/K Matrices <==

    J tasked:                  Yes
    K tasked:                  Yes
    wK tasked:                 Yes
    Omega:               3.000E-01
    OpenMP threads:             24
    Integrals threads:          24
    Memory [MiB]:           102847
    Algorithm:                Core
    Integral Cache:           NONE
    Schwarz Cutoff:          1E-12
    Fitting Condition:       1E-10

   => Auxiliary Basis Set <=

  Basis Set: (CC-PV(T+D)Z AUX)
    Blend: CC-PVTZ-JKFIT
    Number of shells: 75
    Number of basis function: 237
    Number of Cartesian functions: 288
    Spherical Harmonics?: true
    Max angular momentum: 4

  Cached 100.0% of DFT collocation blocks in 0.145 [GiB].

  Minimum eigenvalue in the overlap matrix is 6.1038497135E-03.
  Using Symmetric Orthogonalization.

  SCF Guess: Superposition of Atomic Densities via on-the-fly atomic UHF.

  ==> Iterations <==

                           Total Energy        Delta E     RMS |[F,P]|

   @DF-RKS iter SAD:  -237.22668899307780   -2.37227e+02   0.00000e+00 
   @DF-RKS iter   1:  -237.68296568941670   -4.56277e-01   6.60556e-03 DIIS
   @DF-RKS iter   2:  -237.69232837683569   -9.36269e-03   6.19622e-03 DIIS
   @DF-RKS iter   3:  -237.71398000092577   -2.16516e-02   7.70340e-04 DIIS
   @DF-RKS iter   4:  -237.71442815228932   -4.48151e-04   1.06647e-04 DIIS
   @DF-RKS iter   5:  -237.71444983117806   -2.16789e-05   1.85577e-05 DIIS
   @DF-RKS iter   6:  -237.71445060696036   -7.75782e-07   5.27148e-06 DIIS
   @DF-RKS iter   7:  -237.71445065400715   -4.70468e-08   1.01892e-06 DIIS
   @DF-RKS iter   8:  -237.71445065622493   -2.21777e-09   1.97364e-07 DIIS
   @DF-RKS iter   9:  -237.71445065631823   -9.33085e-11   4.57274e-08 DIIS
   @DF-RKS iter  10:  -237.71445065632344   -5.20117e-12   6.97479e-09 DIIS
  Energy and wave function converged.


  ==> Post-Iterations <==

    Orbital Energies [Eh]
    ---------------------

    Doubly Occupied:                                                      

       1B2   -24.840773     1A1   -24.840763     2A1   -10.474187  
       3A1    -1.473831     2B2    -1.395133     4A1    -0.831633  
       3B2    -0.720225     1B1    -0.677343     5A1    -0.671974  
       1A2    -0.594082     4B2    -0.567794     6A1    -0.414254  

    Virtual:                                                              

       2B1     0.017138     5B2     0.228382     7A1     0.251264  
       3B1     0.369574     8A1     0.399465     9A1     0.438339  
       6B2     0.450405     7B2     0.697242    10A1     0.745416  
       4B1     0.793607    11A1     0.805744     2A2     0.829524  
       3A2     0.906817     5B1     0.953608    12A1     0.984938  
       8B2     0.993450    13A1     1.058866     9B2     1.245966  
      10B2     1.556692    14A1     1.625993     6B1     1.908850  
      15A1     1.975265     7B1     1.975924     4A2     2.008526  
      11B2     2.031585    16A1     2.147018    12B2     2.218293  
       5A2     2.249335     8B1     2.344528    13B2     2.466673  
      17A1     2.539675    18A1     2.564683    14B2     2.622439  
       9B1     2.946942     6A2     3.070119    19A1     3.078760  
      10B1     3.096439    20A1     3.145109    21A1     3.352828  
      15B2     3.378897    11B1     3.420770    22A1     3.500680  
       7A2     3.508085    16B2     3.558907    17B2     3.719731  
      23A1     4.689556    12B1     4.797970     8A2     4.808085  
      18B2     4.868067    24A1     4.900490    19B2     6.031967  
       9A2     6.884951    20B2     6.895848    13B1     6.901015  
      25A1     6.902199    10A2     6.902562    21B2     6.945253  
      26A1     7.006761    27A1     7.021185    14B1     7.122097  
      15B1     7.251706    22B2     7.336371    28A1     7.351902  
      11A2     7.366825    23B2     7.604054    29A1     7.973564  
      12A2     8.324434    30A1     8.359880    16B1     8.387608  
      24B2     8.400551    25B2     8.811027    13A2     8.819298  
      17B1     8.849155    31A1     8.988507    26B2     9.094324  
      32A1     9.531762    27B2    11.059761    33A1    11.221607  

    Final Occupation by Irrep:
             A1    A2    B1    B2 
    DOCC [     6,    1,    1,    4 ]

  @DF-RKS Final Energy:  -237.71445065632344

   => Energetics <=

    Nuclear Repulsion Energy =             64.9088493212888835
    One-Electron Energy =                -457.5472188539455374
    Two-Electron Energy =                 173.6664900287602791
    DFT Exchange-Correlation Energy =     -18.8431974483289615
    Empirical Dispersion Energy =           0.0000000000000000
    VV10 Nonlocal Energy =                  0.1006262959019170
    Total Energy =                       -237.7144506563234359

Computation Completed


Properties will be evaluated at   0.000000,   0.000000,   0.000000 [a0]

Properties computed using the SCF density matrix

  Nuclear Dipole Moment: [e a0]
     X:    -0.0000      Y:    -0.0000      Z:    -0.3582

  Electronic Dipole Moment: [e a0]
     X:     0.0000      Y:     0.0000      Z:     0.6280

  Dipole Moment: [e a0]
     X:    -0.0000      Y:    -0.0000      Z:     0.2698     Total:     0.2698

  Dipole Moment: [D]
     X:    -0.0000      Y:    -0.0000      Z:     0.6858     Total:     0.6858


*** tstop() called on bp1-compute00139.data.bp.acrc.priv at Tue Apr 27 17:36:00 2021
Module time:
	user time   =      61.83 seconds =       1.03 minutes
	system time =       2.59 seconds =       0.04 minutes
	total time  =          3 seconds =       0.05 minutes
Total time:
	user time   =      61.83 seconds =       1.03 minutes
	system time =       2.59 seconds =       0.04 minutes
	total time  =          3 seconds =       0.05 minutes

  //>>>>>>>>>>>>>>>>>>>>>>>>>>>>>>>>>>>//
  //    Loading displacement 2 of 5    //
  //<<<<<<<<<<<<<<<<<<<<<<<<<<<<<<<<<<<//

*** tstart() called on bp1-compute00139.data.bp.acrc.priv
*** at Tue Apr 27 17:36:00 2021

   => Loading Basis Set <=

    Name: CC-PV(T+D)Z
    Role: ORBITAL
    Keyword: BASIS
    atoms 1   entry C          line   195 file /work/zw18965/.conda/envs/p4env/share/psi4/basis/cc-pv_tpd_z.gbs 
    atoms 2-3 entry F          line   309 file /work/zw18965/.conda/envs/p4env/share/psi4/basis/cc-pv_tpd_z.gbs 


         ---------------------------------------------------------
                                   SCF
               by Justin Turney, Rob Parrish, Andy Simmonett
                          and Daniel G. A. Smith
                              RKS Reference
                       24 Threads, 137329 MiB Core
         ---------------------------------------------------------

  ==> Geometry <==

    Molecular point group: c2v
    Full point group: C2v

    Geometry (in Angstrom), charge = 0, multiplicity = 1:

       Center              X                  Y                   Z               Mass       
    ------------   -----------------  -----------------  -----------------  -----------------
         C            0.000000000000     0.000000000000    -0.601825636776    12.000000000000
         F           -0.000000000000     1.027989606760     0.190066175021    18.998403162730
         F            0.000000000000    -1.027989606760     0.190066175021    18.998403162730

  Running in c2v symmetry.

  Rotational constants: A =      2.94767  B =      0.41983  C =      0.36749 [cm^-1]
  Rotational constants: A =  88368.89347  B =  12586.14285  C =  11017.01863 [MHz]
  Nuclear repulsion =   64.890700862422563

  Charge       = 0
  Multiplicity = 1
  Electrons    = 24
  Nalpha       = 12
  Nbeta        = 12

  ==> Algorithm <==

  SCF Algorithm Type is DF.
  DIIS enabled.
  MOM disabled.
  Fractional occupation disabled.
  Guess Type is SAD.
  Energy threshold   = 1.00e-08
  Density threshold  = 1.00e-08
  Integral threshold = 0.00e+00

  ==> Primary Basis <==

  Basis Set: CC-PV(T+D)Z
    Blend: CC-PV(T+D)Z
    Number of shells: 30
    Number of basis function: 90
    Number of Cartesian functions: 105
    Spherical Harmonics?: true
    Max angular momentum: 3

  ==> DFT Potential <==

   => Composite Functional: WB97X-V <= 

    wB97X-V Hyb-GGA Exchange-Correlation Functional

    N. Mardirossian and M. Head-Gordon, Phys. Chem. Chem. Phys. 16, 9904 (2014)

    Deriv               =              1
    GGA                 =           TRUE
    Meta                =          FALSE

    Exchange Hybrid     =           TRUE
    MP2 Hybrid          =          FALSE

   => Exchange-Correlation Functionals <=

    1.0000   wB97X-V range-separated functional

   => Exact (HF) Exchange <=

    0.8330            HF,LR [omega = 0.3000]
    0.1670               HF 

   => VV10 Non-Local Parameters <=

    VV10 B              =     6.0000E+00
    VV10 C              =     1.0000E-02

   => Molecular Quadrature <=

    Radial Scheme          =       TREUTLER
    Pruning Scheme         =           FLAT
    Nuclear Scheme         =       TREUTLER

    BS radius alpha        =              1
    Pruning alpha          =              1
    Radial Points          =             75
    Spherical Points       =            302
    Total Points           =          65501
    Total Blocks           =            565
    Max Points             =            256
    Max Functions          =             90

   => Loading Basis Set <=

    Name: (CC-PV(T+D)Z AUX)
    Role: JKFIT
    Keyword: DF_BASIS_SCF
    atoms 1   entry C          line   125 file /work/zw18965/.conda/envs/p4env/share/psi4/basis/cc-pvtz-jkfit.gbs 
    atoms 2-3 entry F          line   281 file /work/zw18965/.conda/envs/p4env/share/psi4/basis/cc-pvtz-jkfit.gbs 

  ==> Pre-Iterations <==

   -------------------------------------------------------
    Irrep   Nso     Nmo     Nalpha   Nbeta   Ndocc  Nsocc
   -------------------------------------------------------
     A1        33      33       0       0       0       0
     A2        13      13       0       0       0       0
     B1        17      17       0       0       0       0
     B2        27      27       0       0       0       0
   -------------------------------------------------------
    Total      90      90      12      12      12       0
   -------------------------------------------------------

  ==> Integral Setup <==

  ==> DiskDFJK: Density-Fitted J/K Matrices <==

    J tasked:                  Yes
    K tasked:                  Yes
    wK tasked:                 Yes
    Omega:               3.000E-01
    OpenMP threads:             24
    Integrals threads:          24
    Memory [MiB]:           102847
    Algorithm:                Core
    Integral Cache:           NONE
    Schwarz Cutoff:          1E-12
    Fitting Condition:       1E-10

   => Auxiliary Basis Set <=

  Basis Set: (CC-PV(T+D)Z AUX)
    Blend: CC-PVTZ-JKFIT
    Number of shells: 75
    Number of basis function: 237
    Number of Cartesian functions: 288
    Spherical Harmonics?: true
    Max angular momentum: 4

  Cached 100.0% of DFT collocation blocks in 0.145 [GiB].

  Minimum eigenvalue in the overlap matrix is 6.1137570664E-03.
  Using Symmetric Orthogonalization.

  SCF Guess: Superposition of Atomic Densities via on-the-fly atomic UHF.

  ==> Iterations <==

                           Total Energy        Delta E     RMS |[F,P]|

   @DF-RKS iter SAD:  -237.22506750339201   -2.37225e+02   0.00000e+00 
   @DF-RKS iter   1:  -237.68292784977990   -4.57860e-01   6.61118e-03 DIIS
   @DF-RKS iter   2:  -237.69222519320695   -9.29734e-03   6.21044e-03 DIIS
   @DF-RKS iter   3:  -237.71399089336802   -2.17657e-02   7.69683e-04 DIIS
   @DF-RKS iter   4:  -237.71443835096488   -4.47458e-04   1.06629e-04 DIIS
   @DF-RKS iter   5:  -237.71446000497951   -2.16540e-05   1.85960e-05 DIIS
   @DF-RKS iter   6:  -237.71446078075090   -7.75771e-07   5.30705e-06 DIIS
   @DF-RKS iter   7:  -237.71446082809825   -4.73474e-08   1.02346e-06 DIIS
   @DF-RKS iter   8:  -237.71446083033678   -2.23852e-09   1.96562e-07 DIIS
   @DF-RKS iter   9:  -237.71446083043008   -9.33085e-11   4.54321e-08 DIIS
   @DF-RKS iter  10:  -237.71446083043506   -4.97380e-12   6.94453e-09 DIIS
  Energy and wave function converged.


  ==> Post-Iterations <==

    Orbital Energies [Eh]
    ---------------------

    Doubly Occupied:                                                      

       1B2   -24.840675     1A1   -24.840665     2A1   -10.474382  
       3A1    -1.473549     2B2    -1.394859     4A1    -0.831544  
       3B2    -0.719985     1B1    -0.677132     5A1    -0.671807  
       1A2    -0.593932     4B2    -0.567615     6A1    -0.414524  

    Virtual:                                                              

       2B1     0.016918     5B2     0.228048     7A1     0.251204  
       3B1     0.369589     8A1     0.399422     9A1     0.438076  
       6B2     0.449957     7B2     0.697323    10A1     0.745371  
       4B1     0.793586    11A1     0.805777     2A2     0.829368  
       3A2     0.906847     5B1     0.953617    12A1     0.985067  
       8B2     0.993593    13A1     1.058249     9B2     1.245845  
      10B2     1.556701    14A1     1.626040     6B1     1.908691  
      15A1     1.975051     7B1     1.975710     4A2     2.008732  
      11B2     2.031344    16A1     2.147134    12B2     2.218438  
       5A2     2.248813     8B1     2.344268    13B2     2.466104  
      17A1     2.539104    18A1     2.564474    14B2     2.622272  
       9B1     2.946630     6A2     3.069915    19A1     3.078368  
      10B1     3.096394    20A1     3.144897    21A1     3.352370  
      15B2     3.377752    11B1     3.420154    22A1     3.500426  
       7A2     3.507803    16B2     3.558782    17B2     3.719037  
      23A1     4.688458    12B1     4.797559     8A2     4.807689  
      18B2     4.867234    24A1     4.900382    19B2     6.030956  
       9A2     6.885050    20B2     6.896008    13B1     6.901132  
      25A1     6.902315    10A2     6.902622    21B2     6.945105  
      26A1     7.006337    27A1     7.019342    14B1     7.121784  
      15B1     7.251009    22B2     7.335485    28A1     7.351378  
      11A2     7.366001    23B2     7.603127    29A1     7.970989  
      12A2     8.324529    30A1     8.359648    16B1     8.387365  
      24B2     8.400555    25B2     8.810525    13A2     8.818865  
      17B1     8.848711    31A1     8.987861    26B2     9.094503  
      32A1     9.531733    27B2    11.057815    33A1    11.217423  

    Final Occupation by Irrep:
             A1    A2    B1    B2 
    DOCC [     6,    1,    1,    4 ]

  @DF-RKS Final Energy:  -237.71446083043506

   => Energetics <=

    Nuclear Repulsion Energy =             64.8907008624225625
    One-Electron Energy =                -457.5138559730266934
    Two-Electron Energy =                 173.6508355615830794
    DFT Exchange-Correlation Energy =     -18.8427681770567581
    Empirical Dispersion Energy =           0.0000000000000000
    VV10 Nonlocal Energy =                  0.1006268956427524
    Total Energy =                       -237.7144608304350299

Computation Completed


Properties will be evaluated at   0.000000,   0.000000,   0.000000 [a0]

Properties computed using the SCF density matrix

  Nuclear Dipole Moment: [e a0]
     X:    -0.0000      Y:    -0.0000      Z:    -0.3586

  Electronic Dipole Moment: [e a0]
     X:     0.0000      Y:     0.0000      Z:     0.6267

  Dipole Moment: [e a0]
     X:    -0.0000      Y:    -0.0000      Z:     0.2681     Total:     0.2681

  Dipole Moment: [D]
     X:    -0.0000      Y:    -0.0000      Z:     0.6815     Total:     0.6815


*** tstop() called on bp1-compute00139.data.bp.acrc.priv at Tue Apr 27 17:36:03 2021
Module time:
	user time   =      66.13 seconds =       1.10 minutes
	system time =       3.33 seconds =       0.06 minutes
	total time  =          3 seconds =       0.05 minutes
Total time:
	user time   =     128.16 seconds =       2.14 minutes
	system time =       5.93 seconds =       0.10 minutes
	total time  =          6 seconds =       0.10 minutes

  //>>>>>>>>>>>>>>>>>>>>>>>>>>>>>>>>>>>//
  //    Loading displacement 3 of 5    //
  //<<<<<<<<<<<<<<<<<<<<<<<<<<<<<<<<<<<//

*** tstart() called on bp1-compute00139.data.bp.acrc.priv
*** at Tue Apr 27 17:36:03 2021

   => Loading Basis Set <=

    Name: CC-PV(T+D)Z
    Role: ORBITAL
    Keyword: BASIS
    atoms 1   entry C          line   195 file /work/zw18965/.conda/envs/p4env/share/psi4/basis/cc-pv_tpd_z.gbs 
    atoms 2-3 entry F          line   309 file /work/zw18965/.conda/envs/p4env/share/psi4/basis/cc-pv_tpd_z.gbs 


         ---------------------------------------------------------
                                   SCF
               by Justin Turney, Rob Parrish, Andy Simmonett
                          and Daniel G. A. Smith
                              RKS Reference
                       24 Threads, 137329 MiB Core
         ---------------------------------------------------------

  ==> Geometry <==

    Molecular point group: c2v
    Full point group: C2v

    Geometry (in Angstrom), charge = 0, multiplicity = 1:

       Center              X                  Y                   Z               Mass       
    ------------   -----------------  -----------------  -----------------  -----------------
         C            0.000000000000     0.000000000000    -0.600493916765    12.000000000000
         F           -0.000000000000     1.027989606760     0.189645596513    18.998403162730
         F            0.000000000000    -1.027989606760     0.189645596513    18.998403162730

  Running in c2v symmetry.

  Rotational constants: A =      2.96076  B =      0.41983  C =      0.36769 [cm^-1]
  Rotational constants: A =  88761.28084  B =  12586.14285  C =  11023.09382 [MHz]
  Nuclear repulsion =   64.927000105912398

  Charge       = 0
  Multiplicity = 1
  Electrons    = 24
  Nalpha       = 12
  Nbeta        = 12

  ==> Algorithm <==

  SCF Algorithm Type is DF.
  DIIS enabled.
  MOM disabled.
  Fractional occupation disabled.
  Guess Type is SAD.
  Energy threshold   = 1.00e-08
  Density threshold  = 1.00e-08
  Integral threshold = 0.00e+00

  ==> Primary Basis <==

  Basis Set: CC-PV(T+D)Z
    Blend: CC-PV(T+D)Z
    Number of shells: 30
    Number of basis function: 90
    Number of Cartesian functions: 105
    Spherical Harmonics?: true
    Max angular momentum: 3

  ==> DFT Potential <==

   => Composite Functional: WB97X-V <= 

    wB97X-V Hyb-GGA Exchange-Correlation Functional

    N. Mardirossian and M. Head-Gordon, Phys. Chem. Chem. Phys. 16, 9904 (2014)

    Deriv               =              1
    GGA                 =           TRUE
    Meta                =          FALSE

    Exchange Hybrid     =           TRUE
    MP2 Hybrid          =          FALSE

   => Exchange-Correlation Functionals <=

    1.0000   wB97X-V range-separated functional

   => Exact (HF) Exchange <=

    0.8330            HF,LR [omega = 0.3000]
    0.1670               HF 

   => VV10 Non-Local Parameters <=

    VV10 B              =     6.0000E+00
    VV10 C              =     1.0000E-02

   => Molecular Quadrature <=

    Radial Scheme          =       TREUTLER
    Pruning Scheme         =           FLAT
    Nuclear Scheme         =       TREUTLER

    BS radius alpha        =              1
    Pruning alpha          =              1
    Radial Points          =             75
    Spherical Points       =            302
    Total Points           =          65501
    Total Blocks           =            562
    Max Points             =            256
    Max Functions          =             90

   => Loading Basis Set <=

    Name: (CC-PV(T+D)Z AUX)
    Role: JKFIT
    Keyword: DF_BASIS_SCF
    atoms 1   entry C          line   125 file /work/zw18965/.conda/envs/p4env/share/psi4/basis/cc-pvtz-jkfit.gbs 
    atoms 2-3 entry F          line   281 file /work/zw18965/.conda/envs/p4env/share/psi4/basis/cc-pvtz-jkfit.gbs 

  ==> Pre-Iterations <==

   -------------------------------------------------------
    Irrep   Nso     Nmo     Nalpha   Nbeta   Ndocc  Nsocc
   -------------------------------------------------------
     A1        33      33       0       0       0       0
     A2        13      13       0       0       0       0
     B1        17      17       0       0       0       0
     B2        27      27       0       0       0       0
   -------------------------------------------------------
    Total      90      90      12      12      12       0
   -------------------------------------------------------

  ==> Integral Setup <==

  ==> DiskDFJK: Density-Fitted J/K Matrices <==

    J tasked:                  Yes
    K tasked:                  Yes
    wK tasked:                 Yes
    Omega:               3.000E-01
    OpenMP threads:             24
    Integrals threads:          24
    Memory [MiB]:           102847
    Algorithm:                Core
    Integral Cache:           NONE
    Schwarz Cutoff:          1E-12
    Fitting Condition:       1E-10

   => Auxiliary Basis Set <=

  Basis Set: (CC-PV(T+D)Z AUX)
    Blend: CC-PVTZ-JKFIT
    Number of shells: 75
    Number of basis function: 237
    Number of Cartesian functions: 288
    Spherical Harmonics?: true
    Max angular momentum: 4

  Cached 100.0% of DFT collocation blocks in 0.145 [GiB].

  Minimum eigenvalue in the overlap matrix is 6.0939628291E-03.
  Using Symmetric Orthogonalization.

  SCF Guess: Superposition of Atomic Densities via on-the-fly atomic UHF.

  ==> Iterations <==

                           Total Energy        Delta E     RMS |[F,P]|

   @DF-RKS iter SAD:  -237.22831091736026   -2.37228e+02   0.00000e+00 
   @DF-RKS iter   1:  -237.68300178107751   -4.54691e-01   6.59997e-03 DIIS
   @DF-RKS iter   2:  -237.69242949494532   -9.42771e-03   6.18205e-03 DIIS
   @DF-RKS iter   3:  -237.71396773441177   -2.15382e-02   7.70996e-04 DIIS
   @DF-RKS iter   4:  -237.71441657947713   -4.48845e-04   1.06666e-04 DIIS
   @DF-RKS iter   5:  -237.71443828362874   -2.17042e-05   1.85205e-05 DIIS
   @DF-RKS iter   6:  -237.71443905948314   -7.75854e-07   5.23584e-06 DIIS
   @DF-RKS iter   7:  -237.71443910623449   -4.67514e-08   1.01405e-06 DIIS
   @DF-RKS iter   8:  -237.71443910843061   -2.19612e-09   1.98167e-07 DIIS
   @DF-RKS iter   9:  -237.71443910852443   -9.38201e-11   4.60268e-08 DIIS
   @DF-RKS iter  10:  -237.71443910852940   -4.97380e-12   7.00445e-09 DIIS
  Energy and wave function converged.


  ==> Post-Iterations <==

    Orbital Energies [Eh]
    ---------------------

    Doubly Occupied:                                                      

       1B2   -24.840871     1A1   -24.840861     2A1   -10.473991  
       3A1    -1.474113     2B2    -1.395408     4A1    -0.831722  
       3B2    -0.720465     1B1    -0.677555     5A1    -0.672141  
       1A2    -0.594232     4B2    -0.567973     6A1    -0.413984  

    Virtual:                                                              

       2B1     0.017358     5B2     0.228715     7A1     0.251324  
       3B1     0.369558     8A1     0.399507     9A1     0.438602  
       6B2     0.450855     7B2     0.697160    10A1     0.745461  
       4B1     0.793628    11A1     0.805711     2A2     0.829679  
       3A2     0.906788     5B1     0.953600    12A1     0.984806  
       8B2     0.993306    13A1     1.059487     9B2     1.246086  
      10B2     1.556683    14A1     1.625945     6B1     1.909011  
      15A1     1.975479     7B1     1.976137     4A2     2.008319  
      11B2     2.031825    16A1     2.146900    12B2     2.218147  
       5A2     2.249858     8B1     2.344788    13B2     2.467240  
      17A1     2.540248    18A1     2.564891    14B2     2.622609  
       9B1     2.947253     6A2     3.070323    19A1     3.079151  
      10B1     3.096482    20A1     3.145319    21A1     3.353287  
      15B2     3.380044    11B1     3.421388    22A1     3.500936  
       7A2     3.508365    16B2     3.559033    17B2     3.720422  
      23A1     4.690655    12B1     4.798382     8A2     4.808480  
      18B2     4.868902    24A1     4.900600    19B2     6.032976  
       9A2     6.884852    20B2     6.895688    13B1     6.900899  
      25A1     6.902084    10A2     6.902503    21B2     6.945403  
      26A1     7.007183    27A1     7.023025    14B1     7.122409  
      15B1     7.252405    22B2     7.337254    28A1     7.352430  
      11A2     7.367651    23B2     7.604984    29A1     7.976141  
      12A2     8.324339    30A1     8.360113    16B1     8.387852  
      24B2     8.400546    25B2     8.811532    13A2     8.819731  
      17B1     8.849598    31A1     8.989152    26B2     9.094141  
      32A1     9.531786    27B2    11.061714    33A1    11.225808  

    Final Occupation by Irrep:
             A1    A2    B1    B2 
    DOCC [     6,    1,    1,    4 ]

  @DF-RKS Final Energy:  -237.71443910852940

   => Energetics <=

    Nuclear Repulsion Energy =             64.9270001059123985
    One-Electron Energy =                -457.5805839960405592
    Two-Electron Energy =                 173.6821460238276984
    DFT Exchange-Correlation Energy =     -18.8436269386848068
    Empirical Dispersion Energy =           0.0000000000000000
    VV10 Nonlocal Energy =                  0.1006256964558806
    Total Energy =                       -237.7144391085294046

Computation Completed


Properties will be evaluated at   0.000000,   0.000000,   0.000000 [a0]

Properties computed using the SCF density matrix

  Nuclear Dipole Moment: [e a0]
     X:    -0.0000      Y:    -0.0000      Z:    -0.3578

  Electronic Dipole Moment: [e a0]
     X:     0.0000      Y:     0.0000      Z:     0.6293

  Dipole Moment: [e a0]
     X:    -0.0000      Y:    -0.0000      Z:     0.2715     Total:     0.2715

  Dipole Moment: [D]
     X:    -0.0000      Y:    -0.0000      Z:     0.6901     Total:     0.6901


*** tstop() called on bp1-compute00139.data.bp.acrc.priv at Tue Apr 27 17:36:06 2021
Module time:
	user time   =      64.07 seconds =       1.07 minutes
	system time =       2.06 seconds =       0.03 minutes
	total time  =          3 seconds =       0.05 minutes
Total time:
	user time   =     192.37 seconds =       3.21 minutes
	system time =       7.99 seconds =       0.13 minutes
	total time  =          9 seconds =       0.15 minutes

  //>>>>>>>>>>>>>>>>>>>>>>>>>>>>>>>>>>>//
  //    Loading displacement 4 of 5    //
  //<<<<<<<<<<<<<<<<<<<<<<<<<<<<<<<<<<<//

*** tstart() called on bp1-compute00139.data.bp.acrc.priv
*** at Tue Apr 27 17:36:06 2021

   => Loading Basis Set <=

    Name: CC-PV(T+D)Z
    Role: ORBITAL
    Keyword: BASIS
    atoms 1   entry C          line   195 file /work/zw18965/.conda/envs/p4env/share/psi4/basis/cc-pv_tpd_z.gbs 
    atoms 2-3 entry F          line   309 file /work/zw18965/.conda/envs/p4env/share/psi4/basis/cc-pv_tpd_z.gbs 


         ---------------------------------------------------------
                                   SCF
               by Justin Turney, Rob Parrish, Andy Simmonett
                          and Daniel G. A. Smith
                              RKS Reference
                       24 Threads, 137329 MiB Core
         ---------------------------------------------------------

  ==> Geometry <==

    Molecular point group: c2v
    Full point group: C2v

    Geometry (in Angstrom), charge = 0, multiplicity = 1:

       Center              X                  Y                   Z               Mass       
    ------------   -----------------  -----------------  -----------------  -----------------
         C            0.000000000000     0.000000000000    -0.601159776770    12.000000000000
         F           -0.000000000000     1.027560369327     0.189855885767    18.998403162730
         F            0.000000000000    -1.027560369327     0.189855885767    18.998403162730

  Running in c2v symmetry.

  Rotational constants: A =      2.95420  B =      0.42018  C =      0.36786 [cm^-1]
  Rotational constants: A =  88564.76119  B =  12596.66013  C =  11028.11904 [MHz]
  Nuclear repulsion =   64.929115797306693

  Charge       = 0
  Multiplicity = 1
  Electrons    = 24
  Nalpha       = 12
  Nbeta        = 12

  ==> Algorithm <==

  SCF Algorithm Type is DF.
  DIIS enabled.
  MOM disabled.
  Fractional occupation disabled.
  Guess Type is SAD.
  Energy threshold   = 1.00e-08
  Density threshold  = 1.00e-08
  Integral threshold = 0.00e+00

  ==> Primary Basis <==

  Basis Set: CC-PV(T+D)Z
    Blend: CC-PV(T+D)Z
    Number of shells: 30
    Number of basis function: 90
    Number of Cartesian functions: 105
    Spherical Harmonics?: true
    Max angular momentum: 3

  ==> DFT Potential <==

   => Composite Functional: WB97X-V <= 

    wB97X-V Hyb-GGA Exchange-Correlation Functional

    N. Mardirossian and M. Head-Gordon, Phys. Chem. Chem. Phys. 16, 9904 (2014)

    Deriv               =              1
    GGA                 =           TRUE
    Meta                =          FALSE

    Exchange Hybrid     =           TRUE
    MP2 Hybrid          =          FALSE

   => Exchange-Correlation Functionals <=

    1.0000   wB97X-V range-separated functional

   => Exact (HF) Exchange <=

    0.8330            HF,LR [omega = 0.3000]
    0.1670               HF 

   => VV10 Non-Local Parameters <=

    VV10 B              =     6.0000E+00
    VV10 C              =     1.0000E-02

   => Molecular Quadrature <=

    Radial Scheme          =       TREUTLER
    Pruning Scheme         =           FLAT
    Nuclear Scheme         =       TREUTLER

    BS radius alpha        =              1
    Pruning alpha          =              1
    Radial Points          =             75
    Spherical Points       =            302
    Total Points           =          65501
    Total Blocks           =            564
    Max Points             =            256
    Max Functions          =             90

   => Loading Basis Set <=

    Name: (CC-PV(T+D)Z AUX)
    Role: JKFIT
    Keyword: DF_BASIS_SCF
    atoms 1   entry C          line   125 file /work/zw18965/.conda/envs/p4env/share/psi4/basis/cc-pvtz-jkfit.gbs 
    atoms 2-3 entry F          line   281 file /work/zw18965/.conda/envs/p4env/share/psi4/basis/cc-pvtz-jkfit.gbs 

  ==> Pre-Iterations <==

   -------------------------------------------------------
    Irrep   Nso     Nmo     Nalpha   Nbeta   Ndocc  Nsocc
   -------------------------------------------------------
     A1        33      33       0       0       0       0
     A2        13      13       0       0       0       0
     B1        17      17       0       0       0       0
     B2        27      27       0       0       0       0
   -------------------------------------------------------
    Total      90      90      12      12      12       0
   -------------------------------------------------------

  ==> Integral Setup <==

  ==> DiskDFJK: Density-Fitted J/K Matrices <==

    J tasked:                  Yes
    K tasked:                  Yes
    wK tasked:                 Yes
    Omega:               3.000E-01
    OpenMP threads:             24
    Integrals threads:          24
    Memory [MiB]:           102847
    Algorithm:                Core
    Integral Cache:           NONE
    Schwarz Cutoff:          1E-12
    Fitting Condition:       1E-10

   => Auxiliary Basis Set <=

  Basis Set: (CC-PV(T+D)Z AUX)
    Blend: CC-PVTZ-JKFIT
    Number of shells: 75
    Number of basis function: 237
    Number of Cartesian functions: 288
    Spherical Harmonics?: true
    Max angular momentum: 4

  Cached 100.0% of DFT collocation blocks in 0.145 [GiB].

  Minimum eigenvalue in the overlap matrix is 6.0979905712E-03.
  Using Symmetric Orthogonalization.

  SCF Guess: Superposition of Atomic Densities via on-the-fly atomic UHF.

  ==> Iterations <==

                           Total Energy        Delta E     RMS |[F,P]|

   @DF-RKS iter SAD:  -237.22782763797468   -2.37228e+02   0.00000e+00 
   @DF-RKS iter   1:  -237.68298224593102   -4.55155e-01   6.60379e-03 DIIS
   @DF-RKS iter   2:  -237.69236944643981   -9.38720e-03   6.19066e-03 DIIS
   @DF-RKS iter   3:  -237.71397444522776   -2.16050e-02   7.70147e-04 DIIS
   @DF-RKS iter   4:  -237.71442239898821   -4.47954e-04   1.06635e-04 DIIS
   @DF-RKS iter   5:  -237.71444405724404   -2.16583e-05   1.85147e-05 DIIS
   @DF-RKS iter   6:  -237.71444483065491   -7.73411e-07   5.24582e-06 DIIS
   @DF-RKS iter   7:  -237.71444487735781   -4.67029e-08   1.01422e-06 DIIS
   @DF-RKS iter   8:  -237.71444487955253   -2.19472e-09   1.97328e-07 DIIS
   @DF-RKS iter   9:  -237.71444487964547   -9.29390e-11   4.56629e-08 DIIS
   @DF-RKS iter  10:  -237.71444487965019   -4.71800e-12   6.95311e-09 DIIS
  Energy and wave function converged.


  ==> Post-Iterations <==

    Orbital Energies [Eh]
    ---------------------

    Doubly Occupied:                                                      

       1B2   -24.840781     1A1   -24.840770     2A1   -10.474069  
       3A1    -1.474054     2B2    -1.395210     4A1    -0.831681  
       3B2    -0.720306     1B1    -0.677478     5A1    -0.672099  
       1A2    -0.594117     4B2    -0.567769     6A1    -0.414207  

    Virtual:                                                              

       2B1     0.017267     5B2     0.228457     7A1     0.251402  
       3B1     0.369557     8A1     0.399491     9A1     0.438684  
       6B2     0.450581     7B2     0.697168    10A1     0.745447  
       4B1     0.793709    11A1     0.805810     2A2     0.829589  
       3A2     0.906813     5B1     0.953583    12A1     0.985152  
       8B2     0.993521    13A1     1.058897     9B2     1.246058  
      10B2     1.556694    14A1     1.625719     6B1     1.908834  
      15A1     1.975140     7B1     1.975968     4A2     2.008788  
      11B2     2.031622    16A1     2.146991    12B2     2.219061  
       5A2     2.249403     8B1     2.344629    13B2     2.466852  
      17A1     2.539633    18A1     2.565072    14B2     2.622609  
       9B1     2.947279     6A2     3.070195    19A1     3.078929  
      10B1     3.096615    20A1     3.145427    21A1     3.353260  
      15B2     3.379364    11B1     3.421031    22A1     3.500932  
       7A2     3.508420    16B2     3.559004    17B2     3.720359  
      23A1     4.690115    12B1     4.798265     8A2     4.808348  
      18B2     4.868036    24A1     4.901595    19B2     6.032406  
       9A2     6.884893    20B2     6.895808    13B1     6.900968  
      25A1     6.902158    10A2     6.902520    21B2     6.945286  
      26A1     7.006974    27A1     7.022523    14B1     7.122587  
      15B1     7.251990    22B2     7.336553    28A1     7.353203  
      11A2     7.367356    23B2     7.604552    29A1     7.974538  
      12A2     8.324544    30A1     8.359846    16B1     8.387655  
      24B2     8.400785    25B2     8.811499    13A2     8.819555  
      17B1     8.849566    31A1     8.988808    26B2     9.094150  
      32A1     9.531770    27B2    11.061851    33A1    11.223491  

    Final Occupation by Irrep:
             A1    A2    B1    B2 
    DOCC [     6,    1,    1,    4 ]

  @DF-RKS Final Energy:  -237.71444487965019

   => Energetics <=

    Nuclear Repulsion Energy =             64.9291157973066930
    One-Electron Energy =                -457.5864267596097079
    Two-Electron Energy =                 173.6857786729380564
    DFT Exchange-Correlation Energy =     -18.8435375654933637
    Empirical Dispersion Energy =           0.0000000000000000
    VV10 Nonlocal Energy =                  0.1006249752081381
    Total Energy =                       -237.7144448796501877

Computation Completed


Properties will be evaluated at   0.000000,   0.000000,   0.000000 [a0]

Properties computed using the SCF density matrix

  Nuclear Dipole Moment: [e a0]
     X:     0.0000      Y:     0.0000      Z:    -0.3582

  Electronic Dipole Moment: [e a0]
     X:     0.0000      Y:     0.0000      Z:     0.6284

  Dipole Moment: [e a0]
     X:     0.0000      Y:     0.0000      Z:     0.2702     Total:     0.2702

  Dipole Moment: [D]
     X:     0.0000      Y:     0.0000      Z:     0.6869     Total:     0.6869


*** tstop() called on bp1-compute00139.data.bp.acrc.priv at Tue Apr 27 17:36:08 2021
Module time:
	user time   =      64.03 seconds =       1.07 minutes
	system time =       2.09 seconds =       0.03 minutes
	total time  =          2 seconds =       0.03 minutes
Total time:
	user time   =     256.53 seconds =       4.28 minutes
	system time =      10.09 seconds =       0.17 minutes
	total time  =         11 seconds =       0.18 minutes

  //>>>>>>>>>>>>>>>>>>>>>>>>>>>>>>>>>>>//
  //    Loading displacement 5 of 5    //
  //<<<<<<<<<<<<<<<<<<<<<<<<<<<<<<<<<<<//

*** tstart() called on bp1-compute00139.data.bp.acrc.priv
*** at Tue Apr 27 17:36:08 2021

   => Loading Basis Set <=

    Name: CC-PV(T+D)Z
    Role: ORBITAL
    Keyword: BASIS
    atoms 1   entry C          line   195 file /work/zw18965/.conda/envs/p4env/share/psi4/basis/cc-pv_tpd_z.gbs 
    atoms 2-3 entry F          line   309 file /work/zw18965/.conda/envs/p4env/share/psi4/basis/cc-pv_tpd_z.gbs 


         ---------------------------------------------------------
                                   SCF
               by Justin Turney, Rob Parrish, Andy Simmonett
                          and Daniel G. A. Smith
                              RKS Reference
                       24 Threads, 137329 MiB Core
         ---------------------------------------------------------

  ==> Geometry <==

    Molecular point group: c2v
    Full point group: C2v

    Geometry (in Angstrom), charge = 0, multiplicity = 1:

       Center              X                  Y                   Z               Mass       
    ------------   -----------------  -----------------  -----------------  -----------------
         C            0.000000000000     0.000000000000    -0.601159776770    12.000000000000
         F           -0.000000000000     1.028418844194     0.189855885767    18.998403162730
         F            0.000000000000    -1.028418844194     0.189855885767    18.998403162730

  Running in c2v symmetry.

  Rotational constants: A =      2.95420  B =      0.41948  C =      0.36732 [cm^-1]
  Rotational constants: A =  88564.76119  B =  12575.63873  C =  11012.00353 [MHz]
  Nuclear repulsion =   64.888594381756931

  Charge       = 0
  Multiplicity = 1
  Electrons    = 24
  Nalpha       = 12
  Nbeta        = 12

  ==> Algorithm <==

  SCF Algorithm Type is DF.
  DIIS enabled.
  MOM disabled.
  Fractional occupation disabled.
  Guess Type is SAD.
  Energy threshold   = 1.00e-08
  Density threshold  = 1.00e-08
  Integral threshold = 0.00e+00

  ==> Primary Basis <==

  Basis Set: CC-PV(T+D)Z
    Blend: CC-PV(T+D)Z
    Number of shells: 30
    Number of basis function: 90
    Number of Cartesian functions: 105
    Spherical Harmonics?: true
    Max angular momentum: 3

  ==> DFT Potential <==

   => Composite Functional: WB97X-V <= 

    wB97X-V Hyb-GGA Exchange-Correlation Functional

    N. Mardirossian and M. Head-Gordon, Phys. Chem. Chem. Phys. 16, 9904 (2014)

    Deriv               =              1
    GGA                 =           TRUE
    Meta                =          FALSE

    Exchange Hybrid     =           TRUE
    MP2 Hybrid          =          FALSE

   => Exchange-Correlation Functionals <=

    1.0000   wB97X-V range-separated functional

   => Exact (HF) Exchange <=

    0.8330            HF,LR [omega = 0.3000]
    0.1670               HF 

   => VV10 Non-Local Parameters <=

    VV10 B              =     6.0000E+00
    VV10 C              =     1.0000E-02

   => Molecular Quadrature <=

    Radial Scheme          =       TREUTLER
    Pruning Scheme         =           FLAT
    Nuclear Scheme         =       TREUTLER

    BS radius alpha        =              1
    Pruning alpha          =              1
    Radial Points          =             75
    Spherical Points       =            302
    Total Points           =          65501
    Total Blocks           =            564
    Max Points             =            256
    Max Functions          =             90

   => Loading Basis Set <=

    Name: (CC-PV(T+D)Z AUX)
    Role: JKFIT
    Keyword: DF_BASIS_SCF
    atoms 1   entry C          line   125 file /work/zw18965/.conda/envs/p4env/share/psi4/basis/cc-pvtz-jkfit.gbs 
    atoms 2-3 entry F          line   281 file /work/zw18965/.conda/envs/p4env/share/psi4/basis/cc-pvtz-jkfit.gbs 

  ==> Pre-Iterations <==

   -------------------------------------------------------
    Irrep   Nso     Nmo     Nalpha   Nbeta   Ndocc  Nsocc
   -------------------------------------------------------
     A1        33      33       0       0       0       0
     A2        13      13       0       0       0       0
     B1        17      17       0       0       0       0
     B2        27      27       0       0       0       0
   -------------------------------------------------------
    Total      90      90      12      12      12       0
   -------------------------------------------------------

  ==> Integral Setup <==

  ==> DiskDFJK: Density-Fitted J/K Matrices <==

    J tasked:                  Yes
    K tasked:                  Yes
    wK tasked:                 Yes
    Omega:               3.000E-01
    OpenMP threads:             24
    Integrals threads:          24
    Memory [MiB]:           102847
    Algorithm:                Core
    Integral Cache:           NONE
    Schwarz Cutoff:          1E-12
    Fitting Condition:       1E-10

   => Auxiliary Basis Set <=

  Basis Set: (CC-PV(T+D)Z AUX)
    Blend: CC-PVTZ-JKFIT
    Number of shells: 75
    Number of basis function: 237
    Number of Cartesian functions: 288
    Spherical Harmonics?: true
    Max angular momentum: 4

  Cached 100.0% of DFT collocation blocks in 0.145 [GiB].

  Minimum eigenvalue in the overlap matrix is 6.1097133640E-03.
  Using Symmetric Orthogonalization.

  SCF Guess: Superposition of Atomic Densities via on-the-fly atomic UHF.

  ==> Iterations <==

                           Total Energy        Delta E     RMS |[F,P]|

   @DF-RKS iter SAD:  -237.22555117152100   -2.37226e+02   0.00000e+00 
   @DF-RKS iter   1:  -237.68294841280823   -4.57397e-01   6.60734e-03 DIIS
   @DF-RKS iter   2:  -237.69228650408667   -9.33809e-03   6.20180e-03 DIIS
   @DF-RKS iter   3:  -237.71398493345202   -2.16984e-02   7.70532e-04 DIIS
   @DF-RKS iter   4:  -237.71443328209398   -4.48349e-04   1.06660e-04 DIIS
   @DF-RKS iter   5:  -237.71445498170945   -2.16996e-05   1.86011e-05 DIIS
   @DF-RKS iter   6:  -237.71445575988244   -7.78173e-07   5.29711e-06 DIIS
   @DF-RKS iter   7:  -237.71445580727516   -4.73927e-08   1.02353e-06 DIIS
   @DF-RKS iter   8:  -237.71445580951615   -2.24099e-09   1.97402e-07 DIIS
   @DF-RKS iter   9:  -237.71445580960997   -9.38201e-11   4.57931e-08 DIIS
   @DF-RKS iter  10:  -237.71445580961500   -5.03064e-12   6.99652e-09 DIIS
  Energy and wave function converged.


  ==> Post-Iterations <==

    Orbital Energies [Eh]
    ---------------------

    Doubly Occupied:                                                      

       1B2   -24.840766     1A1   -24.840755     2A1   -10.474304  
       3A1    -1.473607     2B2    -1.395056     4A1    -0.831585  
       3B2    -0.720144     1B1    -0.677208     5A1    -0.671849  
       1A2    -0.594048     4B2    -0.567818     6A1    -0.414301  

    Virtual:                                                              

       2B1     0.017010     5B2     0.228307     7A1     0.251126  
       3B1     0.369590     8A1     0.399438     9A1     0.437994  
       6B2     0.450229     7B2     0.697315    10A1     0.745385  
       4B1     0.793506    11A1     0.805678     2A2     0.829459  
       3A2     0.906821     5B1     0.953634    12A1     0.984725  
       8B2     0.993379    13A1     1.058836     9B2     1.245873  
      10B2     1.556689    14A1     1.626267     6B1     1.908866  
      15A1     1.975390     7B1     1.975880     4A2     2.008264  
      11B2     2.031548    16A1     2.147044    12B2     2.217526  
       5A2     2.249267     8B1     2.344427    13B2     2.466491  
      17A1     2.539712    18A1     2.564299    14B2     2.622272  
       9B1     2.946605     6A2     3.070043    19A1     3.078592  
      10B1     3.096263    20A1     3.144792    21A1     3.352395  
      15B2     3.378430    11B1     3.420510    22A1     3.500428  
       7A2     3.507750    16B2     3.558810    17B2     3.719105  
      23A1     4.688997    12B1     4.797676     8A2     4.807821  
      18B2     4.868097    24A1     4.899386    19B2     6.031526  
       9A2     6.885010    20B2     6.895889    13B1     6.901062  
      25A1     6.902240    10A2     6.902603    21B2     6.945221  
      26A1     7.006544    27A1     7.019850    14B1     7.121608  
      15B1     7.251422    22B2     7.336188    28A1     7.350605  
      11A2     7.366294    23B2     7.603555    29A1     7.972591  
      12A2     8.324323    30A1     8.359914    16B1     8.387562  
      24B2     8.400317    25B2     8.810557    13A2     8.819041  
      17B1     8.848743    31A1     8.988204    26B2     9.094497  
      32A1     9.531750    27B2    11.057673    33A1    11.219733  

    Final Occupation by Irrep:
             A1    A2    B1    B2 
    DOCC [     6,    1,    1,    4 ]

  @DF-RKS Final Energy:  -237.71445580961500

   => Energetics <=

    Nuclear Repulsion Energy =             64.8885943817569313
    One-Electron Energy =                -457.5080330604952223
    Two-Electron Energy =                 173.6472129356449727
    DFT Exchange-Correlation Energy =     -18.8428576827423271
    Empirical Dispersion Energy =           0.0000000000000000
    VV10 Nonlocal Energy =                  0.1006276162206204
    Total Energy =                       -237.7144558096150320

Computation Completed


Properties will be evaluated at   0.000000,   0.000000,   0.000000 [a0]

Properties computed using the SCF density matrix

  Nuclear Dipole Moment: [e a0]
     X:     0.0000      Y:    -0.0000      Z:    -0.3582

  Electronic Dipole Moment: [e a0]
     X:     0.0000      Y:     0.0000      Z:     0.6276

  Dipole Moment: [e a0]
     X:     0.0000      Y:    -0.0000      Z:     0.2694     Total:     0.2694

  Dipole Moment: [D]
     X:     0.0000      Y:    -0.0000      Z:     0.6847     Total:     0.6847


*** tstop() called on bp1-compute00139.data.bp.acrc.priv at Tue Apr 27 17:36:11 2021
Module time:
	user time   =      63.45 seconds =       1.06 minutes
	system time =       1.90 seconds =       0.03 minutes
	total time  =          3 seconds =       0.05 minutes
Total time:
	user time   =     320.12 seconds =       5.34 minutes
	system time =      12.00 seconds =       0.20 minutes
	total time  =         14 seconds =       0.23 minutes

         ----------------------------------------------------------
                                   FINDIF
                     R. A. King and Jonathon Misiewicz
         ---------------------------------------------------------

  Computing gradient from energies.
    Using 3-point formula.
    Energy without displacement: -237.7144506563
    Check energies below for precision!
    Forces are for mass-weighted, symmetry-adapted cartesians (in au).

     Coord      Energy(-1)        Energy(+1)            Force
        0   -237.7144608304   -237.7144391085      0.0021721906
        1   -237.7144448797   -237.7144558096     -0.0010929965


-------------------------------------------------------------
  ## New Matrix (Symmetry 0) ##
  Irrep: 1 Size: 3 x 3

                 1                   2                   3

    1     0.00000000000000     0.00000000000000     0.00655980548942
    2     0.00000000000000    -0.00336869983961    -0.00327990274471
    3     0.00000000000000     0.00336869983961    -0.00327990274471




			-----------------------------------------
			 OPTKING 2.0: for geometry optimizations 
			  - R.A. King,  Bethel University        
			-----------------------------------------
	At level 1: Red. Int., RFO, no backsteps, dynamic trust

	Internal coordinates to be generated automatically.
	Detected frag 1 with atoms:  1 2 3
	---Fragment 1 Bond Connectivity---
	 1 : 2 3
	 2 : 1
	 3 : 1

	---Fragment 1 Geometry and Gradient---
	 C           0.0000000000        0.0000000000       -1.1360273357
	 F          -0.0000000000        1.9426188166        0.3587756274
	 F           0.0000000000       -1.9426188166        0.3587756274
	             0.0000000000        0.0000000000        0.0065598055
	             0.0000000000       -0.0033686998       -0.0032799027
	             0.0000000000        0.0033686998       -0.0032799027

	Previous optimization step data not found.  Starting new optimization.

	---Fragment 1 Intrafragment Coordinates---
	 - Coordinate -           - BOHR/RAD -       - ANG/DEG -
	 R(1,2)           =         2.451164	       1.297100
	 R(1,3)           =         2.451164	       1.297100
	 B(2,1,3)         =         1.829890	     104.845000

	Current energy   :      -237.7144506563

	Generating empirical Hessian (Schlegel '84) for each fragment.
	Taking RFO optimization step.
	Going to follow RFO solution 1.
	Using RFO vector 1.
	Norm of target step-size    0.01108
	Projected energy change by RFO approximation:        -0.0000106854

	Back-transformation to cartesian coordinates...
	Successfully converged to displaced geometry.

	--- Internal Coordinate Step in ANG or DEG, aJ/ANG or AJ/DEG ---
	 ---------------------------------------------------------------------------
	   Coordinate                Previous        Force       Change         New 
	   ----------                --------       ------       ------       ------
	    1 R(1,2)          =      1.297100     0.038475     0.003634     1.300734
	    2 R(1,3)          =      1.297100     0.038475     0.003634     1.300734
	    3 B(2,1,3)        =    104.845000    -0.000102    -0.306115   104.538885
	 ---------------------------------------------------------------------------
	Successfully symmetrized geometry.

  ==> Convergence Check <==

  Measures of convergence in internal coordinates in au.
  Criteria marked as inactive (o), active & met (*), and active & unmet ( ).
  --------------------------------------------------------------------------------------------- ~
   Step     Total Energy     Delta E     MAX Force     RMS Force      MAX Disp      RMS Disp    ~
  --------------------------------------------------------------------------------------------- ~
    Convergence Criteria    1.00e-06 *    3.00e-04 *             o    1.20e-03 *             o  ~
  --------------------------------------------------------------------------------------------- ~
      1    -237.71445066   -2.38e+02      4.67e-03      3.89e-03 o    6.87e-03      6.40e-03 o  ~
  ---------------------------------------------------------------------------------------------

	Writing optimization data to binary file.
	Structure for next step:
	Cartesian Geometry (in Angstrom)
	    C     0.0000000000   0.0000000000  -0.6044710039
	    F    -0.0000000000   1.0287466153   0.1915114997
	    F     0.0000000000  -1.0287466153   0.1915114997
			--------------------------
			 OPTKING Finished Execution 
			--------------------------

    Structure for next step:
    Molecular point group: c2v
    Full point group: C2v

    Geometry (in Angstrom), charge = 0, multiplicity = 1:

    C            0.000000000000     0.000000000000    -0.604934502212
    F           -0.000000000000     1.028746619389     0.191048004518
    F            0.000000000000    -1.028746619389     0.191048004518

gradient() will perform gradient computation by finite difference of analytic energies.

         ----------------------------------------------------------
                                   FINDIF
                     R. A. King and Jonathon Misiewicz
         ---------------------------------------------------------

  Using finite-differences of energies to determine gradients.
    Generating geometries for use with 3-point formula.
    Displacement size will be 5.00e-03.
    Number of atoms is 3.
    Number of symmetric SALCs is 2.
    Translations projected? 1. Rotations projected? 1.
    Number of geometries (including reference) is 5.

  //>>>>>>>>>>>>>>>>>>>>>>>>>>>>>>>>>>>//
  //    Loading displacement 1 of 5    //
  //<<<<<<<<<<<<<<<<<<<<<<<<<<<<<<<<<<<//

*** tstart() called on bp1-compute00139.data.bp.acrc.priv
*** at Tue Apr 27 17:36:11 2021

   => Loading Basis Set <=

    Name: CC-PV(T+D)Z
    Role: ORBITAL
    Keyword: BASIS
    atoms 1   entry C          line   195 file /work/zw18965/.conda/envs/p4env/share/psi4/basis/cc-pv_tpd_z.gbs 
    atoms 2-3 entry F          line   309 file /work/zw18965/.conda/envs/p4env/share/psi4/basis/cc-pv_tpd_z.gbs 


         ---------------------------------------------------------
                                   SCF
               by Justin Turney, Rob Parrish, Andy Simmonett
                          and Daniel G. A. Smith
                              RKS Reference
                       24 Threads, 137329 MiB Core
         ---------------------------------------------------------

  ==> Geometry <==

    Molecular point group: c2v
    Full point group: C2v

    Geometry (in Angstrom), charge = 0, multiplicity = 1:

       Center              X                  Y                   Z               Mass       
    ------------   -----------------  -----------------  -----------------  -----------------
         C            0.000000000000     0.000000000000    -0.604934502212    12.000000000000
         F           -0.000000000000     1.028746619389     0.191048004518    18.998403162730
         F            0.000000000000    -1.028746619389     0.191048004518    18.998403162730

  Running in c2v symmetry.

  Rotational constants: A =      2.91745  B =      0.41921  C =      0.36654 [cm^-1]
  Rotational constants: A =  87462.94063  B =  12567.62640  C =  10988.65671 [MHz]
  Nuclear repulsion =   64.770426244027604

  Charge       = 0
  Multiplicity = 1
  Electrons    = 24
  Nalpha       = 12
  Nbeta        = 12

  ==> Algorithm <==

  SCF Algorithm Type is DF.
  DIIS enabled.
  MOM disabled.
  Fractional occupation disabled.
  Guess Type is READ.
  Energy threshold   = 1.00e-08
  Density threshold  = 1.00e-08
  Integral threshold = 0.00e+00

  ==> Primary Basis <==

  Basis Set: CC-PV(T+D)Z
    Blend: CC-PV(T+D)Z
    Number of shells: 30
    Number of basis function: 90
    Number of Cartesian functions: 105
    Spherical Harmonics?: true
    Max angular momentum: 3

  ==> DFT Potential <==

   => Composite Functional: WB97X-V <= 

    wB97X-V Hyb-GGA Exchange-Correlation Functional

    N. Mardirossian and M. Head-Gordon, Phys. Chem. Chem. Phys. 16, 9904 (2014)

    Deriv               =              1
    GGA                 =           TRUE
    Meta                =          FALSE

    Exchange Hybrid     =           TRUE
    MP2 Hybrid          =          FALSE

   => Exchange-Correlation Functionals <=

    1.0000   wB97X-V range-separated functional

   => Exact (HF) Exchange <=

    0.8330            HF,LR [omega = 0.3000]
    0.1670               HF 

   => VV10 Non-Local Parameters <=

    VV10 B              =     6.0000E+00
    VV10 C              =     1.0000E-02

   => Molecular Quadrature <=

    Radial Scheme          =       TREUTLER
    Pruning Scheme         =           FLAT
    Nuclear Scheme         =       TREUTLER

    BS radius alpha        =              1
    Pruning alpha          =              1
    Radial Points          =             75
    Spherical Points       =            302
    Total Points           =          65501
    Total Blocks           =            564
    Max Points             =            256
    Max Functions          =             90

   => Loading Basis Set <=

    Name: (CC-PV(T+D)Z AUX)
    Role: JKFIT
    Keyword: DF_BASIS_SCF
    atoms 1   entry C          line   125 file /work/zw18965/.conda/envs/p4env/share/psi4/basis/cc-pvtz-jkfit.gbs 
    atoms 2-3 entry F          line   281 file /work/zw18965/.conda/envs/p4env/share/psi4/basis/cc-pvtz-jkfit.gbs 

   => Loading Basis Set <=

    Name: CC-PV(T+D)Z
    Role: ORBITAL
    Keyword: BASIS
    atoms 1   entry C          line   195 file /work/zw18965/.conda/envs/p4env/share/psi4/basis/cc-pv_tpd_z.gbs 
    atoms 2-3 entry F          line   309 file /work/zw18965/.conda/envs/p4env/share/psi4/basis/cc-pv_tpd_z.gbs 

  Reading orbitals from file 180, no projection.

  ==> Pre-Iterations <==

   -------------------------------------------------------
    Irrep   Nso     Nmo     Nalpha   Nbeta   Ndocc  Nsocc
   -------------------------------------------------------
     A1        33      33       0       0       0       0
     A2        13      13       0       0       0       0
     B1        17      17       0       0       0       0
     B2        27      27       0       0       0       0
   -------------------------------------------------------
    Total      90      90      12      12      12       0
   -------------------------------------------------------

  ==> Integral Setup <==

  ==> DiskDFJK: Density-Fitted J/K Matrices <==

    J tasked:                  Yes
    K tasked:                  Yes
    wK tasked:                 Yes
    Omega:               3.000E-01
    OpenMP threads:             24
    Integrals threads:          24
    Memory [MiB]:           102847
    Algorithm:                Core
    Integral Cache:           NONE
    Schwarz Cutoff:          1E-12
    Fitting Condition:       1E-10

   => Auxiliary Basis Set <=

  Basis Set: (CC-PV(T+D)Z AUX)
    Blend: CC-PVTZ-JKFIT
    Number of shells: 75
    Number of basis function: 237
    Number of Cartesian functions: 288
    Spherical Harmonics?: true
    Max angular momentum: 4

  Cached 100.0% of DFT collocation blocks in 0.145 [GiB].

  Minimum eigenvalue in the overlap matrix is 6.1706604756E-03.
  Using Symmetric Orthogonalization.

  SCF Guess: Orbitals guess was supplied from a previous computation.

  ==> Iterations <==

                           Total Energy        Delta E     RMS |[F,P]|

   @DF-RKS iter   0:  -237.70827317212360   -2.37708e+02   3.47524e-04 
   @DF-RKS iter   1:  -237.71448912217636   -6.21595e-03   8.29315e-05 DIIS
   @DF-RKS iter   2:  -237.71449059675021   -1.47457e-06   8.51189e-05 DIIS
   @DF-RKS iter   3:  -237.71449477363745   -4.17689e-06   7.90757e-06 DIIS
   @DF-RKS iter   4:  -237.71449482378745   -5.01500e-08   2.06078e-06 DIIS
   @DF-RKS iter   5:  -237.71449482950015   -5.71271e-09   5.65029e-07 DIIS
   @DF-RKS iter   6:  -237.71449482989360   -3.93442e-10   8.03864e-08 DIIS
   @DF-RKS iter   7:  -237.71449482990204   -8.44125e-12   1.59488e-08 DIIS
   @DF-RKS iter   8:  -237.71449482990221   -1.70530e-13   2.24525e-09 DIIS
  Energy and wave function converged.


  ==> Post-Iterations <==

    Orbital Energies [Eh]
    ---------------------

    Doubly Occupied:                                                      

       1B2   -24.840203     1A1   -24.840192     2A1   -10.475505  
       3A1    -1.471839     2B2    -1.393446     4A1    -0.831046  
       3B2    -0.718723     1B1    -0.675909     5A1    -0.670807  
       1A2    -0.593173     4B2    -0.566825     6A1    -0.415862  

    Virtual:                                                              

       2B1     0.015668     5B2     0.226341     7A1     0.250657  
       3B1     0.369690     8A1     0.399167     9A1     0.436267  
       6B2     0.447586     7B2     0.697838    10A1     0.745109  
       4B1     0.793302    11A1     0.805817     2A2     0.828506  
       3A2     0.907015     5B1     0.953704    12A1     0.985256  
       8B2     0.994132    13A1     1.055368     9B2     1.245118  
      10B2     1.556746    14A1     1.626737     6B1     1.907986  
      15A1     1.974287     7B1     1.974642     4A2     2.009233  
      11B2     2.030150    16A1     2.147707    12B2     2.217739  
       5A2     2.246254     8B1     2.342882    13B2     2.463072  
      17A1     2.536535    18A1     2.562807    14B2     2.621260  
       9B1     2.944576     6A2     3.068816    19A1     3.076208  
      10B1     3.095845    20A1     3.143329    21A1     3.349485  
      15B2     3.371627    11B1     3.416830    22A1     3.498814  
       7A2     3.505885    16B2     3.558025    17B2     3.714665  
      23A1     4.682365    12B1     4.795139     8A2     4.805388  
      18B2     4.863442    24A1     4.897968    19B2     6.025405  
       9A2     6.885615    20B2     6.896828    13B1     6.901764  
      25A1     6.902928    10A2     6.902998    21B2     6.944380  
      26A1     7.003964    27A1     7.008316    14B1     7.119456  
      15B1     7.247287    22B2     7.331000    28A1     7.346702  
      11A2     7.361244    23B2     7.597953    29A1     7.957293  
      12A2     8.324781    30A1     8.358632    16B1     8.386159  
      24B2     8.400163    25B2     8.807353    13A2     8.816383  
      17B1     8.845910    31A1     8.984320    26B2     9.095581  
      32A1     9.531463    27B2    11.045234    33A1    11.194911  

    Final Occupation by Irrep:
             A1    A2    B1    B2 
    DOCC [     6,    1,    1,    4 ]

  @DF-RKS Final Energy:  -237.71449482990221

   => Energetics <=

    Nuclear Repulsion Energy =             64.7704262440276040
    One-Electron Energy =                -457.2892782799615361
    Two-Electron Energy =                 173.5438978840351751
    DFT Exchange-Correlation Energy =     -18.8401727096385443
    Empirical Dispersion Energy =           0.0000000000000000
    VV10 Nonlocal Energy =                  0.1006320316351250
    Total Energy =                       -237.7144948299022076

Computation Completed


Properties will be evaluated at   0.000000,   0.000000,   0.000000 [a0]

Properties computed using the SCF density matrix

  Nuclear Dipole Moment: [e a0]
     X:    -0.0000      Y:    -0.0000      Z:    -0.3605

  Electronic Dipole Moment: [e a0]
     X:     0.0000      Y:     0.0000      Z:     0.6198

  Dipole Moment: [e a0]
     X:    -0.0000      Y:    -0.0000      Z:     0.2594     Total:     0.2594

  Dipole Moment: [D]
     X:    -0.0000      Y:    -0.0000      Z:     0.6593     Total:     0.6593


*** tstop() called on bp1-compute00139.data.bp.acrc.priv at Tue Apr 27 17:36:13 2021
Module time:
	user time   =      48.59 seconds =       0.81 minutes
	system time =       1.63 seconds =       0.03 minutes
	total time  =          2 seconds =       0.03 minutes
Total time:
	user time   =     369.07 seconds =       6.15 minutes
	system time =      13.65 seconds =       0.23 minutes
	total time  =         16 seconds =       0.27 minutes

  //>>>>>>>>>>>>>>>>>>>>>>>>>>>>>>>>>>>//
  //    Loading displacement 2 of 5    //
  //<<<<<<<<<<<<<<<<<<<<<<<<<<<<<<<<<<<//

*** tstart() called on bp1-compute00139.data.bp.acrc.priv
*** at Tue Apr 27 17:36:13 2021

   => Loading Basis Set <=

    Name: CC-PV(T+D)Z
    Role: ORBITAL
    Keyword: BASIS
    atoms 1   entry C          line   195 file /work/zw18965/.conda/envs/p4env/share/psi4/basis/cc-pv_tpd_z.gbs 
    atoms 2-3 entry F          line   309 file /work/zw18965/.conda/envs/p4env/share/psi4/basis/cc-pv_tpd_z.gbs 


         ---------------------------------------------------------
                                   SCF
               by Justin Turney, Rob Parrish, Andy Simmonett
                          and Daniel G. A. Smith
                              RKS Reference
                       24 Threads, 137329 MiB Core
         ---------------------------------------------------------

  ==> Geometry <==

    Molecular point group: c2v
    Full point group: C2v

    Geometry (in Angstrom), charge = 0, multiplicity = 1:

       Center              X                  Y                   Z               Mass       
    ------------   -----------------  -----------------  -----------------  -----------------
         C            0.000000000000     0.000000000000    -0.605600362217    12.000000000000
         F           -0.000000000000     1.028746619389     0.191258293772    18.998403162730
         F            0.000000000000    -1.028746619389     0.191258293772    18.998403162730

  Running in c2v symmetry.

  Rotational constants: A =      2.91104  B =      0.41921  C =      0.36644 [cm^-1]
  Rotational constants: A =  87270.71467  B =  12567.62640  C =  10985.61661 [MHz]
  Nuclear repulsion =   64.752316518430746

  Charge       = 0
  Multiplicity = 1
  Electrons    = 24
  Nalpha       = 12
  Nbeta        = 12

  ==> Algorithm <==

  SCF Algorithm Type is DF.
  DIIS enabled.
  MOM disabled.
  Fractional occupation disabled.
  Guess Type is READ.
  Energy threshold   = 1.00e-08
  Density threshold  = 1.00e-08
  Integral threshold = 0.00e+00

  ==> Primary Basis <==

  Basis Set: CC-PV(T+D)Z
    Blend: CC-PV(T+D)Z
    Number of shells: 30
    Number of basis function: 90
    Number of Cartesian functions: 105
    Spherical Harmonics?: true
    Max angular momentum: 3

  ==> DFT Potential <==

   => Composite Functional: WB97X-V <= 

    wB97X-V Hyb-GGA Exchange-Correlation Functional

    N. Mardirossian and M. Head-Gordon, Phys. Chem. Chem. Phys. 16, 9904 (2014)

    Deriv               =              1
    GGA                 =           TRUE
    Meta                =          FALSE

    Exchange Hybrid     =           TRUE
    MP2 Hybrid          =          FALSE

   => Exchange-Correlation Functionals <=

    1.0000   wB97X-V range-separated functional

   => Exact (HF) Exchange <=

    0.8330            HF,LR [omega = 0.3000]
    0.1670               HF 

   => VV10 Non-Local Parameters <=

    VV10 B              =     6.0000E+00
    VV10 C              =     1.0000E-02

   => Molecular Quadrature <=

    Radial Scheme          =       TREUTLER
    Pruning Scheme         =           FLAT
    Nuclear Scheme         =       TREUTLER

    BS radius alpha        =              1
    Pruning alpha          =              1
    Radial Points          =             75
    Spherical Points       =            302
    Total Points           =          65497
    Total Blocks           =            564
    Max Points             =            256
    Max Functions          =             90

   => Loading Basis Set <=

    Name: (CC-PV(T+D)Z AUX)
    Role: JKFIT
    Keyword: DF_BASIS_SCF
    atoms 1   entry C          line   125 file /work/zw18965/.conda/envs/p4env/share/psi4/basis/cc-pvtz-jkfit.gbs 
    atoms 2-3 entry F          line   281 file /work/zw18965/.conda/envs/p4env/share/psi4/basis/cc-pvtz-jkfit.gbs 

   => Loading Basis Set <=

    Name: CC-PV(T+D)Z
    Role: ORBITAL
    Keyword: BASIS
    atoms 1   entry C          line   195 file /work/zw18965/.conda/envs/p4env/share/psi4/basis/cc-pv_tpd_z.gbs 
    atoms 2-3 entry F          line   309 file /work/zw18965/.conda/envs/p4env/share/psi4/basis/cc-pv_tpd_z.gbs 

  Reading orbitals from file 180, no projection.

  ==> Pre-Iterations <==

   -------------------------------------------------------
    Irrep   Nso     Nmo     Nalpha   Nbeta   Ndocc  Nsocc
   -------------------------------------------------------
     A1        33      33       0       0       0       0
     A2        13      13       0       0       0       0
     B1        17      17       0       0       0       0
     B2        27      27       0       0       0       0
   -------------------------------------------------------
    Total      90      90      12      12      12       0
   -------------------------------------------------------

  ==> Integral Setup <==

  ==> DiskDFJK: Density-Fitted J/K Matrices <==

    J tasked:                  Yes
    K tasked:                  Yes
    wK tasked:                 Yes
    Omega:               3.000E-01
    OpenMP threads:             24
    Integrals threads:          24
    Memory [MiB]:           102847
    Algorithm:                Core
    Integral Cache:           NONE
    Schwarz Cutoff:          1E-12
    Fitting Condition:       1E-10

   => Auxiliary Basis Set <=

  Basis Set: (CC-PV(T+D)Z AUX)
    Blend: CC-PVTZ-JKFIT
    Number of shells: 75
    Number of basis function: 237
    Number of Cartesian functions: 288
    Spherical Harmonics?: true
    Max angular momentum: 4

  Cached 100.0% of DFT collocation blocks in 0.145 [GiB].

  Minimum eigenvalue in the overlap matrix is 6.1806891027E-03.
  Using Symmetric Orthogonalization.

  SCF Guess: Orbitals guess was supplied from a previous computation.

  ==> Iterations <==

                           Total Energy        Delta E     RMS |[F,P]|

   @DF-RKS iter   0:  -237.71357218684275   -2.37714e+02   5.42124e-05 
   @DF-RKS iter   1:  -237.71449640942615   -9.24223e-04   1.35020e-05 DIIS
   @DF-RKS iter   2:  -237.71449644646222   -3.70361e-08   1.40827e-05 DIIS
   @DF-RKS iter   3:  -237.71449656165103   -1.15189e-07   1.21260e-06 DIIS
   @DF-RKS iter   4:  -237.71449656296809   -1.31706e-09   3.32843e-07 DIIS
   @DF-RKS iter   5:  -237.71449656312504   -1.56945e-10   9.27113e-08 DIIS
   @DF-RKS iter   6:  -237.71449656313490   -9.86233e-12   1.24711e-08 DIIS
   @DF-RKS iter   7:  -237.71449656313513   -2.27374e-13   2.48339e-09 DIIS
  Energy and wave function converged.


  ==> Post-Iterations <==

    Orbital Energies [Eh]
    ---------------------

    Doubly Occupied:                                                      

       1B2   -24.840105     1A1   -24.840094     2A1   -10.475701  
       3A1    -1.471557     2B2    -1.393173     4A1    -0.830957  
       3B2    -0.718483     1B1    -0.675698     5A1    -0.670640  
       1A2    -0.593023     4B2    -0.566646     6A1    -0.416130  

    Virtual:                                                              

       2B1     0.015448     5B2     0.226001     7A1     0.250589  
       3B1     0.369705     8A1     0.399122     9A1     0.436011  
       6B2     0.447150     7B2     0.697921    10A1     0.745065  
       4B1     0.793278    11A1     0.805852     2A2     0.828343  
       3A2     0.907053     5B1     0.953713    12A1     0.985367  
       8B2     0.994272    13A1     1.054775     9B2     1.244997  
      10B2     1.556759    14A1     1.626781     6B1     1.907833  
      15A1     1.974078     7B1     1.974430     4A2     2.009439  
      11B2     2.029906    16A1     2.147816    12B2     2.217875  
       5A2     2.245732     8B1     2.342624    13B2     2.462490  
      17A1     2.535979    18A1     2.562590    14B2     2.621112  
       9B1     2.944261     6A2     3.068607    19A1     3.075804  
      10B1     3.095787    20A1     3.143106    21A1     3.349033  
      15B2     3.370498    11B1     3.416220    22A1     3.498568  
       7A2     3.505597    16B2     3.557900    17B2     3.713957  
      23A1     4.681274    12B1     4.794735     8A2     4.804995  
      18B2     4.862627    24A1     4.897870    19B2     6.024377  
       9A2     6.885714    20B2     6.896988    13B1     6.901882  
      25A1     6.903044    10A2     6.903066    21B2     6.944241  
      26A1     7.003461    27A1     7.006522    14B1     7.119137  
      15B1     7.246604    22B2     7.330103    28A1     7.346197  
      11A2     7.360429    23B2     7.597042    29A1     7.954731  
      12A2     8.324878    30A1     8.358402    16B1     8.385919  
      24B2     8.400166    25B2     8.806855    13A2     8.815948  
      17B1     8.845464    31A1     8.983674    26B2     9.095738  
      32A1     9.531398    27B2    11.043349    33A1    11.190840  

    Final Occupation by Irrep:
             A1    A2    B1    B2 
    DOCC [     6,    1,    1,    4 ]

  @DF-RKS Final Energy:  -237.71449656313513

   => Energetics <=

    Nuclear Repulsion Energy =             64.7523165184307459
    One-Electron Energy =                -457.2559741760072143
    Two-Electron Energy =                 173.5282740205810512
    DFT Exchange-Correlation Energy =     -18.8397455598697157
    Empirical Dispersion Energy =           0.0000000000000000
    VV10 Nonlocal Energy =                  0.1006326337300128
    Total Energy =                       -237.7144965631351283

Computation Completed


Properties will be evaluated at   0.000000,   0.000000,   0.000000 [a0]

Properties computed using the SCF density matrix

  Nuclear Dipole Moment: [e a0]
     X:    -0.0000      Y:    -0.0000      Z:    -0.3608

  Electronic Dipole Moment: [e a0]
     X:     0.0000      Y:     0.0000      Z:     0.6185

  Dipole Moment: [e a0]
     X:    -0.0000      Y:    -0.0000      Z:     0.2577     Total:     0.2577

  Dipole Moment: [D]
     X:    -0.0000      Y:    -0.0000      Z:     0.6550     Total:     0.6550


*** tstop() called on bp1-compute00139.data.bp.acrc.priv at Tue Apr 27 17:36:15 2021
Module time:
	user time   =      47.41 seconds =       0.79 minutes
	system time =       1.64 seconds =       0.03 minutes
	total time  =          2 seconds =       0.03 minutes
Total time:
	user time   =     416.61 seconds =       6.94 minutes
[...]
      17B1     8.844313    31A1     8.982532    26B2     9.096161  
      32A1     9.531237    27B2    11.037975    33A1    11.183779  

    Final Occupation by Irrep:
             A1    A2    B1    B2 
    DOCC [     6,    1,    1,    4 ]

  @DF-RKS Final Energy:  -237.71449825088592

   => Energetics <=

    Nuclear Repulsion Energy =             64.6995155982774008
    One-Electron Energy =                -457.1554829722946920
    Two-Electron Energy =                 173.4795771367406587
    DFT Exchange-Correlation Energy =     -18.8387435440819644
    Empirical Dispersion Energy =           0.0000000000000000
    VV10 Nonlocal Energy =                  0.1006355304726728
    Total Energy =                       -237.7144982508859243

Computation Completed


Properties will be evaluated at   0.000000,   0.000000,   0.000000 [a0]

Properties computed using the SCF density matrix

  Nuclear Dipole Moment: [e a0]
     X:     0.0000      Y:     0.0000      Z:    -0.3612

  Electronic Dipole Moment: [e a0]
     X:     0.0000      Y:     0.0000      Z:     0.6165

  Dipole Moment: [e a0]
     X:     0.0000      Y:     0.0000      Z:     0.2553     Total:     0.2553

  Dipole Moment: [D]
     X:     0.0000      Y:     0.0000      Z:     0.6488     Total:     0.6488


*** tstop() called on bp1-compute00139.data.bp.acrc.priv at Tue Apr 27 17:37:23 2021
Module time:
	user time   =      67.19 seconds =       1.12 minutes
	system time =       1.79 seconds =       0.03 minutes
	total time  =          3 seconds =       0.05 minutes
Total time:
	user time   =    1982.45 seconds =      33.04 minutes
	system time =      61.92 seconds =       1.03 minutes
	total time  =         86 seconds =       1.43 minutes

  //>>>>>>>>>>>>>>>>>>>>>>>>>>>>>>>>>>>//
  //    Loading displacement 8 of 8    //
  //<<<<<<<<<<<<<<<<<<<<<<<<<<<<<<<<<<<//

*** tstart() called on bp1-compute00139.data.bp.acrc.priv
*** at Tue Apr 27 17:37:23 2021

   => Loading Basis Set <=

    Name: CC-PV(T+D)Z
    Role: ORBITAL
    Keyword: BASIS
    atoms 1   entry C          line   195 file /work/zw18965/.conda/envs/p4env/share/psi4/basis/cc-pv_tpd_z.gbs 
    atoms 2-3 entry F          line   309 file /work/zw18965/.conda/envs/p4env/share/psi4/basis/cc-pv_tpd_z.gbs 


         ---------------------------------------------------------
                                   SCF
               by Justin Turney, Rob Parrish, Andy Simmonett
                          and Daniel G. A. Smith
                              RKS Reference
                       24 Threads, 137329 MiB Core
         ---------------------------------------------------------

  ==> Geometry <==

    Molecular point group: cs
    Full point group: Cs

    Geometry (in Angstrom), charge = 0, multiplicity = 1:

       Center              X                  Y                   Z               Mass       
    ------------   -----------------  -----------------  -----------------  -----------------
         C            0.000000000000    -0.000622633558    -0.605584111304    12.000000000000
         F            0.000000000000     1.030122004759     0.191405296972    18.998403162730
         F            0.000000000000    -1.029728729460     0.191101025976    18.998403162730

  Running in cs symmetry.

  Rotational constants: A =      2.91120  B =      0.41825  C =      0.36571 [cm^-1]
  Rotational constants: A =  87275.44723  B =  12538.87243  C =  10963.71445 [MHz]
  Nuclear repulsion =   64.697490018975955

  Charge       = 0
  Multiplicity = 1
  Electrons    = 24
  Nalpha       = 12
  Nbeta        = 12

  ==> Algorithm <==

  SCF Algorithm Type is DF.
  DIIS enabled.
  MOM disabled.
  Fractional occupation disabled.
  Guess Type is SAD.
  Energy threshold   = 1.00e-10
  Density threshold  = 1.00e-10
  Integral threshold = 0.00e+00

  ==> Primary Basis <==

  Basis Set: CC-PV(T+D)Z
    Blend: CC-PV(T+D)Z
    Number of shells: 30
    Number of basis function: 90
    Number of Cartesian functions: 105
    Spherical Harmonics?: true
    Max angular momentum: 3

  ==> DFT Potential <==

   => Composite Functional: WB97X-V <= 

    wB97X-V Hyb-GGA Exchange-Correlation Functional

    N. Mardirossian and M. Head-Gordon, Phys. Chem. Chem. Phys. 16, 9904 (2014)

    Deriv               =              1
    GGA                 =           TRUE
    Meta                =          FALSE

    Exchange Hybrid     =           TRUE
    MP2 Hybrid          =          FALSE

   => Exchange-Correlation Functionals <=

    1.0000   wB97X-V range-separated functional

   => Exact (HF) Exchange <=

    0.8330            HF,LR [omega = 0.3000]
    0.1670               HF 

   => VV10 Non-Local Parameters <=

    VV10 B              =     6.0000E+00
    VV10 C              =     1.0000E-02

   => Molecular Quadrature <=

    Radial Scheme          =       TREUTLER
    Pruning Scheme         =           FLAT
    Nuclear Scheme         =       TREUTLER

    BS radius alpha        =              1
    Pruning alpha          =              1
    Radial Points          =             75
    Spherical Points       =            302
    Total Points           =          65499
    Total Blocks           =            560
    Max Points             =            255
    Max Functions          =             90

   => Loading Basis Set <=

    Name: (CC-PV(T+D)Z AUX)
    Role: JKFIT
    Keyword: DF_BASIS_SCF
    atoms 1   entry C          line   125 file /work/zw18965/.conda/envs/p4env/share/psi4/basis/cc-pvtz-jkfit.gbs 
    atoms 2-3 entry F          line   281 file /work/zw18965/.conda/envs/p4env/share/psi4/basis/cc-pvtz-jkfit.gbs 

  ==> Pre-Iterations <==

   -------------------------------------------------------
    Irrep   Nso     Nmo     Nalpha   Nbeta   Ndocc  Nsocc
   -------------------------------------------------------
     A'        60      60       0       0       0       0
     A"        30      30       0       0       0       0
   -------------------------------------------------------
    Total      90      90      12      12      12       0
   -------------------------------------------------------

  ==> Integral Setup <==

  ==> DiskDFJK: Density-Fitted J/K Matrices <==

    J tasked:                  Yes
    K tasked:                  Yes
    wK tasked:                 Yes
    Omega:               3.000E-01
    OpenMP threads:             24
    Integrals threads:          24
    Memory [MiB]:           102847
    Algorithm:                Core
    Integral Cache:           NONE
    Schwarz Cutoff:          1E-12
    Fitting Condition:       1E-10

   => Auxiliary Basis Set <=

  Basis Set: (CC-PV(T+D)Z AUX)
    Blend: CC-PVTZ-JKFIT
    Number of shells: 75
    Number of basis function: 237
    Number of Cartesian functions: 288
    Spherical Harmonics?: true
    Max angular momentum: 4

  Cached 100.0% of DFT collocation blocks in 0.146 [GiB].

  Minimum eigenvalue in the overlap matrix is 6.1964240939E-03.
  Using Symmetric Orthogonalization.

  SCF Guess: Superposition of Atomic Densities via on-the-fly atomic UHF.

  ==> Iterations <==

                           Total Energy        Delta E     RMS |[F,P]|

   @DF-RKS iter SAD:  -237.21084201616719   -2.37211e+02   0.00000e+00 
   @DF-RKS iter   1:  -237.68258189256659   -4.71740e-01   4.73054e-03 DIIS
   @DF-RKS iter   2:  -237.69138846303159   -8.80657e-03   4.49276e-03 DIIS
   @DF-RKS iter   3:  -237.71403132746366   -2.26429e-02   5.45371e-04 DIIS
   @DF-RKS iter   4:  -237.71447572882659   -4.44401e-04   7.58696e-05 DIIS
   @DF-RKS iter   5:  -237.71449733857028   -2.16097e-05   1.39731e-05 DIIS
   @DF-RKS iter   6:  -237.71449811955060   -7.80980e-07   5.79654e-06 DIIS
   @DF-RKS iter   7:  -237.71449817855211   -5.90015e-08   3.21436e-06 DIIS
   @DF-RKS iter   8:  -237.71449819375408   -1.52020e-08   5.44234e-07 DIIS
   @DF-RKS iter   9:  -237.71449819453670   -7.82620e-10   8.28578e-08 DIIS
   @DF-RKS iter  10:  -237.71449819456822   -3.15197e-11   1.95400e-08 DIIS
   @DF-RKS iter  11:  -237.71449819457004   -1.81899e-12   3.04056e-09 DIIS
   @DF-RKS iter  12:  -237.71449819457013   -8.52651e-14   5.32113e-10 DIIS
   @DF-RKS iter  13:  -237.71449819457027   -1.42109e-13   7.61647e-11 DIIS
  Energy and wave function converged.


  ==> Post-Iterations <==

    Orbital Energies [Eh]
    ---------------------

    Doubly Occupied:                                                      

       1Ap   -24.840411     2Ap   -24.839749     3Ap   -10.476017  
       4Ap    -1.470960     5Ap    -1.392969     6Ap    -0.830831  
       7Ap    -0.718268     1App   -0.675338     8Ap    -0.670304  
       2App   -0.592931     9Ap    -0.566717    10Ap    -0.416250  

    Virtual:                                                              

       3App    0.015105    11Ap     0.225796    12Ap     0.250197  
       4App    0.369750    13Ap     0.399039    14Ap     0.435094  
      15Ap     0.446712    16Ap     0.698122    17Ap     0.744986  
       5App    0.792999    18Ap     0.805666     6App    0.828165  
       7App    0.907066     8App    0.953783    19Ap     0.984787  
      20Ap     0.994078    21Ap     1.054706    22Ap     1.244747  
      23Ap     1.556747    24Ap     1.627538     9App    1.907873  
      10App    1.974330    25Ap     1.974430    11App    2.008720  
      26Ap     2.029820    27Ap     2.147876    28Ap     2.215757  
      12App    2.245557    13App    2.342355    29Ap     2.461923  
      30Ap     2.536062    31Ap     2.561582    32Ap     2.620732  
      14App    2.943354    15App    3.068398    33Ap     3.075334  
      16App    3.095307    34Ap     3.142258    35Ap     3.347862  
      36Ap     3.369273    17App    3.415510    37Ap     3.497880  
      18App    3.504693    38Ap     3.557636    39Ap     3.712281  
      40Ap     4.679783    19App    4.793936    20App    4.804310  
      41Ap     4.862733    42Ap     4.894904    43Ap     6.023147  
      21App    6.885870    44Ap     6.897080    22App    6.901938  
      45Ap     6.903170    23App    6.903254    46Ap     6.944162  
      47Ap     7.002557    48Ap     7.003200    24App    7.117837  
      25App    7.245839    49Ap     7.329625    50Ap     7.342717  
      26App    7.359022    51Ap     7.595683    52Ap     7.952170  
      27App    8.324573    53Ap     8.358513    28App    8.385807  
      54Ap     8.399536    55Ap     8.805560    29App    8.815244  
      30App    8.844356    56Ap     8.982878    57Ap     9.096166  
      58Ap     9.531256    59Ap    11.037731    60Ap    11.186141  

    Final Occupation by Irrep:
             Ap   App 
    DOCC [    10,    2 ]

  @DF-RKS Final Energy:  -237.71449819457027

   => Energetics <=

    Nuclear Repulsion Energy =             64.6974900189759552
    One-Electron Energy =                -457.1498213342759982
    Two-Electron Energy =                 173.4760317996966990
    DFT Exchange-Correlation Energy =     -18.8388349288137888
    Empirical Dispersion Energy =           0.0000000000000000
    VV10 Nonlocal Energy =                  0.1006362498468905
    Total Energy =                       -237.7144981945702398

Computation Completed


Properties will be evaluated at   0.000000,   0.000000,   0.000000 [a0]

Properties computed using the SCF density matrix

  Nuclear Dipole Moment: [e a0]
     X:     0.0000      Y:    -0.0004      Z:    -0.3608

  Electronic Dipole Moment: [e a0]
     X:     0.0000      Y:    -0.0027      Z:     0.6174

  Dipole Moment: [e a0]
     X:     0.0000      Y:    -0.0031      Z:     0.2565     Total:     0.2566

  Dipole Moment: [D]
     X:     0.0000      Y:    -0.0078      Z:     0.6521     Total:     0.6521


*** tstop() called on bp1-compute00139.data.bp.acrc.priv at Tue Apr 27 17:37:26 2021
Module time:
	user time   =      68.76 seconds =       1.15 minutes
	system time =       1.79 seconds =       0.03 minutes
	total time  =          3 seconds =       0.05 minutes
Total time:
	user time   =    2051.34 seconds =      34.19 minutes
	system time =      63.72 seconds =       1.06 minutes
	total time  =         89 seconds =       1.48 minutes

         ----------------------------------------------------------
                                   FINDIF
                     R. A. King and Jonathon Misiewicz
         ---------------------------------------------------------

  Computing second-derivative from energies using projected, 
  symmetry-adapted, cartesian coordinates.

  8 energies passed in, including the reference geometry.
    Using 3-point formula.
    Energy without displacement: -237.7144988315
    Check energies below for precision!
    0: -1        :      -237.7144981598
    0: 1         :      -237.7144981575
    1: -1        :      -237.7144985280
    1: 1         :      -237.7144985276
    0: 1, 1: 1   :      -237.7144982492
    0: -1, 1: -1 :      -237.7144982509
    2: -1        :      -237.7144981946

-------------------------------------------------------------


  ==> Harmonic Vibrational Analysis <==

  non-mass-weighted Hessian:       Symmetric? True   Hermitian? True   Lin Dep Dim?  6 (0)
  projection of translations (True) and rotations (True) removed 6 degrees of freedom (6)
  total projector:                 Symmetric? True   Hermitian? True   Lin Dep Dim?  6 (6)
  mass-weighted Hessian:           Symmetric? True   Hermitian? True   Lin Dep Dim?  6 (0)
  pre-proj  low-frequency mode:    0.0000i [cm^-1]
  pre-proj  low-frequency mode:    0.0000i [cm^-1]
  pre-proj  low-frequency mode:    0.0000i [cm^-1]
  pre-proj  low-frequency mode:    0.0000  [cm^-1]
  pre-proj  low-frequency mode:    0.0000  [cm^-1]
  pre-proj  low-frequency mode:    0.0000  [cm^-1]
  pre-proj  all modes:['0.0000i' '0.0000i' '0.0000i' '0.0000' '0.0000' '0.0000' '678.6651'
 '1160.3248' '1266.3039']
  projected mass-weighted Hessian: Symmetric? True   Hermitian? True   Lin Dep Dim?  6 (6)
  post-proj low-frequency mode:    0.0000i [cm^-1] (TR)
  post-proj low-frequency mode:    0.0000i [cm^-1] (TR)
  post-proj low-frequency mode:    0.0000i [cm^-1] (TR)
  post-proj low-frequency mode:    0.0000i [cm^-1] (TR)
  post-proj low-frequency mode:    0.0000  [cm^-1] (TR)
  post-proj low-frequency mode:    0.0000  [cm^-1] (TR)
  post-proj  all modes:['0.0000i' '0.0000i' '0.0000i' '0.0000i' '0.0000' '0.0000' '678.6651'
 '1160.3248' '1266.3039']

  Vibration                       7                   8                   9           
  Freq [cm^-1]                 678.6651           1160.3248           1266.3039       
  Irrep                           A1                  B2                  A1          
  Reduced mass [u]             17.7505             13.6921             13.8380        
  Force const [mDyne/A]         4.8169             10.8612             13.0737        
  Turning point v=0 [a0]        0.1000              0.0871              0.0829        
  RMS dev v=0 [a0 u^1/2]        0.2978              0.2278              0.2180        
  Char temp [K]                976.4480           1669.4490           1821.9294       
  ----------------------------------------------------------------------------------
      1   C                0.00  0.00  0.42   -0.00  0.87  0.00   -0.00 -0.00  0.86   
      2   F               -0.00  0.63 -0.13   -0.00 -0.27 -0.21   -0.00 -0.24 -0.27   
      3   F               -0.00 -0.63 -0.13    0.00 -0.27  0.21    0.00  0.24 -0.27   

  ==> Thermochemistry Components <==

  Entropy, S
    Electronic S            0.000 [cal/(mol K)]        0.000 [J/(mol K)]       0.00000000 [mEh/K] (multiplicity = 1)
    Translational S        37.652 [cal/(mol K)]      157.535 [J/(mol K)]       0.06000175 [mEh/K] (mol. weight = 49.9968 [u], P = 101325.00 [Pa])
    Rotational S           19.444 [cal/(mol K)]       81.352 [J/(mol K)]       0.03098545 [mEh/K] (symmetry no. = 2)
    Vibrational S           0.413 [cal/(mol K)]        1.726 [J/(mol K)]       0.00065736 [mEh/K]
  Total S                  57.508 [cal/(mol K)]      240.613 [J/(mol K)]       0.09164455 [mEh/K]
  Correction S              0.000 [cal/(mol K)]        0.000 [J/(mol K)]       0.00000000 [mEh/K]

  Constant volume heat capacity, Cv
    Electronic Cv           0.000 [cal/(mol K)]        0.000 [J/(mol K)]       0.00000000 [mEh/K]
    Translational Cv        2.981 [cal/(mol K)]       12.472 [J/(mol K)]       0.00475022 [mEh/K]
    Rotational Cv           2.981 [cal/(mol K)]       12.472 [J/(mol K)]       0.00475022 [mEh/K]
    Vibrational Cv          1.268 [cal/(mol K)]        5.306 [J/(mol K)]       0.00202110 [mEh/K]
  Total Cv                  7.230 [cal/(mol K)]       30.250 [J/(mol K)]       0.01152154 [mEh/K]
  Correction Cv             0.000 [cal/(mol K)]        0.000 [J/(mol K)]       0.00000000 [mEh/K]

  Constant pressure heat capacity, Cp
    Electronic Cp           0.000 [cal/(mol K)]        0.000 [J/(mol K)]       0.00000000 [mEh/K]
    Translational Cp        4.968 [cal/(mol K)]       20.786 [J/(mol K)]       0.00791703 [mEh/K]
    Rotational Cp           2.981 [cal/(mol K)]       12.472 [J/(mol K)]       0.00475022 [mEh/K]
    Vibrational Cp          1.268 [cal/(mol K)]        5.306 [J/(mol K)]       0.00202110 [mEh/K]
  Total Cp                  9.217 [cal/(mol K)]       38.564 [J/(mol K)]       0.01468835 [mEh/K]
  Correction Cp             0.000 [cal/(mol K)]        0.000 [J/(mol K)]       0.00000000 [mEh/K]

  ==> Thermochemistry Energy Analysis <==

  Raw electronic energy, E0
  Total E0, Electronic energy at well bottom at 0 [K]                 -237.71449883 [Eh]

  Zero-point energy, ZPE_vib = Sum_i nu_i / 2
    Electronic ZPE          0.000 [kcal/mol]        0.000 [kJ/mol]       0.00000000 [Eh]
    Translational ZPE       0.000 [kcal/mol]        0.000 [kJ/mol]       0.00000000 [Eh]
    Rotational ZPE          0.000 [kcal/mol]        0.000 [kJ/mol]       0.00000000 [Eh]
    Vibrational ZPE         4.439 [kcal/mol]       18.574 [kJ/mol]       0.00707438 [Eh]        1552.647 [cm^-1]
  Correction ZPE            4.439 [kcal/mol]       18.574 [kJ/mol]       0.00707438 [Eh]        1552.647 [cm^-1]
  Total ZPE, Electronic energy at 0 [K]                               -237.70742445 [Eh]

  Thermal Energy, E (includes ZPE)
    Electronic E            0.000 [kcal/mol]        0.000 [kJ/mol]       0.00000000 [Eh]
    Translational E         0.889 [kcal/mol]        3.718 [kJ/mol]       0.00141628 [Eh]
    Rotational E            0.889 [kcal/mol]        3.718 [kJ/mol]       0.00141628 [Eh]
    Vibrational E           4.536 [kcal/mol]       18.978 [kJ/mol]       0.00722838 [Eh]
  Correction E              6.313 [kcal/mol]       26.415 [kJ/mol]       0.01006093 [Eh]
  Total E, Electronic energy at  298.15 [K]                           -237.70443790 [Eh]

  Enthalpy, H_trans = E_trans + k_B * T
    Electronic H            0.000 [kcal/mol]        0.000 [kJ/mol]       0.00000000 [Eh]
    Translational H         1.481 [kcal/mol]        6.197 [kJ/mol]       0.00236046 [Eh]
    Rotational H            0.889 [kcal/mol]        3.718 [kJ/mol]       0.00141628 [Eh]
    Vibrational H           4.536 [kcal/mol]       18.978 [kJ/mol]       0.00722838 [Eh]
  Correction H              6.906 [kcal/mol]       28.894 [kJ/mol]       0.01100512 [Eh]
  Total H, Enthalpy at  298.15 [K]                                    -237.70349372 [Eh]

  Gibbs free energy, G = H - T * S
    Electronic G            0.000 [kcal/mol]        0.000 [kJ/mol]       0.00000000 [Eh]
    Translational G        -9.745 [kcal/mol]      -40.772 [kJ/mol]      -0.01552906 [Eh]
    Rotational G           -4.908 [kcal/mol]      -20.537 [kJ/mol]      -0.00782203 [Eh]
    Vibrational G           4.413 [kcal/mol]       18.464 [kJ/mol]       0.00703238 [Eh]
  Correction G            -10.240 [kcal/mol]      -42.845 [kJ/mol]      -0.01631871 [Eh]
  Total G, Free enthalpy at  298.15 [K]                               -237.73081754 [Eh]

    Psi4 stopped on: Tuesday, 27 April 2021 05:37PM
    Psi4 wall time for execution: 0:01:29.79

*** Psi4 exiting successfully. Buy a developer a beer!
