
    -----------------------------------------------------------------------
          Psi4: An Open-Source Ab Initio Electronic Structure Package
                               Psi4 1.3.2 release

                         Git: Rev {HEAD} ecbda83 


    R. M. Parrish, L. A. Burns, D. G. A. Smith, A. C. Simmonett,
    A. E. DePrince III, E. G. Hohenstein, U. Bozkaya, A. Yu. Sokolov,
    R. Di Remigio, R. M. Richard, J. F. Gonthier, A. M. James,
    H. R. McAlexander, A. Kumar, M. Saitow, X. Wang, B. P. Pritchard,
    P. Verma, H. F. Schaefer III, K. Patkowski, R. A. King, E. F. Valeev,
    F. A. Evangelista, J. M. Turney, T. D. Crawford, and C. D. Sherrill,
    J. Chem. Theory Comput. 13(7) pp 3185--3197 (2017).
    (doi: 10.1021/acs.jctc.7b00174)


                         Additional Contributions by
    P. Kraus, H. Kruse, M. H. Lechner, M. C. Schieber, R. A. Shaw,
    A. Alenaizan, R. Galvelis, Z. L. Glick, S. Lehtola, and J. P. Misiewicz

    -----------------------------------------------------------------------


    Psi4 started on: Tuesday, 27 April 2021 05:37PM

    Process ID: 185675
    Host:       bp1-compute00116.data.bp.acrc.priv
    PSIDATADIR: /work/zw18965/.conda/envs/p4env/share/psi4
    Memory:     500.0 MiB
    Threads:    24
    
  ==> Input File <==

--------------------------------------------------------------------------
memory 144 GB

molecule {
0 1
Cl 0.0000000000 0.0000000000 0.0000000000
Cl 0.0000000000 0.0000000000 1.9965761200
}

set dynamic_level 1
set basis cc-pV(T+d)Z
 
optimize("wB97X-V")
frequencies("wB97X-V")
--------------------------------------------------------------------------

  Memory set to 134.110 GiB by Python driver.
gradient() will perform gradient computation by finite difference of analytic energies.

         ----------------------------------------------------------
                                   FINDIF
                     R. A. King and Jonathon Misiewicz
         ---------------------------------------------------------

  Using finite-differences of energies to determine gradients.
    Generating geometries for use with 3-point formula.
    Displacement size will be 5.00e-03.
    Number of atoms is 2.
    Number of symmetric SALCs is 1.
    Translations projected? 1. Rotations projected? 1.
    Number of geometries (including reference) is 3.

  //>>>>>>>>>>>>>>>>>>>>>>>>>>>>>>>>>>>//
  //    Loading displacement 1 of 3    //
  //<<<<<<<<<<<<<<<<<<<<<<<<<<<<<<<<<<<//

*** tstart() called on bp1-compute00116.data.bp.acrc.priv
*** at Tue Apr 27 17:37:00 2021

   => Loading Basis Set <=

    Name: CC-PV(T+D)Z
    Role: ORBITAL
    Keyword: BASIS
    atoms 1-2 entry CL         line   864 file /work/zw18965/.conda/envs/p4env/share/psi4/basis/cc-pv_tpd_z.gbs 


         ---------------------------------------------------------
                                   SCF
               by Justin Turney, Rob Parrish, Andy Simmonett
                          and Daniel G. A. Smith
                              RKS Reference
                       24 Threads, 137329 MiB Core
         ---------------------------------------------------------

  ==> Geometry <==

    Molecular point group: d2h
    Full point group: D_inf_h

    Geometry (in Angstrom), charge = 0, multiplicity = 1:

       Center              X                  Y                   Z               Mass       
    ------------   -----------------  -----------------  -----------------  -----------------
         CL           0.000000000000     0.000000000000    -0.998288060000    34.968852682000
         CL           0.000000000000     0.000000000000     0.998288060000    34.968852682000

  Running in d2h symmetry.

  Rotational constants: A = ************  B =      0.24187  C =      0.24187 [cm^-1]
  Rotational constants: A = ************  B =   7250.93591  C =   7250.93591 [MHz]
  Nuclear repulsion =   76.597236815408763

  Charge       = 0
  Multiplicity = 1
  Electrons    = 34
  Nalpha       = 17
  Nbeta        = 17

  ==> Algorithm <==

  SCF Algorithm Type is DF.
  DIIS enabled.
  MOM disabled.
  Fractional occupation disabled.
  Guess Type is SAD.
  Energy threshold   = 1.00e-08
  Density threshold  = 1.00e-08
  Integral threshold = 0.00e+00

  ==> Primary Basis <==

  Basis Set: CC-PV(T+D)Z
    Blend: CC-PV(T+D)Z
    Number of shells: 26
    Number of basis function: 78
    Number of Cartesian functions: 90
    Spherical Harmonics?: true
    Max angular momentum: 3

  ==> DFT Potential <==

   => Composite Functional: WB97X-V <= 

    wB97X-V Hyb-GGA Exchange-Correlation Functional

    N. Mardirossian and M. Head-Gordon, Phys. Chem. Chem. Phys. 16, 9904 (2014)

    Deriv               =              1
    GGA                 =           TRUE
    Meta                =          FALSE

    Exchange Hybrid     =           TRUE
    MP2 Hybrid          =          FALSE

   => Exchange-Correlation Functionals <=

    1.0000   wB97X-V range-separated functional

   => Exact (HF) Exchange <=

    0.8330            HF,LR [omega = 0.3000]
    0.1670               HF 

   => VV10 Non-Local Parameters <=

    VV10 B              =     6.0000E+00
    VV10 C              =     1.0000E-02

   => Molecular Quadrature <=

    Radial Scheme          =       TREUTLER
    Pruning Scheme         =           FLAT
    Nuclear Scheme         =       TREUTLER

    BS radius alpha        =              1
    Pruning alpha          =              1
    Radial Points          =             75
    Spherical Points       =            302
    Total Points           =          42114
    Total Blocks           =            378
    Max Points             =            254
    Max Functions          =             78

   => Loading Basis Set <=

    Name: (CC-PV(T+D)Z AUX)
    Role: JKFIT
    Keyword: DF_BASIS_SCF
    atoms 1-2 entry CL         line   689 file /work/zw18965/.conda/envs/p4env/share/psi4/basis/cc-pvtz-jkfit.gbs 

  ==> Pre-Iterations <==

   -------------------------------------------------------
    Irrep   Nso     Nmo     Nalpha   Nbeta   Ndocc  Nsocc
   -------------------------------------------------------
     Ag        17      17       0       0       0       0
     B1g        4       4       0       0       0       0
     B2g        9       9       0       0       0       0
     B3g        9       9       0       0       0       0
     Au         4       4       0       0       0       0
     B1u       17      17       0       0       0       0
     B2u        9       9       0       0       0       0
     B3u        9       9       0       0       0       0
   -------------------------------------------------------
    Total      78      78      17      17      17       0
   -------------------------------------------------------

  ==> Integral Setup <==

  ==> DiskDFJK: Density-Fitted J/K Matrices <==

    J tasked:                  Yes
    K tasked:                  Yes
    wK tasked:                 Yes
    Omega:               3.000E-01
    OpenMP threads:             24
    Integrals threads:          24
    Memory [MiB]:           102908
    Algorithm:                Core
    Integral Cache:           NONE
    Schwarz Cutoff:          1E-12
    Fitting Condition:       1E-10

   => Auxiliary Basis Set <=

  Basis Set: (CC-PV(T+D)Z AUX)
    Blend: CC-PVTZ-JKFIT
    Number of shells: 74
    Number of basis function: 242
    Number of Cartesian functions: 290
    Spherical Harmonics?: true
    Max angular momentum: 4

  Cached 100.0% of DFT collocation blocks in 0.086 [GiB].

  Minimum eigenvalue in the overlap matrix is 6.6897271963E-03.
  Using Symmetric Orthogonalization.

  SCF Guess: Superposition of Atomic Densities via on-the-fly atomic UHF.

  ==> Iterations <==

                           Total Energy        Delta E     RMS |[F,P]|

   @DF-RKS iter SAD:  -920.13237158700542   -9.20132e+02   0.00000e+00 
   @DF-RKS iter   1:  -920.25023510431242   -1.17864e-01   7.20080e-03 DIIS
   @DF-RKS iter   2:  -920.26313882340787   -1.29037e-02   3.93195e-03 DIIS
   @DF-RKS iter   3:  -920.26698636453636   -3.84754e-03   4.80997e-04 DIIS
   @DF-RKS iter   4:  -920.26708233792158   -9.59734e-05   1.49726e-04 DIIS
   @DF-RKS iter   5:  -920.26709466990860   -1.23320e-05   2.07234e-05 DIIS
   @DF-RKS iter   6:  -920.26709509364730   -4.23739e-07   2.08199e-06 DIIS
   @DF-RKS iter   7:  -920.26709509751640   -3.86910e-09   3.24826e-07 DIIS
   @DF-RKS iter   8:  -920.26709509759610   -7.96945e-11   4.26862e-08 DIIS
   @DF-RKS iter   9:  -920.26709509759701   -9.09495e-13   2.60654e-09 DIIS
  Energy and wave function converged.


  ==> Post-Iterations <==

    Orbital Energies [Eh]
    ---------------------

    Doubly Occupied:                                                      

       1B1u -101.604407     1Ag  -101.604402     2Ag    -9.617255  
       2B1u   -9.617215     3Ag    -7.377003     3B1u   -7.376862  
       1B2g   -7.362426     1B3g   -7.362426     1B3u   -7.362425  
       1B2u   -7.362425     4Ag    -1.066055     4B1u   -0.892811  
       5Ag    -0.570669     2B2u   -0.521529     2B3u   -0.521529  
       2B2g   -0.409508     2B3g   -0.409508  

    Virtual:                                                              

       5B1u   -0.028302     6Ag     0.321406     6B1u    0.367810  
       3B2u    0.370043     3B3u    0.370043     4B2u    0.418152  
       4B3u    0.418152     7Ag     0.452172     1B1g    0.452172  
       3B3g    0.459071     3B2g    0.459071     8Ag     0.467114  
       1Au     0.550857     7B1u    0.550857     8B1u    0.663523  
       9Ag     0.704226     4B3g    0.734643     4B2g    0.734643  
       9B1u    1.122082     2B1g    1.754389    10Ag     1.754391  
      11Ag     1.812793     5B2u    1.816473     5B3u    1.816473  
       2Au     1.842975    10B1u    1.842979     5B2g    1.906872  
       5B3g    1.906872     6B2u    1.911911     6B3u    1.911911  
      11B1u    1.922365     3B1g    2.030891    12Ag     2.030891  
       7B2u    2.149755     7B3u    2.149755     6B3g    2.190364  
       6B2g    2.190364     8B2u    2.287786     8B3u    2.287786  
      13Ag     2.288381    12B1u    2.305541     7B3g    2.320584  
       7B2g    2.320584    13B1u    2.324154     3Au     2.324155  
      14Ag     2.423772     8B3g    2.841020     8B2g    2.841020  
      14B1u    3.771274    15Ag     4.261815    15B1u    4.910410  
       4B1g    8.083699    16Ag     8.083751     9B3u    8.112744  
       9B2u    8.112744     4Au     8.127844    16B1u    8.127897  
       9B2g    8.186869     9B3g    8.186869    17B1u    8.201410  
      17Ag     8.314886  

    Final Occupation by Irrep:
             Ag   B1g   B2g   B3g    Au   B1u   B2u   B3u 
    DOCC [     5,    0,    2,    2,    0,    4,    2,    2 ]

  @DF-RKS Final Energy:  -920.26709509759701

   => Energetics <=

    Nuclear Repulsion Energy =             76.5972368154087633
    One-Electron Energy =               -1422.5375474546206078
    Two-Electron Energy =                 468.2288843630803399
    DFT Exchange-Correlation Energy =     -42.6980329631941231
    Empirical Dispersion Energy =           0.0000000000000000
    VV10 Nonlocal Energy =                  0.1423641417287630
    Total Energy =                       -920.2670950975968935

Computation Completed


Properties will be evaluated at   0.000000,   0.000000,   0.000000 [a0]

Properties computed using the SCF density matrix

  Nuclear Dipole Moment: [e a0]
     X:     0.0000      Y:     0.0000      Z:     0.0000

  Electronic Dipole Moment: [e a0]
     X:     0.0000      Y:     0.0000      Z:     0.0000

  Dipole Moment: [e a0]
     X:     0.0000      Y:     0.0000      Z:     0.0000     Total:     0.0000

  Dipole Moment: [D]
     X:     0.0000      Y:     0.0000      Z:     0.0000     Total:     0.0000


*** tstop() called on bp1-compute00116.data.bp.acrc.priv at Tue Apr 27 17:37:03 2021
Module time:
	user time   =      47.27 seconds =       0.79 minutes
	system time =       1.99 seconds =       0.03 minutes
	total time  =          3 seconds =       0.05 minutes
Total time:
	user time   =      47.27 seconds =       0.79 minutes
	system time =       1.99 seconds =       0.03 minutes
	total time  =          3 seconds =       0.05 minutes

  //>>>>>>>>>>>>>>>>>>>>>>>>>>>>>>>>>>>//
  //    Loading displacement 2 of 3    //
  //<<<<<<<<<<<<<<<<<<<<<<<<<<<<<<<<<<<//

*** tstart() called on bp1-compute00116.data.bp.acrc.priv
*** at Tue Apr 27 17:37:03 2021

   => Loading Basis Set <=

    Name: CC-PV(T+D)Z
    Role: ORBITAL
    Keyword: BASIS
    atoms 1-2 entry CL         line   864 file /work/zw18965/.conda/envs/p4env/share/psi4/basis/cc-pv_tpd_z.gbs 


         ---------------------------------------------------------
                                   SCF
               by Justin Turney, Rob Parrish, Andy Simmonett
                          and Daniel G. A. Smith
                              RKS Reference
                       24 Threads, 137329 MiB Core
         ---------------------------------------------------------

  ==> Geometry <==

    Molecular point group: d2h
    Full point group: D_inf_h

    Geometry (in Angstrom), charge = 0, multiplicity = 1:

       Center              X                  Y                   Z               Mass       
    ------------   -----------------  -----------------  -----------------  -----------------
         CL           0.000000000000     0.000000000000    -0.998604444681    34.968852682000
         CL           0.000000000000     0.000000000000     0.998604444681    34.968852682000

  Running in d2h symmetry.

  Rotational constants: A = ************  B =      0.24171  C =      0.24171 [cm^-1]
  Rotational constants: A = ************  B =   7246.34206  C =   7246.34206 [MHz]
  Nuclear repulsion =   76.572968755638541

  Charge       = 0
  Multiplicity = 1
  Electrons    = 34
  Nalpha       = 17
  Nbeta        = 17

  ==> Algorithm <==

  SCF Algorithm Type is DF.
  DIIS enabled.
  MOM disabled.
  Fractional occupation disabled.
  Guess Type is SAD.
  Energy threshold   = 1.00e-08
  Density threshold  = 1.00e-08
  Integral threshold = 0.00e+00

  ==> Primary Basis <==

  Basis Set: CC-PV(T+D)Z
    Blend: CC-PV(T+D)Z
    Number of shells: 26
    Number of basis function: 78
    Number of Cartesian functions: 90
    Spherical Harmonics?: true
    Max angular momentum: 3

  ==> DFT Potential <==

   => Composite Functional: WB97X-V <= 

    wB97X-V Hyb-GGA Exchange-Correlation Functional

    N. Mardirossian and M. Head-Gordon, Phys. Chem. Chem. Phys. 16, 9904 (2014)

    Deriv               =              1
    GGA                 =           TRUE
    Meta                =          FALSE

    Exchange Hybrid     =           TRUE
    MP2 Hybrid          =          FALSE

   => Exchange-Correlation Functionals <=

    1.0000   wB97X-V range-separated functional

   => Exact (HF) Exchange <=

    0.8330            HF,LR [omega = 0.3000]
    0.1670               HF 

   => VV10 Non-Local Parameters <=

    VV10 B              =     6.0000E+00
    VV10 C              =     1.0000E-02

   => Molecular Quadrature <=

    Radial Scheme          =       TREUTLER
    Pruning Scheme         =           FLAT
    Nuclear Scheme         =       TREUTLER

    BS radius alpha        =              1
    Pruning alpha          =              1
    Radial Points          =             75
    Spherical Points       =            302
    Total Points           =          42114
    Total Blocks           =            378
    Max Points             =            254
    Max Functions          =             78

   => Loading Basis Set <=

    Name: (CC-PV(T+D)Z AUX)
    Role: JKFIT
    Keyword: DF_BASIS_SCF
    atoms 1-2 entry CL         line   689 file /work/zw18965/.conda/envs/p4env/share/psi4/basis/cc-pvtz-jkfit.gbs 

  ==> Pre-Iterations <==

   -------------------------------------------------------
    Irrep   Nso     Nmo     Nalpha   Nbeta   Ndocc  Nsocc
   -------------------------------------------------------
     Ag        17      17       0       0       0       0
     B1g        4       4       0       0       0       0
     B2g        9       9       0       0       0       0
     B3g        9       9       0       0       0       0
     Au         4       4       0       0       0       0
     B1u       17      17       0       0       0       0
     B2u        9       9       0       0       0       0
     B3u        9       9       0       0       0       0
   -------------------------------------------------------
    Total      78      78      17      17      17       0
   -------------------------------------------------------

  ==> Integral Setup <==

  ==> DiskDFJK: Density-Fitted J/K Matrices <==

    J tasked:                  Yes
    K tasked:                  Yes
    wK tasked:                 Yes
    Omega:               3.000E-01
    OpenMP threads:             24
    Integrals threads:          24
    Memory [MiB]:           102908
    Algorithm:                Core
    Integral Cache:           NONE
    Schwarz Cutoff:          1E-12
    Fitting Condition:       1E-10

   => Auxiliary Basis Set <=

  Basis Set: (CC-PV(T+D)Z AUX)
    Blend: CC-PVTZ-JKFIT
    Number of shells: 74
    Number of basis function: 242
    Number of Cartesian functions: 290
    Spherical Harmonics?: true
    Max angular momentum: 4

  Cached 100.0% of DFT collocation blocks in 0.086 [GiB].

  Minimum eigenvalue in the overlap matrix is 6.6973721487E-03.
  Using Symmetric Orthogonalization.

  SCF Guess: Superposition of Atomic Densities via on-the-fly atomic UHF.

  ==> Iterations <==

                           Total Energy        Delta E     RMS |[F,P]|

   @DF-RKS iter SAD:  -920.13155950986209   -9.20132e+02   0.00000e+00 
   @DF-RKS iter   1:  -920.25023946987505   -1.18680e-01   7.19870e-03 DIIS
   @DF-RKS iter   2:  -920.26313296425394   -1.28935e-02   3.93014e-03 DIIS
   @DF-RKS iter   3:  -920.26697751594759   -3.84455e-03   4.80937e-04 DIIS
   @DF-RKS iter   4:  -920.26707344116483   -9.59252e-05   1.49604e-04 DIIS
   @DF-RKS iter   5:  -920.26708575811870   -1.23170e-05   2.07186e-05 DIIS
   @DF-RKS iter   6:  -920.26708618178884   -4.23670e-07   2.08175e-06 DIIS
   @DF-RKS iter   7:  -920.26708618565465   -3.86581e-09   3.24723e-07 DIIS
   @DF-RKS iter   8:  -920.26708618573502   -8.03766e-11   4.26951e-08 DIIS
   @DF-RKS iter   9:  -920.26708618573525   -2.27374e-13   2.60907e-09 DIIS
  Energy and wave function converged.


  ==> Post-Iterations <==

    Orbital Energies [Eh]
    ---------------------

    Doubly Occupied:                                                      

       1B1u -101.604437     1Ag  -101.604433     2Ag    -9.617276  
       2B1u   -9.617236     3Ag    -7.377026     3B1u   -7.376886  
       1B3g   -7.362447     1B2g   -7.362447     1B2u   -7.362446  
       1B3u   -7.362446     4Ag    -1.065896     4B1u   -0.892879  
       5Ag    -0.570596     2B2u   -0.521452     2B3u   -0.521452  
       2B2g   -0.409567     2B3g   -0.409567  

    Virtual:                                                              

       5B1u   -0.028511     6Ag     0.321485     6B1u    0.367815  
       3B2u    0.370106     3B3u    0.370106     4B3u    0.418121  
       4B2u    0.418121     7Ag     0.452236     1B1g    0.452236  
       3B3g    0.459048     3B2g    0.459048     8Ag     0.467133  
       1Au     0.550801     7B1u    0.550802     8B1u    0.663296  
       9Ag     0.704010     4B2g    0.734462     4B3g    0.734462  
       9B1u    1.121927     2B1g    1.754399    10Ag     1.754401  
      11Ag     1.813012     5B2u    1.816357     5B3u    1.816357  
       2Au     1.842960    10B1u    1.842964     5B3g    1.906818  
       5B2g    1.906818     6B2u    1.911897     6B3u    1.911897  
      11B1u    1.922428     3B1g    2.031086    12Ag     2.031087  
       7B3u    2.149813     7B2u    2.149813     6B2g    2.190319  
       6B3g    2.190319     8B3u    2.287788     8B2u    2.287788  
      13Ag     2.288409    12B1u    2.305255     7B2g    2.320583  
       7B3g    2.320583    13B1u    2.323838     3Au     2.323838  
      14Ag     2.422598     8B2g    2.840216     8B3g    2.840216  
      14B1u    3.771131    15Ag     4.261790    15B1u    4.909296  
       4B1g    8.083684    16Ag     8.083736     9B2u    8.112655  
       9B3u    8.112655     4Au     8.127817    16B1u    8.127870  
       9B3g    8.186874     9B2g    8.186874    17B1u    8.201371  
      17Ag     8.314857  

    Final Occupation by Irrep:
             Ag   B1g   B2g   B3g    Au   B1u   B2u   B3u 
    DOCC [     5,    0,    2,    2,    0,    4,    2,    2 ]

  @DF-RKS Final Energy:  -920.26708618573525

   => Energetics <=

    Nuclear Repulsion Energy =             76.5729687556385414
    One-Electron Energy =               -1422.4890396649923332
    Two-Electron Energy =                 468.2044594222563774
    DFT Exchange-Correlation Energy =     -42.6978400542576750
    Empirical Dispersion Energy =           0.0000000000000000
    VV10 Nonlocal Energy =                  0.1423653556197858
    Total Energy =                       -920.2670861857352520

Computation Completed


Properties will be evaluated at   0.000000,   0.000000,   0.000000 [a0]

Properties computed using the SCF density matrix

  Nuclear Dipole Moment: [e a0]
     X:     0.0000      Y:     0.0000      Z:     0.0000

  Electronic Dipole Moment: [e a0]
     X:     0.0000      Y:     0.0000      Z:     0.0000

  Dipole Moment: [e a0]
     X:     0.0000      Y:     0.0000      Z:     0.0000     Total:     0.0000

  Dipole Moment: [D]
     X:     0.0000      Y:     0.0000      Z:     0.0000     Total:     0.0000


*** tstop() called on bp1-compute00116.data.bp.acrc.priv at Tue Apr 27 17:37:05 2021
Module time:
	user time   =      45.99 seconds =       0.77 minutes
	system time =       1.69 seconds =       0.03 minutes
	total time  =          2 seconds =       0.03 minutes
Total time:
	user time   =      93.43 seconds =       1.56 minutes
	system time =       3.69 seconds =       0.06 minutes
	total time  =          5 seconds =       0.08 minutes

  //>>>>>>>>>>>>>>>>>>>>>>>>>>>>>>>>>>>//
  //    Loading displacement 3 of 3    //
  //<<<<<<<<<<<<<<<<<<<<<<<<<<<<<<<<<<<//

*** tstart() called on bp1-compute00116.data.bp.acrc.priv
*** at Tue Apr 27 17:37:05 2021

   => Loading Basis Set <=

    Name: CC-PV(T+D)Z
    Role: ORBITAL
    Keyword: BASIS
    atoms 1-2 entry CL         line   864 file /work/zw18965/.conda/envs/p4env/share/psi4/basis/cc-pv_tpd_z.gbs 


         ---------------------------------------------------------
                                   SCF
               by Justin Turney, Rob Parrish, Andy Simmonett
                          and Daniel G. A. Smith
                              RKS Reference
                       24 Threads, 137329 MiB Core
         ---------------------------------------------------------

  ==> Geometry <==

    Molecular point group: d2h
    Full point group: D_inf_h

    Geometry (in Angstrom), charge = 0, multiplicity = 1:

       Center              X                  Y                   Z               Mass       
    ------------   -----------------  -----------------  -----------------  -----------------
         CL           0.000000000000     0.000000000000    -0.997971675319    34.968852682000
         CL           0.000000000000     0.000000000000     0.997971675319    34.968852682000

  Running in d2h symmetry.

  Rotational constants: A = ************  B =      0.24202  C =      0.24202 [cm^-1]
  Rotational constants: A = ************  B =   7255.53414  C =   7255.53414 [MHz]
  Nuclear repulsion =   76.621520262474121

  Charge       = 0
  Multiplicity = 1
  Electrons    = 34
  Nalpha       = 17
  Nbeta        = 17

  ==> Algorithm <==

  SCF Algorithm Type is DF.
  DIIS enabled.
  MOM disabled.
  Fractional occupation disabled.
  Guess Type is SAD.
  Energy threshold   = 1.00e-08
  Density threshold  = 1.00e-08
  Integral threshold = 0.00e+00

  ==> Primary Basis <==

  Basis Set: CC-PV(T+D)Z
    Blend: CC-PV(T+D)Z
    Number of shells: 26
    Number of basis function: 78
    Number of Cartesian functions: 90
    Spherical Harmonics?: true
    Max angular momentum: 3

  ==> DFT Potential <==

   => Composite Functional: WB97X-V <= 

    wB97X-V Hyb-GGA Exchange-Correlation Functional

    N. Mardirossian and M. Head-Gordon, Phys. Chem. Chem. Phys. 16, 9904 (2014)

    Deriv               =              1
    GGA                 =           TRUE
    Meta                =          FALSE

    Exchange Hybrid     =           TRUE
    MP2 Hybrid          =          FALSE

   => Exchange-Correlation Functionals <=

    1.0000   wB97X-V range-separated functional

   => Exact (HF) Exchange <=

    0.8330            HF,LR [omega = 0.3000]
    0.1670               HF 

   => VV10 Non-Local Parameters <=

    VV10 B              =     6.0000E+00
    VV10 C              =     1.0000E-02

   => Molecular Quadrature <=

    Radial Scheme          =       TREUTLER
    Pruning Scheme         =           FLAT
    Nuclear Scheme         =       TREUTLER

    BS radius alpha        =              1
    Pruning alpha          =              1
    Radial Points          =             75
    Spherical Points       =            302
    Total Points           =          42114
    Total Blocks           =            378
    Max Points             =            254
    Max Functions          =             78

   => Loading Basis Set <=

    Name: (CC-PV(T+D)Z AUX)
    Role: JKFIT
    Keyword: DF_BASIS_SCF
    atoms 1-2 entry CL         line   689 file /work/zw18965/.conda/envs/p4env/share/psi4/basis/cc-pvtz-jkfit.gbs 

  ==> Pre-Iterations <==

   -------------------------------------------------------
    Irrep   Nso     Nmo     Nalpha   Nbeta   Ndocc  Nsocc
   -------------------------------------------------------
     Ag        17      17       0       0       0       0
     B1g        4       4       0       0       0       0
     B2g        9       9       0       0       0       0
     B3g        9       9       0       0       0       0
     Au         4       4       0       0       0       0
     B1u       17      17       0       0       0       0
     B2u        9       9       0       0       0       0
     B3u        9       9       0       0       0       0
   -------------------------------------------------------
    Total      78      78      17      17      17       0
   -------------------------------------------------------

  ==> Integral Setup <==

  ==> DiskDFJK: Density-Fitted J/K Matrices <==

    J tasked:                  Yes
    K tasked:                  Yes
    wK tasked:                 Yes
    Omega:               3.000E-01
    OpenMP threads:             24
    Integrals threads:          24
    Memory [MiB]:           102908
    Algorithm:                Core
    Integral Cache:           NONE
    Schwarz Cutoff:          1E-12
    Fitting Condition:       1E-10

   => Auxiliary Basis Set <=

  Basis Set: (CC-PV(T+D)Z AUX)
    Blend: CC-PVTZ-JKFIT
    Number of shells: 74
    Number of basis function: 242
    Number of Cartesian functions: 290
    Spherical Harmonics?: true
    Max angular momentum: 4

  Cached 100.0% of DFT collocation blocks in 0.086 [GiB].

  Minimum eigenvalue in the overlap matrix is 6.6820773516E-03.
  Using Symmetric Orthogonalization.

  SCF Guess: Superposition of Atomic Densities via on-the-fly atomic UHF.

  ==> Iterations <==

                           Total Energy        Delta E     RMS |[F,P]|

   @DF-RKS iter SAD:  -920.13319678827406   -9.20133e+02   0.00000e+00 
   @DF-RKS iter   1:  -920.25023023166307   -1.17033e-01   7.20289e-03 DIIS
   @DF-RKS iter   2:  -920.26314435737675   -1.29141e-02   3.93377e-03 DIIS
   @DF-RKS iter   3:  -920.26699490191027   -3.85054e-03   4.81058e-04 DIIS
   @DF-RKS iter   4:  -920.26709092608462   -9.60242e-05   1.49850e-04 DIIS
   @DF-RKS iter   5:  -920.26710327374872   -1.23477e-05   2.07286e-05 DIIS
   @DF-RKS iter   6:  -920.26710369756211   -4.23813e-07   2.08226e-06 DIIS
   @DF-RKS iter   7:  -920.26710370143371   -3.87161e-09   3.24930e-07 DIIS
   @DF-RKS iter   8:  -920.26710370151409   -8.03766e-11   4.26789e-08 DIIS
   @DF-RKS iter   9:  -920.26710370151523   -1.13687e-12   2.60414e-09 DIIS
  Energy and wave function converged.


  ==> Post-Iterations <==

    Orbital Energies [Eh]
    ---------------------

    Doubly Occupied:                                                      

       1B1u -101.604376     1Ag  -101.604372     2Ag    -9.617234  
       2B1u   -9.617194     3Ag    -7.376979     3B1u   -7.376838  
       1B2g   -7.362405     1B3g   -7.362405     1B3u   -7.362404  
       1B2u   -7.362404     4Ag    -1.066214     4B1u   -0.892742  
       5Ag    -0.570741     2B2u   -0.521606     2B3u   -0.521606  
       2B2g   -0.409449     2B3g   -0.409449  

    Virtual:                                                              

       5B1u   -0.028092     6Ag     0.321327     6B1u    0.367804  
       3B2u    0.369980     3B3u    0.369980     4B3u    0.418183  
       4B2u    0.418183     7Ag     0.452108     1B1g    0.452108  
       3B2g    0.459093     3B3g    0.459093     8Ag     0.467096  
       1Au     0.550912     7B1u    0.550913     8B1u    0.663749  
       9Ag     0.704441     4B2g    0.734824     4B3g    0.734824  
       9B1u    1.122236     2B1g    1.754380    10Ag     1.754382  
      11Ag     1.812574     5B2u    1.816587     5B3u    1.816587  
       2Au     1.842990    10B1u    1.842994     5B2g    1.906926  
       5B3g    1.906926     6B3u    1.911928     6B2u    1.911928  
      11B1u    1.922301     3B1g    2.030695    12Ag     2.030696  
       7B2u    2.149696     7B3u    2.149696     6B3g    2.190409  
       6B2g    2.190409     8B2u    2.287784     8B3u    2.287784  
      13Ag     2.288351    12B1u    2.305829     7B2g    2.320585  
       7B3g    2.320585    13B1u    2.324471     3Au     2.324472  
      14Ag     2.424950     8B2g    2.841823     8B3g    2.841823  
      14B1u    3.771412    15Ag     4.261840    15B1u    4.911527  
       4B1g    8.083714    16Ag     8.083766     9B2u    8.112832  
       9B3u    8.112832     4Au     8.127872    16B1u    8.127924  
       9B3g    8.186864     9B2g    8.186864    17B1u    8.201451  
      17Ag     8.314913  

    Final Occupation by Irrep:
             Ag   B1g   B2g   B3g    Au   B1u   B2u   B3u 
    DOCC [     5,    0,    2,    2,    0,    4,    2,    2 ]

  @DF-RKS Final Energy:  -920.26710370151523

   => Energetics <=

    Nuclear Repulsion Energy =             76.6215202624741210
    One-Electron Energy =               -1422.5860852221603636
    Two-Electron Energy =                 468.2533244518589868
    DFT Exchange-Correlation Energy =     -42.6982261216102685
    Empirical Dispersion Energy =           0.0000000000000000
    VV10 Nonlocal Energy =                  0.1423629279223122
    Total Energy =                       -920.2671037015149977

Computation Completed


Properties will be evaluated at   0.000000,   0.000000,   0.000000 [a0]

Properties computed using the SCF density matrix

  Nuclear Dipole Moment: [e a0]
     X:     0.0000      Y:     0.0000      Z:     0.0000

  Electronic Dipole Moment: [e a0]
     X:     0.0000      Y:     0.0000      Z:     0.0000

  Dipole Moment: [e a0]
     X:     0.0000      Y:     0.0000      Z:     0.0000     Total:     0.0000

  Dipole Moment: [D]
     X:     0.0000      Y:     0.0000      Z:     0.0000     Total:     0.0000


*** tstop() called on bp1-compute00116.data.bp.acrc.priv at Tue Apr 27 17:37:07 2021
Module time:
	user time   =      45.88 seconds =       0.76 minutes
	system time =       1.64 seconds =       0.03 minutes
	total time  =          2 seconds =       0.03 minutes
Total time:
	user time   =     139.45 seconds =       2.32 minutes
	system time =       5.33 seconds =       0.09 minutes
	total time  =          7 seconds =       0.12 minutes

         ----------------------------------------------------------
                                   FINDIF
                     R. A. King and Jonathon Misiewicz
         ---------------------------------------------------------

  Computing gradient from energies.
    Using 3-point formula.
    Energy without displacement: -920.2670950976
    Check energies below for precision!
    Forces are for mass-weighted, symmetry-adapted cartesians (in au).

     Coord      Energy(-1)        Energy(+1)            Force
        0   -920.2670861857   -920.2671037015     -0.0017515780


-------------------------------------------------------------
  ## New Matrix (Symmetry 0) ##
  Irrep: 1 Size: 2 x 3

                 1                   2                   3

    1     0.00000000000000     0.00000000000000    -0.00732411534105
    2     0.00000000000000     0.00000000000000     0.00732411534105




			-----------------------------------------
			 OPTKING 2.0: for geometry optimizations 
			  - R.A. King,  Bethel University        
			-----------------------------------------
	At level 1: Red. Int., RFO, no backsteps, dynamic trust

	Internal coordinates to be generated automatically.
	Detected frag 1 with atoms:  1 2
	---Fragment 1 Bond Connectivity---
	 1 : 2
	 2 : 1

	---Fragment 1 Geometry and Gradient---
	 CL          0.0000000000        0.0000000000       -1.8864910277
	 CL          0.0000000000        0.0000000000        1.8864910277
	             0.0000000000        0.0000000000       -0.0073241153
	             0.0000000000        0.0000000000        0.0073241153

	Previous optimization step data not found.  Starting new optimization.

	---Fragment 1 Intrafragment Coordinates---
	 - Coordinate -           - BOHR/RAD -       - ANG/DEG -
	 R(1,2)           =         3.772982	       1.996576

	Current energy   :      -920.2670950976

	Generating empirical Hessian (Schlegel '84) for each fragment.
	Taking RFO optimization step.
	Going to follow RFO solution 1.
	Using RFO vector 1.
	Norm of target step-size    0.02093
	Projected energy change by RFO approximation:         0.0000656484

	Back-transformation to cartesian coordinates...
	Successfully converged to displaced geometry.

	--- Internal Coordinate Step in ANG or DEG, aJ/ANG or AJ/DEG ---
	 ---------------------------------------------------------------------------
	   Coordinate                Previous        Force       Change         New 
	   ----------                --------       ------       ------       ------
	    1 R(1,2)          =      1.996576    -0.060341    -0.011073     1.985503
	 ---------------------------------------------------------------------------
	Successfully symmetrized geometry.

  ==> Convergence Check <==

  Measures of convergence in internal coordinates in au.
  Criteria marked as inactive (o), active & met (*), and active & unmet ( ).
  --------------------------------------------------------------------------------------------- ~
   Step     Total Energy     Delta E     MAX Force     RMS Force      MAX Disp      RMS Disp    ~
  --------------------------------------------------------------------------------------------- ~
    Convergence Criteria    1.00e-06 *    3.00e-04 *             o    1.20e-03 *             o  ~
  --------------------------------------------------------------------------------------------- ~
      1    -920.26709510   -9.20e+02      7.32e-03      7.32e-03 o    2.09e-02      2.09e-02 o  ~
  ---------------------------------------------------------------------------------------------

	Writing optimization data to binary file.
	Structure for next step:
	Cartesian Geometry (in Angstrom)
	   CL     0.0000000000   0.0000000000  -0.9927514140
	   CL     0.0000000000   0.0000000000   0.9927514140
			--------------------------
			 OPTKING Finished Execution 
			--------------------------

    Structure for next step:
    Molecular point group: d2h
    Full point group: D_inf_h

    Geometry (in Angstrom), charge = 0, multiplicity = 1:

    CL           0.000000000000     0.000000000000    -0.992751417936
    CL           0.000000000000     0.000000000000     0.992751417936

gradient() will perform gradient computation by finite difference of analytic energies.

         ----------------------------------------------------------
                                   FINDIF
                     R. A. King and Jonathon Misiewicz
         ---------------------------------------------------------

  Using finite-differences of energies to determine gradients.
    Generating geometries for use with 3-point formula.
    Displacement size will be 5.00e-03.
    Number of atoms is 2.
    Number of symmetric SALCs is 1.
    Translations projected? 1. Rotations projected? 1.
    Number of geometries (including reference) is 3.

  //>>>>>>>>>>>>>>>>>>>>>>>>>>>>>>>>>>>//
  //    Loading displacement 1 of 3    //
  //<<<<<<<<<<<<<<<<<<<<<<<<<<<<<<<<<<<//

*** tstart() called on bp1-compute00116.data.bp.acrc.priv
*** at Tue Apr 27 17:37:07 2021

   => Loading Basis Set <=

    Name: CC-PV(T+D)Z
    Role: ORBITAL
    Keyword: BASIS
    atoms 1-2 entry CL         line   864 file /work/zw18965/.conda/envs/p4env/share/psi4/basis/cc-pv_tpd_z.gbs 


         ---------------------------------------------------------
                                   SCF
               by Justin Turney, Rob Parrish, Andy Simmonett
                          and Daniel G. A. Smith
                              RKS Reference
                       24 Threads, 137329 MiB Core
         ---------------------------------------------------------

  ==> Geometry <==

    Molecular point group: d2h
    Full point group: D_inf_h

    Geometry (in Angstrom), charge = 0, multiplicity = 1:

       Center              X                  Y                   Z               Mass       
    ------------   -----------------  -----------------  -----------------  -----------------
         CL           0.000000000000     0.000000000000    -0.992751417936    34.968852682000
         CL           0.000000000000     0.000000000000     0.992751417936    34.968852682000

  Running in d2h symmetry.

  Rotational constants: A = ************  B =      0.24457  C =      0.24457 [cm^-1]
  Rotational constants: A = ************  B =   7332.03937  C =   7332.03937 [MHz]
  Nuclear repulsion =   77.024424805960891

  Charge       = 0
  Multiplicity = 1
  Electrons    = 34
  Nalpha       = 17
  Nbeta        = 17

  ==> Algorithm <==

  SCF Algorithm Type is DF.
  DIIS enabled.
  MOM disabled.
  Fractional occupation disabled.
  Guess Type is READ.
  Energy threshold   = 1.00e-08
  Density threshold  = 1.00e-08
  Integral threshold = 0.00e+00

  ==> Primary Basis <==

  Basis Set: CC-PV(T+D)Z
    Blend: CC-PV(T+D)Z
    Number of shells: 26
    Number of basis function: 78
    Number of Cartesian functions: 90
    Spherical Harmonics?: true
    Max angular momentum: 3

  ==> DFT Potential <==

   => Composite Functional: WB97X-V <= 

    wB97X-V Hyb-GGA Exchange-Correlation Functional

    N. Mardirossian and M. Head-Gordon, Phys. Chem. Chem. Phys. 16, 9904 (2014)

    Deriv               =              1
    GGA                 =           TRUE
    Meta                =          FALSE

    Exchange Hybrid     =           TRUE
    MP2 Hybrid          =          FALSE

   => Exchange-Correlation Functionals <=

    1.0000   wB97X-V range-separated functional

   => Exact (HF) Exchange <=

    0.8330            HF,LR [omega = 0.3000]
    0.1670               HF 

   => VV10 Non-Local Parameters <=

    VV10 B              =     6.0000E+00
    VV10 C              =     1.0000E-02

   => Molecular Quadrature <=

    Radial Scheme          =       TREUTLER
    Pruning Scheme         =           FLAT
    Nuclear Scheme         =       TREUTLER

    BS radius alpha        =              1
    Pruning alpha          =              1
    Radial Points          =             75
    Spherical Points       =            302
    Total Points           =          42114
    Total Blocks           =            378
    Max Points             =            254
    Max Functions          =             78

   => Loading Basis Set <=

    Name: (CC-PV(T+D)Z AUX)
    Role: JKFIT
    Keyword: DF_BASIS_SCF
    atoms 1-2 entry CL         line   689 file /work/zw18965/.conda/envs/p4env/share/psi4/basis/cc-pvtz-jkfit.gbs 

   => Loading Basis Set <=

    Name: CC-PV(T+D)Z
    Role: ORBITAL
    Keyword: BASIS
    atoms 1-2 entry CL         line   864 file /work/zw18965/.conda/envs/p4env/share/psi4/basis/cc-pv_tpd_z.gbs 

  Reading orbitals from file 180, no projection.

  ==> Pre-Iterations <==

   -------------------------------------------------------
    Irrep   Nso     Nmo     Nalpha   Nbeta   Ndocc  Nsocc
   -------------------------------------------------------
     Ag        17      17       0       0       0       0
     B1g        4       4       0       0       0       0
     B2g        9       9       0       0       0       0
     B3g        9       9       0       0       0       0
     Au         4       4       0       0       0       0
     B1u       17      17       0       0       0       0
     B2u        9       9       0       0       0       0
     B3u        9       9       0       0       0       0
   -------------------------------------------------------
    Total      78      78      17      17      17       0
   -------------------------------------------------------

  ==> Integral Setup <==

  ==> DiskDFJK: Density-Fitted J/K Matrices <==

    J tasked:                  Yes
    K tasked:                  Yes
    wK tasked:                 Yes
    Omega:               3.000E-01
    OpenMP threads:             24
    Integrals threads:          24
    Memory [MiB]:           102908
    Algorithm:                Core
    Integral Cache:           NONE
    Schwarz Cutoff:          1E-12
    Fitting Condition:       1E-10

   => Auxiliary Basis Set <=

  Basis Set: (CC-PV(T+D)Z AUX)
    Blend: CC-PVTZ-JKFIT
    Number of shells: 74
    Number of basis function: 242
    Number of Cartesian functions: 290
    Spherical Harmonics?: true
    Max angular momentum: 4

  Cached 100.0% of DFT collocation blocks in 0.086 [GiB].

  Minimum eigenvalue in the overlap matrix is 6.5551524719E-03.
  Using Symmetric Orthogonalization.

  SCF Guess: Orbitals guess was supplied from a previous computation.

  ==> Iterations <==

                           Total Energy        Delta E     RMS |[F,P]|

   @DF-RKS iter   0:  -920.27168141691743   -9.20272e+02   7.17816e-04 
   @DF-RKS iter   1:  -920.26718983874014    4.49158e-03   1.62718e-04 DIIS
   @DF-RKS iter   2:  -920.26719592745553   -6.08872e-06   1.23144e-04 DIIS
   @DF-RKS iter   3:  -920.26720034028551   -4.41283e-06   6.67365e-06 DIIS
   @DF-RKS iter   4:  -920.26720036855693   -2.82714e-08   1.47100e-06 DIIS
   @DF-RKS iter   5:  -920.26720037003906   -1.48214e-09   4.50972e-07 DIIS
   @DF-RKS iter   6:  -920.26720037011989   -8.08313e-11   3.37383e-08 DIIS
   @DF-RKS iter   7:  -920.26720037012205   -2.16005e-12   3.36226e-09 DIIS
  Energy and wave function converged.


  ==> Post-Iterations <==

    Orbital Energies [Eh]
    ---------------------

    Doubly Occupied:                                                      

       1B1u -101.603865     1Ag  -101.603861     2Ag    -9.616884  
       2B1u   -9.616842     3Ag    -7.376590     3B1u   -7.376438  
       1B2g   -7.362055     1B3g   -7.362055     1B3u   -7.362054  
       1B2u   -7.362054     4Ag    -1.068866     4B1u   -0.891604  
       5Ag    -0.571932     2B3u   -0.522887     2B2u   -0.522887  
       2B2g   -0.408464     2B3g   -0.408464  

    Virtual:                                                              

       5B1u   -0.024606     6Ag     0.320017     6B1u    0.367720  
       3B2u    0.368922     3B3u    0.368922     4B2u    0.418712  
       4B3u    0.418712     7Ag     0.451048     1B1g    0.451048  
       3B3g    0.459473     3B2g    0.459473     8Ag     0.466788  
       1Au     0.551828     7B1u    0.551829     8B1u    0.667524  
       9Ag     0.708002     4B3g    0.737829     4B2g    0.737829  
       9B1u    1.124769     2B1g    1.754240    10Ag     1.754241  
      11Ag     1.808966     5B3u    1.818144     5B2u    1.818144  
       2Au     1.843242    10B1u    1.843244     5B2g    1.907828  
       5B3g    1.907828     6B2u    1.912620     6B3u    1.912620  
      11B1u    1.921254     3B1g    2.027445    12Ag     2.027446  
       7B2u    2.148706     7B3u    2.148706     6B3g    2.191165  
       6B2g    2.191165    13Ag     2.287571     8B2u    2.287743  
       8B3u    2.287743    12B1u    2.310660     7B3g    2.320602  
       7B2g    2.320602    13B1u    2.329753     3Au     2.329753  
      14Ag     2.444850     8B3g    2.855107     8B2g    2.855107  
      14B1u    3.772935    15Ag     4.262223    15B1u    4.930521  
       4B1g    8.083969    16Ag     8.084021     9B2u    8.114264  
       9B3u    8.114264     4Au     8.128319    16B1u    8.128372  
       9B2g    8.186782     9B3g    8.186782    17B1u    8.202494  
      17Ag     8.315204  

    Final Occupation by Irrep:
             Ag   B1g   B2g   B3g    Au   B1u   B2u   B3u 
    DOCC [     5,    0,    2,    2,    0,    4,    2,    2 ]

  @DF-RKS Final Energy:  -920.26720037012205

   => Energetics <=

    Nuclear Repulsion Energy =             77.0244248059608907
    One-Electron Energy =               -1423.3912964024782468
    Two-Electron Energy =                 468.6587777806319650
    DFT Exchange-Correlation Energy =     -42.7014494672720986
    Empirical Dispersion Energy =           0.0000000000000000
    VV10 Nonlocal Energy =                  0.1423429130353885
    Total Energy =                       -920.2672003701221684

Computation Completed


Properties will be evaluated at   0.000000,   0.000000,   0.000000 [a0]

Properties computed using the SCF density matrix

  Nuclear Dipole Moment: [e a0]
     X:     0.0000      Y:     0.0000      Z:     0.0000

  Electronic Dipole Moment: [e a0]
     X:     0.0000      Y:     0.0000      Z:     0.0000

  Dipole Moment: [e a0]
     X:     0.0000      Y:     0.0000      Z:     0.0000     Total:     0.0000

  Dipole Moment: [D]
     X:     0.0000      Y:     0.0000      Z:     0.0000     Total:     0.0000


*** tstop() called on bp1-compute00116.data.bp.acrc.priv at Tue Apr 27 17:37:08 2021
Module time:
	user time   =      37.42 seconds =       0.62 minutes
	system time =       1.72 seconds =       0.03 minutes
	total time  =          1 seconds =       0.02 minutes
Total time:
	user time   =     177.30 seconds =       2.96 minutes
	system time =       7.08 seconds =       0.12 minutes
	total time  =          8 seconds =       0.13 minutes

  //>>>>>>>>>>>>>>>>>>>>>>>>>>>>>>>>>>>//
  //    Loading displacement 2 of 3    //
  //<<<<<<<<<<<<<<<<<<<<<<<<<<<<<<<<<<<//

*** tstart() called on bp1-compute00116.data.bp.acrc.priv
*** at Tue Apr 27 17:37:08 2021

   => Loading Basis Set <=

    Name: CC-PV(T+D)Z
    Role: ORBITAL
    Keyword: BASIS
    atoms 1-2 entry CL         line   864 file /work/zw18965/.conda/envs/p4env/share/psi4/basis/cc-pv_tpd_z.gbs 


         ---------------------------------------------------------
                                   SCF
               by Justin Turney, Rob Parrish, Andy Simmonett
                          and Daniel G. A. Smith
                              RKS Reference
                       24 Threads, 137329 MiB Core
         ---------------------------------------------------------

  ==> Geometry <==

    Molecular point group: d2h
    Full point group: D_inf_h

    Geometry (in Angstrom), charge = 0, multiplicity = 1:

       Center              X                  Y                   Z               Mass       
    ------------   -----------------  -----------------  -----------------  -----------------
         CL           0.000000000000     0.000000000000    -0.993067802617    34.968852682000
         CL           0.000000000000     0.000000000000     0.993067802617    34.968852682000

  Running in d2h symmetry.

  Rotational constants: A = ************  B =      0.24441  C =      0.24441 [cm^-1]
  Rotational constants: A = ************  B =   7327.36824  C =   7327.36824 [MHz]
  Nuclear repulsion =   76.999885345490725

  Charge       = 0
  Multiplicity = 1
  Electrons    = 34
  Nalpha       = 17
  Nbeta        = 17

  ==> Algorithm <==

  SCF Algorithm Type is DF.
  DIIS enabled.
  MOM disabled.
  Fractional occupation disabled.
  Guess Type is READ.
  Energy threshold   = 1.00e-08
  Density threshold  = 1.00e-08
  Integral threshold = 0.00e+00

  ==> Primary Basis <==

  Basis Set: CC-PV(T+D)Z
    Blend: CC-PV(T+D)Z
    Number of shells: 26
    Number of basis function: 78
    Number of Cartesian functions: 90
    Spherical Harmonics?: true
    Max angular momentum: 3

  ==> DFT Potential <==

   => Composite Functional: WB97X-V <= 

    wB97X-V Hyb-GGA Exchange-Correlation Functional

    N. Mardirossian and M. Head-Gordon, Phys. Chem. Chem. Phys. 16, 9904 (2014)

    Deriv               =              1
    GGA                 =           TRUE
    Meta                =          FALSE

    Exchange Hybrid     =           TRUE
    MP2 Hybrid          =          FALSE

   => Exchange-Correlation Functionals <=

    1.0000   wB97X-V range-separated functional

   => Exact (HF) Exchange <=

    0.8330            HF,LR [omega = 0.3000]
    0.1670               HF 

   => VV10 Non-Local Parameters <=

    VV10 B              =     6.0000E+00
    VV10 C              =     1.0000E-02

   => Molecular Quadrature <=

    Radial Scheme          =       TREUTLER
    Pruning Scheme         =           FLAT
    Nuclear Scheme         =       TREUTLER

    BS radius alpha        =              1
    Pruning alpha          =              1
    Radial Points          =             75
    Spherical Points       =            302
    Total Points           =          42114
    Total Blocks           =            378
    Max Points             =            254
    Max Functions          =             78

   => Loading Basis Set <=

    Name: (CC-PV(T+D)Z AUX)
    Role: JKFIT
    Keyword: DF_BASIS_SCF
    atoms 1-2 entry CL         line   689 file /work/zw18965/.conda/envs/p4env/share/psi4/basis/cc-pvtz-jkfit.gbs 

   => Loading Basis Set <=

    Name: CC-PV(T+D)Z
    Role: ORBITAL
    Keyword: BASIS
    atoms 1-2 entry CL         line   864 file /work/zw18965/.conda/envs/p4env/share/psi4/basis/cc-pv_tpd_z.gbs 

  Reading orbitals from file 180, no projection.

  ==> Pre-Iterations <==

   -------------------------------------------------------
    Irrep   Nso     Nmo     Nalpha   Nbeta   Ndocc  Nsocc
   -------------------------------------------------------
     Ag        17      17       0       0       0       0
     B1g        4       4       0       0       0       0
     B2g        9       9       0       0       0       0
     B3g        9       9       0       0       0       0
     Au         4       4       0       0       0       0
     B1u       17      17       0       0       0       0
     B2u        9       9       0       0       0       0
     B3u        9       9       0       0       0       0
   -------------------------------------------------------
    Total      78      78      17      17      17       0
   -------------------------------------------------------

  ==> Integral Setup <==

  ==> DiskDFJK: Density-Fitted J/K Matrices <==

    J tasked:                  Yes
    K tasked:                  Yes
    wK tasked:                 Yes
    Omega:               3.000E-01
    OpenMP threads:             24
    Integrals threads:          24
    Memory [MiB]:           102908
    Algorithm:                Core
    Integral Cache:           NONE
    Schwarz Cutoff:          1E-12
    Fitting Condition:       1E-10

   => Auxiliary Basis Set <=

  Basis Set: (CC-PV(T+D)Z AUX)
    Blend: CC-PVTZ-JKFIT
    Number of shells: 74
    Number of basis function: 242
    Number of Cartesian functions: 290
    Spherical Harmonics?: true
    Max angular momentum: 4

  Cached 100.0% of DFT collocation blocks in 0.086 [GiB].

  Minimum eigenvalue in the overlap matrix is 6.5628827424E-03.
  Using Symmetric Orthogonalization.

  SCF Guess: Orbitals guess was supplied from a previous computation.

  ==> Iterations <==

                           Total Energy        Delta E     RMS |[F,P]|

   @DF-RKS iter   0:  -920.26694257810971   -9.20267e+02   4.13424e-05 
   @DF-RKS iter   1:  -920.26719694759072   -2.54369e-04   9.31874e-06 DIIS
   @DF-RKS iter   2:  -920.26719696759096   -2.00002e-08   7.04529e-06 DIIS
   @DF-RKS iter   3:  -920.26719698203010   -1.44391e-08   3.82930e-07 DIIS
   @DF-RKS iter   4:  -920.26719698212219   -9.20863e-11   8.48746e-08 DIIS
   @DF-RKS iter   5:  -920.26719698212776   -5.57066e-12   2.60843e-08 DIIS
   @DF-RKS iter   6:  -920.26719698212821   -4.54747e-13   1.93798e-09 DIIS
  Energy and wave function converged.


  ==> Post-Iterations <==

    Orbital Energies [Eh]
    ---------------------

    Doubly Occupied:                                                      

       1B1u -101.603896     1Ag  -101.603892     2Ag    -9.616906  
       2B1u   -9.616863     3Ag    -7.376614     3B1u   -7.376463  
       1B2g   -7.362076     1B3g   -7.362076     1B3u   -7.362076  
       1B2u   -7.362076     4Ag    -1.068704     4B1u   -0.891674  
       5Ag    -0.571860     2B3u   -0.522808     2B2u   -0.522808  
       2B3g   -0.408525     2B2g   -0.408525  

    Virtual:                                                              

       5B1u   -0.024819     6Ag     0.320096     6B1u    0.367724  
       3B2u    0.368987     3B3u    0.368987     4B2u    0.418679  
       4B3u    0.418679     7Ag     0.451113     1B1g    0.451113  
       3B3g    0.459449     3B2g    0.459449     8Ag     0.466806  
       1Au     0.551772     7B1u    0.551773     8B1u    0.667293  
       9Ag     0.707786     4B3g    0.737646     4B2g    0.737646  
       9B1u    1.124616     2B1g    1.754248    10Ag     1.754249  
      11Ag     1.809185     5B2u    1.818067     5B3u    1.818067  
       2Au     1.843226    10B1u    1.843229     5B3g    1.907772  
       5B2g    1.907772     6B3u    1.912555     6B2u    1.912555  
      11B1u    1.921318     3B1g    2.027644    12Ag     2.027644  
       7B2u    2.148767     7B3u    2.148767     6B3g    2.191119  
       6B2g    2.191119    13Ag     2.287632     8B3u    2.287746  
       8B2u    2.287746    12B1u    2.310362     7B2g    2.320601  
       7B3g    2.320601    13B1u    2.329430     3Au     2.329430  
      14Ag     2.443621     8B3g    2.854300     8B2g    2.854300  
      14B1u    3.772883    15Ag     4.262201    15B1u    4.929340  
       4B1g    8.083953    16Ag     8.084005     9B2u    8.114179  
       9B3u    8.114179     4Au     8.128292    16B1u    8.128345  
       9B3g    8.186787     9B2g    8.186787    17B1u    8.202411  
      17Ag     8.315195  

    Final Occupation by Irrep:
             Ag   B1g   B2g   B3g    Au   B1u   B2u   B3u 
    DOCC [     5,    0,    2,    2,    0,    4,    2,    2 ]

  @DF-RKS Final Energy:  -920.26719698212821

   => Energetics <=

    Nuclear Repulsion Energy =             76.9998853454907248
    One-Electron Energy =               -1423.3422603128922219
    Two-Electron Energy =                 468.6340860138634525
    DFT Exchange-Correlation Energy =     -42.7012521539381567
    Empirical Dispersion Energy =           0.0000000000000000
    VV10 Nonlocal Energy =                  0.1423441253481824
    Total Energy =                       -920.2671969821282119

Computation Completed


Properties will be evaluated at   0.000000,   0.000000,   0.000000 [a0]

Properties computed using the SCF density matrix

  Nuclear Dipole Moment: [e a0]
     X:     0.0000      Y:     0.0000      Z:     0.0000

  Electronic Dipole Moment: [e a0]
     X:     0.0000      Y:     0.0000      Z:     0.0000

  Dipole Moment: [e a0]
     X:     0.0000      Y:     0.0000      Z:     0.0000     Total:     0.0000

  Dipole Moment: [D]
     X:     0.0000      Y:     0.0000      Z:     0.0000     Total:     0.0000


*** tstop() called on bp1-compute00116.data.bp.acrc.priv at Tue Apr 27 17:37:10 2021
Module time:
	user time   =      38.45 seconds =       0.64 minutes
	system time =       1.51 seconds =       0.03 minutes
	total time  =          2 seconds =       0.03 minutes
Total time:
	user time   =     215.90 seconds =       3.60 minutes
	system time =       8.59 seconds =       0.14 minutes
	total time  =         10 seconds =       0.17 minutes

  //>>>>>>>>>>>>>>>>>>>>>>>>>>>>>>>>>>>//
  //    Loading displacement 3 of 3    //
  //<<<<<<<<<<<<<<<<<<<<<<<<<<<<<<<<<<<//

*** tstart() called on bp1-compute00116.data.bp.acrc.priv
*** at Tue Apr 27 17:37:10 2021

   => Loading Basis Set <=

    Name: CC-PV(T+D)Z
    Role: ORBITAL
    Keyword: BASIS
    atoms 1-2 entry CL         line   864 file /work/zw18965/.conda/envs/p4env/share/psi4/basis/cc-pv_tpd_z.gbs 


         ---------------------------------------------------------
                                   SCF
               by Justin Turney, Rob Parrish, Andy Simmonett
                          and Daniel G. A. Smith
                              RKS Reference
                       24 Threads, 137329 MiB Core
         ---------------------------------------------------------

  ==> Geometry <==

    Molecular point group: d2h
    Full point group: D_inf_h

    Geometry (in Angstrom), charge = 0, multiplicity = 1:

       Center              X                  Y                   Z               Mass       
    ------------   -----------------  -----------------  -----------------  -----------------
         CL           0.000000000000     0.000000000000    -0.992435033255    34.968852682000
         CL           0.000000000000     0.000000000000     0.992435033255    34.968852682000

  Running in d2h symmetry.

  Rotational constants: A = ************  B =      0.24473  C =      0.24473 [cm^-1]
  Rotational constants: A = ************  B =   7336.71497  C =   7336.71497 [MHz]
  Nuclear repulsion =   77.048979912612680

  Charge       = 0
  Multiplicity = 1
  Electrons    = 34
  Nalpha       = 17
  Nbeta        = 17

  ==> Algorithm <==

  SCF Algorithm Type is DF.
  DIIS enabled.
  MOM disabled.
  Fractional occupation disabled.
  Guess Type is READ.
  Energy threshold   = 1.00e-08
  Density threshold  = 1.00e-08
  Integral threshold = 0.00e+00

  ==> Primary Basis <==

  Basis Set: CC-PV(T+D)Z
    Blend: CC-PV(T+D)Z
    Number of shells: 26
    Number of basis function: 78
    Number of Cartesian functions: 90
    Spherical Harmonics?: true
    Max angular momentum: 3

  ==> DFT Potential <==

   => Composite Functional: WB97X-V <= 

    wB97X-V Hyb-GGA Exchange-Correlation Functional

    N. Mardirossian and M. Head-Gordon, Phys. Chem. Chem. Phys. 16, 9904 (2014)

    Deriv               =              1
    GGA                 =           TRUE
    Meta                =          FALSE

    Exchange Hybrid     =           TRUE
    MP2 Hybrid          =          FALSE

   => Exchange-Correlation Functionals <=

    1.0000   wB97X-V range-separated functional

   => Exact (HF) Exchange <=

    0.8330            HF,LR [omega = 0.3000]
    0.1670               HF 

   => VV10 Non-Local Parameters <=

    VV10 B              =     6.0000E+00
    VV10 C              =     1.0000E-02

   => Molecular Quadrature <=

    Radial Scheme          =       TREUTLER
    Pruning Scheme         =           FLAT
    Nuclear Scheme         =       TREUTLER

    BS radius alpha        =              1
    Pruning alpha          =              1
    Radial Points          =             75
    Spherical Points       =            302
    Total Points           =          42114
    Total Blocks           =            378
    Max Points             =            254
    Max Functions          =             78

   => Loading Basis Set <=

    Name: (CC-PV(T+D)Z AUX)
    Role: JKFIT
    Keyword: DF_BASIS_SCF
    atoms 1-2 entry CL         line   689 file /work/zw18965/.conda/envs/p4env/share/psi4/basis/cc-pvtz-jkfit.gbs 

   => Loading Basis Set <=

    Name: CC-PV(T+D)Z
    Role: ORBITAL
    Keyword: BASIS
    atoms 1-2 entry CL         line   864 file /work/zw18965/.conda/envs/p4env/share/psi4/basis/cc-pv_tpd_z.gbs 

  Reading orbitals from file 180, no projection.

  ==> Pre-Iterations <==

   -------------------------------------------------------
    Irrep   Nso     Nmo     Nalpha   Nbeta   Ndocc  Nsocc
   -------------------------------------------------------
     Ag        17      17       0       0       0       0
     B1g        4       4       0       0       0       0
     B2g        9       9       0       0       0       0
     B3g        9       9       0       0       0       0
     Au         4       4       0       0       0       0
     B1u       17      17       0       0       0       0
     B2u        9       9       0       0       0       0
     B3u        9       9       0       0       0       0
   -------------------------------------------------------
    Total      78      78      17      17      17       0
   -------------------------------------------------------

  ==> Integral Setup <==

  ==> DiskDFJK: Density-Fitted J/K Matrices <==

    J tasked:                  Yes
    K tasked:                  Yes
    wK tasked:                 Yes
    Omega:               3.000E-01
    OpenMP threads:             24
    Integrals threads:          24
    Memory [MiB]:           102908
    Algorithm:                Core
    Integral Cache:           NONE
    Schwarz Cutoff:          1E-12
    Fitting Condition:       1E-10

   => Auxiliary Basis Set <=

  Basis Set: (CC-PV(T+D)Z AUX)
    Blend: CC-PVTZ-JKFIT
    Number of shells: 74
    Number of basis function: 242
    Number of Cartesian functions: 290
    Spherical Harmonics?: true
    Max angular momentum: 4

  Cached 100.0% of DFT collocation blocks in 0.086 [GiB].

  Minimum eigenvalue in the overlap matrix is 6.5474173514E-03.
  Using Symmetric Orthogonalization.

  SCF Guess: Orbitals guess was supplied from a previous computation.

  ==> Iterations <==

                           Total Energy        Delta E     RMS |[F,P]|

   @DF-RKS iter   0:  -920.26745838262525   -9.20267e+02   4.14138e-05 
   @DF-RKS iter   1:  -920.26720339929329    2.54983e-04   9.32261e-06 DIIS
   @DF-RKS iter   2:  -920.26720341931173   -2.00184e-08   7.04821e-06 DIIS
   @DF-RKS iter   3:  -920.26720343375882   -1.44471e-08   3.83421e-07 DIIS
   @DF-RKS iter   4:  -920.26720343385273   -9.39053e-11   8.49441e-08 DIIS
   @DF-RKS iter   5:  -920.26720343385705   -4.32010e-12   2.61159e-08 DIIS
   @DF-RKS iter   6:  -920.26720343385728   -2.27374e-13   1.93599e-09 DIIS
  Energy and wave function converged.


  ==> Post-Iterations <==

    Orbital Energies [Eh]
    ---------------------

    Doubly Occupied:                                                      

       1B1u -101.603834     1Ag  -101.603829     2Ag    -9.616863  
       2B1u   -9.616820     3Ag    -7.376566     3B1u   -7.376414  
       1B2g   -7.362033     1B3g   -7.362033     1B3u   -7.362033  
       1B2u   -7.362033     4Ag    -1.069029     4B1u   -0.891535  
       5Ag    -0.572004     2B2u   -0.522965     2B3u   -0.522965  
       2B3g   -0.408404     2B2g   -0.408404  

    Virtual:                                                              

       5B1u   -0.024394     6Ag     0.319937     6B1u    0.367715  
       3B3u    0.368857     3B2u    0.368857     4B2u    0.418746  
       4B3u    0.418746     7Ag     0.450983     1B1g    0.450984  
       3B3g    0.459496     3B2g    0.459496     8Ag     0.466769  
       1Au     0.551884     7B1u    0.551885     8B1u    0.667755  
       9Ag     0.708218     4B3g    0.738012     4B2g    0.738012  
       9B1u    1.124922     2B1g    1.754233    10Ag     1.754234  
      11Ag     1.808748     5B2u    1.818219     5B3u    1.818219  
       2Au     1.843257    10B1u    1.843259     5B3g    1.907883  
       5B2g    1.907883     6B3u    1.912688     6B2u    1.912688  
      11B1u    1.921191     3B1g    2.027247    12Ag     2.027248  
       7B3u    2.148645     7B2u    2.148645     6B2g    2.191212  
       6B3g    2.191212    13Ag     2.287509     8B3u    2.287740  
       8B2u    2.287740    12B1u    2.310959     7B2g    2.320603  
       7B3g    2.320603    13B1u    2.330076     3Au     2.330077  
      14Ag     2.446082     8B2g    2.855914     8B3g    2.855914  
      14B1u    3.772982    15Ag     4.262245    15B1u    4.931706  
       4B1g    8.083984    16Ag     8.084037     9B2u    8.114349  
       9B3u    8.114349     4Au     8.128346    16B1u    8.128399  
       9B3g    8.186777     9B2g    8.186777    17B1u    8.202580  
      17Ag     8.315212  

    Final Occupation by Irrep:
             Ag   B1g   B2g   B3g    Au   B1u   B2u   B3u 
    DOCC [     5,    0,    2,    2,    0,    4,    2,    2 ]

  @DF-RKS Final Energy:  -920.26720343385728

   => Energetics <=

    Nuclear Repulsion Energy =             77.0489799126126798
    One-Electron Energy =               -1423.4403638179855989
    Two-Electron Energy =                 468.6834858514071698
    DFT Exchange-Correlation Energy =     -42.7016470807150768
    Empirical Dispersion Energy =           0.0000000000000000
    VV10 Nonlocal Energy =                  0.1423417008236088
    Total Energy =                       -920.2672034338572757

Computation Completed


Properties will be evaluated at   0.000000,   0.000000,   0.000000 [a0]

Properties computed using the SCF density matrix

  Nuclear Dipole Moment: [e a0]
     X:     0.0000      Y:     0.0000      Z:     0.0000

  Electronic Dipole Moment: [e a0]
     X:     0.0000      Y:     0.0000      Z:     0.0000

  Dipole Moment: [e a0]
     X:     0.0000      Y:     0.0000      Z:     0.0000     Total:     0.0000

  Dipole Moment: [D]
     X:     0.0000      Y:     0.0000      Z:     0.0000     Total:     0.0000


*** tstop() called on bp1-compute00116.data.bp.acrc.priv at Tue Apr 27 17:37:12 2021
Module time:
	user time   =      35.57 seconds =       0.59 minutes
	system time =       1.27 seconds =       0.02 minutes
	total time  =          2 seconds =       0.03 minutes
Total time:
	user time   =     251.61 seconds =       4.19 minutes
	system time =       9.87 seconds =       0.16 minutes
	total time  =         12 seconds =       0.20 minutes

         ----------------------------------------------------------
                                   FINDIF
                     R. A. King and Jonathon Misiewicz
         ---------------------------------------------------------

  Computing gradient from energies.
    Using 3-point formula.
    Energy without displacement: -920.2672003701
    Check energies below for precision!
    Forces are for mass-weighted, symmetry-adapted cartesians (in au).

     Coord      Energy(-1)        Energy(+1)            Force
        0   -920.2671969821   -920.2672034339     -0.0006451729


-------------------------------------------------------------
  ## New Matrix (Symmetry 0) ##
  Irrep: 1 Size: 2 x 3

                 1                   2                   3

    1     0.00000000000000     0.00000000000000    -0.00269775070740
    2     0.00000000000000     0.00000000000000     0.00269775070740




			-----------------------------------------
			 OPTKING 2.0: for geometry optimizations 
			  - R.A. King,  Bethel University        
			-----------------------------------------
	At level 1: Red. Int., RFO, no backsteps, dynamic trust

	Previous internal coordinate definitions found.
	---Fragment 1 Geometry and Gradient---
	 CL          0.0000000000        0.0000000000       -1.8760282906
	 CL          0.0000000000        0.0000000000        1.8760282906
	             0.0000000000        0.0000000000       -0.0026977507
	             0.0000000000        0.0000000000        0.0026977507

	---Fragment 1 Intrafragment Coordinates---
	 - Coordinate -           - BOHR/RAD -       - ANG/DEG -
	 R(1,2)           =         3.752057	       1.985503

	Current energy   :      -920.2672003701

	Energy change for the previous step:
		Projected    :         0.0000656484
		Actual       :        -0.0001052725

	Performing BFGS update.
	Previous computed or guess Hessian on step 1.
	Steps to be used in Hessian update: 1
	Taking RFO optimization step.
	Going to follow RFO solution 1.
	Using RFO vector 1.
	Norm of target step-size    0.01220
	Projected energy change by RFO approximation:         0.0000415047

	Back-transformation to cartesian coordinates...
	Successfully converged to displaced geometry.

	--- Internal Coordinate Step in ANG or DEG, aJ/ANG or AJ/DEG ---
	 ---------------------------------------------------------------------------
	   Coordinate                Previous        Force       Change         New 
	   ----------                --------       ------       ------       ------
	    1 R(1,2)          =      1.985503    -0.022226    -0.006456     1.979047
	 ---------------------------------------------------------------------------
	Successfully symmetrized geometry.

  ==> Convergence Check <==

  Measures of convergence in internal coordinates in au.
  Criteria marked as inactive (o), active & met (*), and active & unmet ( ).
  ---------------------------------------------------------------------------------------------
   Step     Total Energy     Delta E     MAX Force     RMS Force      MAX Disp      RMS Disp   
  ---------------------------------------------------------------------------------------------
    Convergence Criteria    1.00e-06 *    3.00e-04 *             o    1.20e-03 *             o
  ---------------------------------------------------------------------------------------------
      2    -920.26720037   -1.05e-04      2.70e-03      2.70e-03 o    1.22e-02      1.22e-02 o  ~
  ---------------------------------------------------------------------------------------------

	Writing optimization data to binary file.
	Structure for next step:
	Cartesian Geometry (in Angstrom)
	   CL     0.0000000000   0.0000000000  -0.9895233380
	   CL     0.0000000000   0.0000000000   0.9895233380
			--------------------------
			 OPTKING Finished Execution 
			--------------------------

    Structure for next step:
    Molecular point group: d2h
    Full point group: D_inf_h

    Geometry (in Angstrom), charge = 0, multiplicity = 1:

    CL           0.000000000000     0.000000000000    -0.989523341908
    CL           0.000000000000     0.000000000000     0.989523341908

gradient() will perform gradient computation by finite difference of analytic energies.

         ----------------------------------------------------------
                                   FINDIF
                     R. A. King and Jonathon Misiewicz
         ---------------------------------------------------------

  Using finite-differences of energies to determine gradients.
    Generating geometries for use with 3-point formula.
    Displacement size will be 5.00e-03.
    Number of atoms is 2.
    Number of symmetric SALCs is 1.
    Translations projected? 1. Rotations projected? 1.
    Number of geometries (including reference) is 3.

  //>>>>>>>>>>>>>>>>>>>>>>>>>>>>>>>>>>>//
  //    Loading displacement 1 of 3    //
  //<<<<<<<<<<<<<<<<<<<<<<<<<<<<<<<<<<<//

*** tstart() called on bp1-compute00116.data.bp.acrc.priv
*** at Tue Apr 27 17:37:12 2021

   => Loading Basis Set <=

    Name: CC-PV(T+D)Z
    Role: ORBITAL
    Keyword: BASIS
    atoms 1-2 entry CL         line   864 file /work/zw18965/.conda/envs/p4env/share/psi4/basis/cc-pv_tpd_z.gbs 


         ---------------------------------------------------------
                                   SCF
               by Justin Turney, Rob Parrish, Andy Simmonett
                          and Daniel G. A. Smith
                              RKS Reference
                       24 Threads, 137329 MiB Core
         ---------------------------------------------------------

  ==> Geometry <==

    Molecular point group: d2h
    Full point group: D_inf_h

    Geometry (in Angstrom), charge = 0, multiplicity = 1:

       Center              X                  Y                   Z               Mass       
    ------------   -----------------  -----------------  -----------------  -----------------
         CL           0.000000000000     0.000000000000    -0.989523341908    34.968852682000
         CL           0.000000000000     0.000000000000     0.989523341908    34.968852682000

  Running in d2h symmetry.

  Rotational constants: A = ************  B =      0.24617  C =      0.24617 [cm^-1]
  Rotational constants: A = ************  B =   7379.95534  C =   7379.95534 [MHz]
  Nuclear repulsion =   77.275698008642010

  Charge       = 0
  Multiplicity = 1
  Electrons    = 34
  Nalpha       = 17
  Nbeta        = 17

  ==> Algorithm <==

  SCF Algorithm Type is DF.
  DIIS enabled.
  MOM disabled.
  Fractional occupation disabled.
  Guess Type is READ.
  Energy threshold   = 1.00e-08
  Density threshold  = 1.00e-08
  Integral threshold = 0.00e+00

  ==> Primary Basis <==

  Basis Set: CC-PV(T+D)Z
    Blend: CC-PV(T+D)Z
    Number of shells: 26
    Number of basis function: 78
    Number of Cartesian functions: 90
    Spherical Harmonics?: true
    Max angular momentum: 3

  ==> DFT Potential <==

   => Composite Functional: WB97X-V <= 

    wB97X-V Hyb-GGA Exchange-Correlation Functional

    N. Mardirossian and M. Head-Gordon, Phys. Chem. Chem. Phys. 16, 9904 (2014)

    Deriv               =              1
    GGA                 =           TRUE
    Meta                =          FALSE

    Exchange Hybrid     =           TRUE
    MP2 Hybrid          =          FALSE

   => Exchange-Correlation Functionals <=

    1.0000   wB97X-V range-separated functional

   => Exact (HF) Exchange <=

    0.8330            HF,LR [omega = 0.3000]
    0.1670               HF 

   => VV10 Non-Local Parameters <=

    VV10 B              =     6.0000E+00
    VV10 C              =     1.0000E-02

   => Molecular Quadrature <=

    Radial Scheme          =       TREUTLER
    Pruning Scheme         =           FLAT
    Nuclear Scheme         =       TREUTLER

    BS radius alpha        =              1
    Pruning alpha          =              1
    Radial Points          =             75
    Spherical Points       =            302
    Total Points           =          42114
    Total Blocks           =            378
    Max Points             =            254
    Max Functions          =             78

   => Loading Basis Set <=

    Name: (CC-PV(T+D)Z AUX)
    Role: JKFIT
    Keyword: DF_BASIS_SCF
    atoms 1-2 entry CL         line   689 file /work/zw18965/.conda/envs/p4env/share/psi4/basis/cc-pvtz-jkfit.gbs 

   => Loading Basis Set <=

    Name: CC-PV(T+D)Z
    Role: ORBITAL
    Keyword: BASIS
    atoms 1-2 entry CL         line   864 file /work/zw18965/.conda/envs/p4env/share/psi4/basis/cc-pv_tpd_z.gbs 

  Reading orbitals from file 180, no projection.

  ==> Pre-Iterations <==

   -------------------------------------------------------
    Irrep   Nso     Nmo     Nalpha   Nbeta   Ndocc  Nsocc
   -------------------------------------------------------
     Ag        17      17       0       0       0       0
     B1g        4       4       0       0       0       0
     B2g        9       9       0       0       0       0
     B3g        9       9       0       0       0       0
     Au         4       4       0       0       0       0
     B1u       17      17       0       0       0       0
     B2u        9       9       0       0       0       0
     B3u        9       9       0       0       0       0
   -------------------------------------------------------
    Total      78      78      17      17      17       0
   -------------------------------------------------------

  ==> Integral Setup <==

  ==> DiskDFJK: Density-Fitted J/K Matrices <==

    J tasked:                  Yes
    K tasked:                  Yes
    wK tasked:                 Yes
    Omega:               3.000E-01
    OpenMP threads:             24
    Integrals threads:          24
    Memory [MiB]:           102908
    Algorithm:                Core
    Integral Cache:           NONE
    Schwarz Cutoff:          1E-12
    Fitting Condition:       1E-10

   => Auxiliary Basis Set <=

  Basis Set: (CC-PV(T+D)Z AUX)
    Blend: CC-PVTZ-JKFIT
    Number of shells: 74
    Number of basis function: 242
    Number of Cartesian functions: 290
    Spherical Harmonics?: true
    Max angular momentum: 4

  Cached 100.0% of DFT collocation blocks in 0.086 [GiB].

  Minimum eigenvalue in the overlap matrix is 6.4760039285E-03.
  Using Symmetric Orthogonalization.

  SCF Guess: Orbitals guess was supplied from a previous computation.

  ==> Iterations <==

                           Total Energy        Delta E     RMS |[F,P]|

   @DF-RKS iter   0:  -920.26984325303113   -9.20270e+02   4.25923e-04 
   @DF-RKS iter   1:  -920.26721262589490    2.63063e-03   9.52930e-05 DIIS
   @DF-RKS iter   2:  -920.26721471858684   -2.09269e-06   7.20438e-05 DIIS
   @DF-RKS iter   3:  -920.26721622623768   -1.50765e-06   3.93538e-06 DIIS
   @DF-RKS iter   4:  -920.26721623597530   -9.73762e-09   8.70049e-07 DIIS
   @DF-RKS iter   5:  -920.26721623649144   -5.16138e-10   2.67929e-07 DIIS
   @DF-RKS iter   6:  -920.26721623652031   -2.88765e-11   1.96515e-08 DIIS
   @DF-RKS iter   7:  -920.26721623652111   -7.95808e-13   1.96532e-09 DIIS
  Energy and wave function converged.


  ==> Post-Iterations <==

    Orbital Energies [Eh]
    ---------------------

    Doubly Occupied:                                                      

       1B1u -101.603544     1Ag  -101.603539     2Ag    -9.616666  
       2B1u   -9.616622     3Ag    -7.376347     3B1u   -7.376188  
       1B2u   -7.361836     1B3u   -7.361836     1B3g   -7.361835  
       1B2g   -7.361835     4Ag    -1.070537     4B1u   -0.890893  
       5Ag    -0.572665     2B3u   -0.523694     2B2u   -0.523694  
       2B2g   -0.407848     2B3g   -0.407848  

    Virtual:                                                              

       5B1u   -0.022431     6Ag     0.319202     6B1u    0.367672  
       3B3u    0.368252     3B2u    0.368252     4B3u    0.419058  
       4B2u    0.419058     7Ag     0.450384     1B1g    0.450384  
       3B2g    0.459710     3B3g    0.459710     8Ag     0.466597  
       1Au     0.552401     7B1u    0.552402     8B1u    0.669894  
       9Ag     0.710208     4B3g    0.739706     4B2g    0.739706  
       9B1u    1.126326     2B1g    1.754167    10Ag     1.754168  
      11Ag     1.806735     5B2u    1.818793     5B3u    1.818793  
       2Au     1.843396    10B1u    1.843398     5B3g    1.908401  
       5B2g    1.908401     6B3u    1.913455     6B2u    1.913455  
      11B1u    1.920604     3B1g    2.025416    12Ag     2.025417  
       7B2u    2.148076     7B3u    2.148076     6B3g    2.191645  
       6B2g    2.191645    13Ag     2.286869     8B3u    2.287709  
       8B2u    2.287709    12B1u    2.313735     7B2g    2.320616  
       7B3g    2.320616    13B1u    2.333069     3Au     2.333069  
      14Ag     2.457546     8B3g    2.863346     8B2g    2.863346  
      14B1u    3.773163    15Ag     4.262437    15B1u    4.942789  
       4B1g    8.084129    16Ag     8.084181     9B3u    8.115119  
       9B2u    8.115119     4Au     8.128595    16B1u    8.128647  
       9B3g    8.186735     9B2g    8.186735    17B1u    8.203501  
      17Ag     8.315233  

    Final Occupation by Irrep:
             Ag   B1g   B2g   B3g    Au   B1u   B2u   B3u 
    DOCC [     5,    0,    2,    2,    0,    4,    2,    2 ]

  @DF-RKS Final Energy:  -920.26721623652111

   => Energetics <=

[...]
       4B2u    0.419023     7Ag     0.450449     1B1g    0.450450  
       3B2g    0.459687     3B3g    0.459687     8Ag     0.466616  
       1Au     0.552344     7B1u    0.552345     8B1u    0.669661  
       9Ag     0.709992     4B2g    0.739521     4B3g    0.739521  
       9B1u    1.126174     2B1g    1.754174    10Ag     1.754175  
      11Ag     1.806954     5B3u    1.818741     5B2u    1.818741  
       2Au     1.843381    10B1u    1.843383     5B2g    1.908344  
       5B3g    1.908344     6B2u    1.913359     6B3u    1.913359  
      11B1u    1.920668     3B1g    2.025616    12Ag     2.025616  
       7B2u    2.148138     7B3u    2.148138     6B3g    2.191597  
       6B2g    2.191597    13Ag     2.286944     8B3u    2.287712  
       8B2u    2.287712    12B1u    2.313431     7B2g    2.320614  
       7B3g    2.320614    13B1u    2.332742     3Au     2.332743  
      14Ag     2.456289     8B3g    2.862538     8B2g    2.862538  
      14B1u    3.773165    15Ag     4.262417    15B1u    4.941569  
       4B1g    8.084113    16Ag     8.084165     9B3u    8.115036  
       9B2u    8.115036     4Au     8.128568    16B1u    8.128620  
       9B2g    8.186739     9B3g    8.186739    17B1u    8.203390  
      17Ag     8.315236  

    Final Occupation by Irrep:
             Ag   B1g   B2g   B3g    Au   B1u   B2u   B3u 
    DOCC [     5,    0,    2,    2,    0,    4,    2,    2 ]

  @DF-RKS Final Energy:  -920.26721620223373

   => Energetics <=

    Nuclear Repulsion Energy =             77.2509982048031532
    One-Electron Energy =               -1423.8440114247466681
    Two-Electron Energy =                 468.8867426767403117
    DFT Exchange-Correlation Energy =     -42.7032774190749720
    Empirical Dispersion Energy =           0.0000000000000000
    VV10 Nonlocal Energy =                  0.1423317600443347
    Total Energy =                       -920.2672162022337261

Computation Completed


Properties will be evaluated at   0.000000,   0.000000,   0.000000 [a0]

Properties computed using the SCF density matrix

  Nuclear Dipole Moment: [e a0]
     X:     0.0000      Y:     0.0000      Z:    -0.0000

  Electronic Dipole Moment: [e a0]
     X:     0.0000      Y:     0.0000      Z:     0.0000

  Dipole Moment: [e a0]
     X:     0.0000      Y:     0.0000      Z:    -0.0000     Total:     0.0000

  Dipole Moment: [D]
     X:     0.0000      Y:     0.0000      Z:    -0.0000     Total:     0.0000


*** tstop() called on bp1-compute00116.data.bp.acrc.priv at Tue Apr 27 17:37:27 2021
Module time:
	user time   =      48.69 seconds =       0.81 minutes
	system time =       1.61 seconds =       0.03 minutes
	total time  =          2 seconds =       0.03 minutes
Total time:
	user time   =     602.22 seconds =      10.04 minutes
	system time =      22.42 seconds =       0.37 minutes
	total time  =         27 seconds =       0.45 minutes

  //>>>>>>>>>>>>>>>>>>>>>>>>>>>>>>>>>>>//
  //    Loading displacement 3 of 3    //
  //<<<<<<<<<<<<<<<<<<<<<<<<<<<<<<<<<<<//

*** tstart() called on bp1-compute00116.data.bp.acrc.priv
*** at Tue Apr 27 17:37:27 2021

   => Loading Basis Set <=

    Name: CC-PV(T+D)Z
    Role: ORBITAL
    Keyword: BASIS
    atoms 1-2 entry CL         line   864 file /work/zw18965/.conda/envs/p4env/share/psi4/basis/cc-pv_tpd_z.gbs 


         ---------------------------------------------------------
                                   SCF
               by Justin Turney, Rob Parrish, Andy Simmonett
                          and Daniel G. A. Smith
                              RKS Reference
                       24 Threads, 137329 MiB Core
         ---------------------------------------------------------

  ==> Geometry <==

    Molecular point group: d2h
    Full point group: D_inf_h

    Geometry (in Angstrom), charge = 0, multiplicity = 1:

       Center              X                  Y                   Z               Mass       
    ------------   -----------------  -----------------  -----------------  -----------------
         CL           0.000000000000     0.000000000000    -0.989206957227    34.968852682000
         CL           0.000000000000     0.000000000000     0.989206957227    34.968852682000

  Running in d2h symmetry.

  Rotational constants: A = ************  B =      0.24633  C =      0.24633 [cm^-1]
  Rotational constants: A = ************  B =   7384.67686  C =   7384.67686 [MHz]
  Nuclear repulsion =   77.300413612287969

  Charge       = 0
  Multiplicity = 1
  Electrons    = 34
  Nalpha       = 17
  Nbeta        = 17

  ==> Algorithm <==

  SCF Algorithm Type is DF.
  DIIS enabled.
  MOM disabled.
  Fractional occupation disabled.
  Guess Type is SAD.
  Energy threshold   = 1.00e-10
  Density threshold  = 1.00e-10
  Integral threshold = 0.00e+00

  ==> Primary Basis <==

  Basis Set: CC-PV(T+D)Z
    Blend: CC-PV(T+D)Z
    Number of shells: 26
    Number of basis function: 78
    Number of Cartesian functions: 90
    Spherical Harmonics?: true
    Max angular momentum: 3

  ==> DFT Potential <==

   => Composite Functional: WB97X-V <= 

    wB97X-V Hyb-GGA Exchange-Correlation Functional

    N. Mardirossian and M. Head-Gordon, Phys. Chem. Chem. Phys. 16, 9904 (2014)

    Deriv               =              1
    GGA                 =           TRUE
    Meta                =          FALSE

    Exchange Hybrid     =           TRUE
    MP2 Hybrid          =          FALSE

   => Exchange-Correlation Functionals <=

    1.0000   wB97X-V range-separated functional

   => Exact (HF) Exchange <=

    0.8330            HF,LR [omega = 0.3000]
    0.1670               HF 

   => VV10 Non-Local Parameters <=

    VV10 B              =     6.0000E+00
    VV10 C              =     1.0000E-02

   => Molecular Quadrature <=

    Radial Scheme          =       TREUTLER
    Pruning Scheme         =           FLAT
    Nuclear Scheme         =       TREUTLER

    BS radius alpha        =              1
    Pruning alpha          =              1
    Radial Points          =             75
    Spherical Points       =            302
    Total Points           =          42114
    Total Blocks           =            378
    Max Points             =            254
    Max Functions          =             78

   => Loading Basis Set <=

    Name: (CC-PV(T+D)Z AUX)
    Role: JKFIT
    Keyword: DF_BASIS_SCF
    atoms 1-2 entry CL         line   689 file /work/zw18965/.conda/envs/p4env/share/psi4/basis/cc-pvtz-jkfit.gbs 

  ==> Pre-Iterations <==

   -------------------------------------------------------
    Irrep   Nso     Nmo     Nalpha   Nbeta   Ndocc  Nsocc
   -------------------------------------------------------
     Ag        17      17       0       0       0       0
     B1g        4       4       0       0       0       0
     B2g        9       9       0       0       0       0
     B3g        9       9       0       0       0       0
     Au         4       4       0       0       0       0
     B1u       17      17       0       0       0       0
     B2u        9       9       0       0       0       0
     B3u        9       9       0       0       0       0
   -------------------------------------------------------
    Total      78      78      17      17      17       0
   -------------------------------------------------------

  ==> Integral Setup <==

  ==> DiskDFJK: Density-Fitted J/K Matrices <==

    J tasked:                  Yes
    K tasked:                  Yes
    wK tasked:                 Yes
    Omega:               3.000E-01
    OpenMP threads:             24
    Integrals threads:          24
    Memory [MiB]:           102908
    Algorithm:                Core
    Integral Cache:           NONE
    Schwarz Cutoff:          1E-12
    Fitting Condition:       1E-10

   => Auxiliary Basis Set <=

  Basis Set: (CC-PV(T+D)Z AUX)
    Blend: CC-PVTZ-JKFIT
    Number of shells: 74
    Number of basis function: 242
    Number of Cartesian functions: 290
    Spherical Harmonics?: true
    Max angular momentum: 4

  Cached 100.0% of DFT collocation blocks in 0.086 [GiB].

  Minimum eigenvalue in the overlap matrix is 6.4682195498E-03.
  Using Symmetric Orthogonalization.

  SCF Guess: Superposition of Atomic Densities via on-the-fly atomic UHF.

  ==> Iterations <==

                           Total Energy        Delta E     RMS |[F,P]|

   @DF-RKS iter SAD:  -920.15634495829499   -9.20156e+02   0.00000e+00 
   @DF-RKS iter   1:  -920.24997039923244   -9.36254e-02   7.26084e-03 DIIS
   @DF-RKS iter   2:  -920.26317368485468   -1.32033e-02   3.98323e-03 DIIS
   @DF-RKS iter   3:  -920.26710532689845   -3.93164e-03   4.82841e-04 DIIS
   @DF-RKS iter   4:  -920.26720273122578   -9.74043e-05   1.53290e-04 DIIS
   @DF-RKS iter   5:  -920.26721550679224   -1.27756e-05   2.08702e-05 DIIS
   @DF-RKS iter   6:  -920.26721593257912   -4.25787e-07   2.09153e-06 DIIS
   @DF-RKS iter   7:  -920.26721593656396   -3.98484e-09   3.27455e-07 DIIS
   @DF-RKS iter   8:  -920.26721593664467   -8.07177e-11   4.24856e-08 DIIS
   @DF-RKS iter   9:  -920.26721593664547   -7.95808e-13   2.53989e-09 DIIS
   @DF-RKS iter  10:  -920.26721593664570   -2.27374e-13   2.37827e-10 DIIS
   @DF-RKS iter  11:  -920.26721593664467    1.02318e-12   3.80085e-11 DIIS
  Energy and wave function converged.


  ==> Post-Iterations <==

    Orbital Energies [Eh]
    ---------------------

    Doubly Occupied:                                                      

       1B1u -101.603512     1Ag  -101.603507     2Ag    -9.616644  
       2B1u   -9.616600     3Ag    -7.376323     3B1u   -7.376164  
       1B3u   -7.361814     1B2u   -7.361814     1B2g   -7.361814  
       1B3g   -7.361814     4Ag    -1.070702     4B1u   -0.890823  
       5Ag    -0.572736     2B3u   -0.523773     2B2u   -0.523773  
       2B2g   -0.407787     2B3g   -0.407787  

    Virtual:                                                              

       5B1u   -0.022217     6Ag     0.319122     6B1u    0.367668  
       3B2u    0.368186     3B3u    0.368186     4B3u    0.419092  
       4B2u    0.419092     7Ag     0.450318     1B1g    0.450319  
       3B3g    0.459733     3B2g    0.459733     8Ag     0.466579  
       1Au     0.552457     7B1u    0.552458     8B1u    0.670128  
       9Ag     0.710424     4B3g    0.739891     4B2g    0.739891  
       9B1u    1.126478     2B1g    1.754161    10Ag     1.754161  
      11Ag     1.806516     5B3u    1.818844     5B2u    1.818844  
       2Au     1.843411    10B1u    1.843413     5B2g    1.908458  
       5B3g    1.908458     6B2u    1.913554     6B3u    1.913554  
      11B1u    1.920541     3B1g    2.025217    12Ag     2.025217  
       7B3u    2.148014     7B2u    2.148014     6B2g    2.191692  
       6B3g    2.191692    13Ag     2.286793     8B2u    2.287705  
       8B3u    2.287705    12B1u    2.314040     7B3g    2.320617  
       7B2g    2.320617    13B1u    2.333396     3Au     2.333396  
      14Ag     2.458804     8B3g    2.864155     8B2g    2.864155  
      14B1u    3.773156    15Ag     4.262457    15B1u    4.944013  
       4B1g    8.084145    16Ag     8.084197     9B3u    8.115201  
       9B2u    8.115201     4Au     8.128622    16B1u    8.128674  
       9B2g    8.186730     9B3g    8.186730    17B1u    8.203615  
      17Ag     8.315230  

    Final Occupation by Irrep:
             Ag   B1g   B2g   B3g    Au   B1u   B2u   B3u 
    DOCC [     5,    0,    2,    2,    0,    4,    2,    2 ]

  @DF-RKS Final Energy:  -920.26721593664467

   => Energetics <=

    Nuclear Repulsion Energy =             77.3004136122879686
    One-Electron Energy =               -1423.9427386895440577
    Two-Electron Energy =                 468.9364573465447847
    DFT Exchange-Correlation Energy =     -42.7036775432581308
    Empirical Dispersion Energy =           0.0000000000000000
    VV10 Nonlocal Energy =                  0.1423293373247469
    Total Energy =                       -920.2672159366446749

Computation Completed


Properties will be evaluated at   0.000000,   0.000000,   0.000000 [a0]

Properties computed using the SCF density matrix

  Nuclear Dipole Moment: [e a0]
     X:     0.0000      Y:     0.0000      Z:    -0.0000

  Electronic Dipole Moment: [e a0]
     X:     0.0000      Y:     0.0000      Z:     0.0000

  Dipole Moment: [e a0]
     X:     0.0000      Y:     0.0000      Z:    -0.0000     Total:     0.0000

  Dipole Moment: [D]
     X:     0.0000      Y:     0.0000      Z:    -0.0000     Total:     0.0000


*** tstop() called on bp1-compute00116.data.bp.acrc.priv at Tue Apr 27 17:37:29 2021
Module time:
	user time   =      48.91 seconds =       0.82 minutes
	system time =       1.59 seconds =       0.03 minutes
	total time  =          2 seconds =       0.03 minutes
Total time:
	user time   =     651.27 seconds =      10.85 minutes
	system time =      24.01 seconds =       0.40 minutes
	total time  =         29 seconds =       0.48 minutes

         ----------------------------------------------------------
                                   FINDIF
                     R. A. King and Jonathon Misiewicz
         ---------------------------------------------------------

  Computing second-derivative from energies using projected, 
  symmetry-adapted, cartesian coordinates.

  3 energies passed in, including the reference geometry.
    Using 3-point formula.
    Energy without displacement: -920.2672162365
    Check energies below for precision!
    0: -1 :      -920.2672162022
    0: 1  :      -920.2672159366

-------------------------------------------------------------


  ==> Harmonic Vibrational Analysis <==

  non-mass-weighted Hessian:       Symmetric? True   Hermitian? True   Lin Dep Dim?  5 (0)
  projection of translations (True) and rotations (True) removed 5 degrees of freedom (5)
  total projector:                 Symmetric? True   Hermitian? True   Lin Dep Dim?  5 (5)
  mass-weighted Hessian:           Symmetric? True   Hermitian? True   Lin Dep Dim?  5 (0)
  pre-proj  low-frequency mode:    0.0000  [cm^-1]
  pre-proj  low-frequency mode:    0.0000  [cm^-1]
  pre-proj  low-frequency mode:    0.0000  [cm^-1]
  pre-proj  low-frequency mode:    0.0000  [cm^-1]
  pre-proj  low-frequency mode:    0.0000  [cm^-1]
  pre-proj  all modes:['0.0000' '0.0000' '0.0000' '0.0000' '0.0000' '594.3099']
  projected mass-weighted Hessian: Symmetric? True   Hermitian? True   Lin Dep Dim?  5 (5)
  post-proj low-frequency mode:    0.0000  [cm^-1] (TR)
  post-proj low-frequency mode:    0.0000  [cm^-1] (TR)
  post-proj low-frequency mode:    0.0000  [cm^-1] (TR)
  post-proj low-frequency mode:    0.0000  [cm^-1] (TR)
  post-proj low-frequency mode:    0.0000  [cm^-1] (TR)
  post-proj  all modes:['0.0000' '0.0000' '0.0000' '0.0000' '0.0000' '594.3099']

  Vibration                       6           
  Freq [cm^-1]                 594.3099       
  Irrep                           Ag          
  Reduced mass [u]             34.9689        
  Force const [mDyne/A]         7.2771        
  Turning point v=0 [a0]        0.0761        
  RMS dev v=0 [a0 u^1/2]        0.3183        
  Char temp [K]                855.0796       
  ----------------------------------------------------------------------------------
      1   CL               0.00  0.00  0.71   
      2   CL               0.00  0.00 -0.71   

  ==> Thermochemistry Components <==

  Entropy, S
    Electronic S            0.000 [cal/(mol K)]        0.000 [J/(mol K)]       0.00000000 [mEh/K] (multiplicity = 1)
    Translational S        38.652 [cal/(mol K)]      161.721 [J/(mol K)]       0.06159614 [mEh/K] (mol. weight = 69.9377 [u], P = 101325.00 [Pa])
    Rotational S           13.995 [cal/(mol K)]       58.554 [J/(mol K)]       0.02230193 [mEh/K] (symmetry no. = 2)
    Vibrational S           0.460 [cal/(mol K)]        1.923 [J/(mol K)]       0.00073233 [mEh/K]
  Total S                  53.106 [cal/(mol K)]      222.197 [J/(mol K)]       0.08463039 [mEh/K]
  Correction S              0.000 [cal/(mol K)]        0.000 [J/(mol K)]       0.00000000 [mEh/K]

  Constant volume heat capacity, Cv
    Electronic Cv           0.000 [cal/(mol K)]        0.000 [J/(mol K)]       0.00000000 [mEh/K]
    Translational Cv        2.981 [cal/(mol K)]       12.472 [J/(mol K)]       0.00475022 [mEh/K]
    Rotational Cv           1.987 [cal/(mol K)]        8.314 [J/(mol K)]       0.00316681 [mEh/K]
    Vibrational Cv          1.044 [cal/(mol K)]        4.368 [J/(mol K)]       0.00166355 [mEh/K]
  Total Cv                  6.012 [cal/(mol K)]       25.154 [J/(mol K)]       0.00958058 [mEh/K]
  Correction Cv             0.000 [cal/(mol K)]        0.000 [J/(mol K)]       0.00000000 [mEh/K]

  Constant pressure heat capacity, Cp
    Electronic Cp           0.000 [cal/(mol K)]        0.000 [J/(mol K)]       0.00000000 [mEh/K]
    Translational Cp        4.968 [cal/(mol K)]       20.786 [J/(mol K)]       0.00791703 [mEh/K]
    Rotational Cp           1.987 [cal/(mol K)]        8.314 [J/(mol K)]       0.00316681 [mEh/K]
    Vibrational Cp          1.044 [cal/(mol K)]        4.368 [J/(mol K)]       0.00166355 [mEh/K]
  Total Cp                  7.999 [cal/(mol K)]       33.468 [J/(mol K)]       0.01274739 [mEh/K]
  Correction Cp             0.000 [cal/(mol K)]        0.000 [J/(mol K)]       0.00000000 [mEh/K]

  ==> Thermochemistry Energy Analysis <==

  Raw electronic energy, E0
  Total E0, Electronic energy at well bottom at 0 [K]                 -920.26721624 [Eh]

  Zero-point energy, ZPE_vib = Sum_i nu_i / 2
    Electronic ZPE          0.000 [kcal/mol]        0.000 [kJ/mol]       0.00000000 [Eh]
    Translational ZPE       0.000 [kcal/mol]        0.000 [kJ/mol]       0.00000000 [Eh]
    Rotational ZPE          0.000 [kcal/mol]        0.000 [kJ/mol]       0.00000000 [Eh]
    Vibrational ZPE         0.850 [kcal/mol]        3.555 [kJ/mol]       0.00135394 [Eh]         297.155 [cm^-1]
  Correction ZPE            0.850 [kcal/mol]        3.555 [kJ/mol]       0.00135394 [Eh]         297.155 [cm^-1]
  Total ZPE, Electronic energy at 0 [K]                               -920.26586230 [Eh]

  Thermal Energy, E (includes ZPE)
    Electronic E            0.000 [kcal/mol]        0.000 [kJ/mol]       0.00000000 [Eh]
    Translational E         0.889 [kcal/mol]        3.718 [kJ/mol]       0.00141628 [Eh]
    Rotational E            0.592 [kcal/mol]        2.479 [kJ/mol]       0.00094418 [Eh]
    Vibrational E           0.952 [kcal/mol]        3.983 [kJ/mol]       0.00151705 [Eh]
  Correction E              2.433 [kcal/mol]       10.180 [kJ/mol]       0.00387751 [Eh]
  Total E, Electronic energy at  298.15 [K]                           -920.26333872 [Eh]

  Enthalpy, H_trans = E_trans + k_B * T
    Electronic H            0.000 [kcal/mol]        0.000 [kJ/mol]       0.00000000 [Eh]
    Translational H         1.481 [kcal/mol]        6.197 [kJ/mol]       0.00236046 [Eh]
    Rotational H            0.592 [kcal/mol]        2.479 [kJ/mol]       0.00094418 [Eh]
    Vibrational H           0.952 [kcal/mol]        3.983 [kJ/mol]       0.00151705 [Eh]
  Correction H              3.026 [kcal/mol]       12.659 [kJ/mol]       0.00482170 [Eh]
  Total H, Enthalpy at  298.15 [K]                                    -920.26239454 [Eh]

  Gibbs free energy, G = H - T * S
    Electronic G            0.000 [kcal/mol]        0.000 [kJ/mol]       0.00000000 [Eh]
    Translational G       -10.043 [kcal/mol]      -42.020 [kJ/mol]      -0.01600443 [Eh]
    Rotational G           -3.580 [kcal/mol]      -14.979 [kJ/mol]      -0.00570513 [Eh]
    Vibrational G           0.815 [kcal/mol]        3.410 [kJ/mol]       0.00129871 [Eh]
  Correction G            -12.808 [kcal/mol]      -53.589 [kJ/mol]      -0.02041085 [Eh]
  Total G, Free enthalpy at  298.15 [K]                               -920.28762709 [Eh]

    Psi4 stopped on: Tuesday, 27 April 2021 05:37PM
    Psi4 wall time for execution: 0:00:29.12

*** Psi4 exiting successfully. Buy a developer a beer!
