
    -----------------------------------------------------------------------
          Psi4: An Open-Source Ab Initio Electronic Structure Package
                               Psi4 1.3.2 release

                         Git: Rev {HEAD} ecbda83 


    R. M. Parrish, L. A. Burns, D. G. A. Smith, A. C. Simmonett,
    A. E. DePrince III, E. G. Hohenstein, U. Bozkaya, A. Yu. Sokolov,
    R. Di Remigio, R. M. Richard, J. F. Gonthier, A. M. James,
    H. R. McAlexander, A. Kumar, M. Saitow, X. Wang, B. P. Pritchard,
    P. Verma, H. F. Schaefer III, K. Patkowski, R. A. King, E. F. Valeev,
    F. A. Evangelista, J. M. Turney, T. D. Crawford, and C. D. Sherrill,
    J. Chem. Theory Comput. 13(7) pp 3185--3197 (2017).
    (doi: 10.1021/acs.jctc.7b00174)


                         Additional Contributions by
    P. Kraus, H. Kruse, M. H. Lechner, M. C. Schieber, R. A. Shaw,
    A. Alenaizan, R. Galvelis, Z. L. Glick, S. Lehtola, and J. P. Misiewicz

    -----------------------------------------------------------------------


    Psi4 started on: Tuesday, 27 April 2021 05:37PM

    Process ID: 122556
    Host:       bp1-compute00092.data.bp.acrc.priv
    PSIDATADIR: /work/zw18965/.conda/envs/p4env/share/psi4
    Memory:     500.0 MiB
    Threads:    24
    
  ==> Input File <==

--------------------------------------------------------------------------
memory 144 GB

molecule {
0 1
Cl 0.0000000000 0.0000000000 0.0000000000
C 0.0000000000 0.0000000000 1.6357056100
N 0.0000000000 0.0000000000 2.7976884200
}

set dynamic_level 1
set basis cc-pV(T+d)Z
 
optimize("wB97X-V")
frequencies("wB97X-V")
--------------------------------------------------------------------------

  Memory set to 134.110 GiB by Python driver.
gradient() will perform gradient computation by finite difference of analytic energies.

         ----------------------------------------------------------
                                   FINDIF
                     R. A. King and Jonathon Misiewicz
         ---------------------------------------------------------

  Using finite-differences of energies to determine gradients.
    Generating geometries for use with 3-point formula.
    Displacement size will be 5.00e-03.
    Number of atoms is 3.
    Number of symmetric SALCs is 2.
    Translations projected? 1. Rotations projected? 1.
    Number of geometries (including reference) is 5.

  //>>>>>>>>>>>>>>>>>>>>>>>>>>>>>>>>>>>//
  //    Loading displacement 1 of 5    //
  //<<<<<<<<<<<<<<<<<<<<<<<<<<<<<<<<<<<//

*** tstart() called on bp1-compute00092.data.bp.acrc.priv
*** at Tue Apr 27 17:37:02 2021

   => Loading Basis Set <=

    Name: CC-PV(T+D)Z
    Role: ORBITAL
    Keyword: BASIS
    atoms 1 entry CL         line   864 file /work/zw18965/.conda/envs/p4env/share/psi4/basis/cc-pv_tpd_z.gbs 
    atoms 2 entry C          line   195 file /work/zw18965/.conda/envs/p4env/share/psi4/basis/cc-pv_tpd_z.gbs 
    atoms 3 entry N          line   233 file /work/zw18965/.conda/envs/p4env/share/psi4/basis/cc-pv_tpd_z.gbs 


         ---------------------------------------------------------
                                   SCF
               by Justin Turney, Rob Parrish, Andy Simmonett
                          and Daniel G. A. Smith
                              RKS Reference
                       24 Threads, 137329 MiB Core
         ---------------------------------------------------------

  ==> Geometry <==

    Molecular point group: c2v
    Full point group: C_inf_v

    Geometry (in Angstrom), charge = 0, multiplicity = 1:

       Center              X                  Y                   Z               Mass       
    ------------   -----------------  -----------------  -----------------  -----------------
         CL           0.000000000000     0.000000000000    -0.964455422395    34.968852682000
         C            0.000000000000     0.000000000000     0.671250187605    12.000000000000
         N            0.000000000000     0.000000000000     1.833232997605    14.003074004430

  Running in c2v symmetry.

  Rotational constants: A = ************  B =      0.19834  C =      0.19834 [cm^-1]
  Rotational constants: A = ************  B =   5946.00023  C =   5946.00023 [MHz]
  Nuclear repulsion =   74.634432970989252

  Charge       = 0
  Multiplicity = 1
  Electrons    = 30
  Nalpha       = 15
  Nbeta        = 15

  ==> Algorithm <==

  SCF Algorithm Type is DF.
  DIIS enabled.
  MOM disabled.
  Fractional occupation disabled.
  Guess Type is SAD.
  Energy threshold   = 1.00e-08
  Density threshold  = 1.00e-08
  Integral threshold = 0.00e+00

  ==> Primary Basis <==

  Basis Set: CC-PV(T+D)Z
    Blend: CC-PV(T+D)Z
    Number of shells: 33
    Number of basis function: 99
    Number of Cartesian functions: 115
    Spherical Harmonics?: true
    Max angular momentum: 3

  ==> DFT Potential <==

   => Composite Functional: WB97X-V <= 

    wB97X-V Hyb-GGA Exchange-Correlation Functional

    N. Mardirossian and M. Head-Gordon, Phys. Chem. Chem. Phys. 16, 9904 (2014)

    Deriv               =              1
    GGA                 =           TRUE
    Meta                =          FALSE

    Exchange Hybrid     =           TRUE
    MP2 Hybrid          =          FALSE

   => Exchange-Correlation Functionals <=

    1.0000   wB97X-V range-separated functional

   => Exact (HF) Exchange <=

    0.8330            HF,LR [omega = 0.3000]
    0.1670               HF 

   => VV10 Non-Local Parameters <=

    VV10 B              =     6.0000E+00
    VV10 C              =     1.0000E-02

   => Molecular Quadrature <=

    Radial Scheme          =       TREUTLER
    Pruning Scheme         =           FLAT
    Nuclear Scheme         =       TREUTLER

    BS radius alpha        =              1
    Pruning alpha          =              1
    Radial Points          =             75
    Spherical Points       =            302
    Total Points           =          64834
    Total Blocks           =            566
    Max Points             =            253
    Max Functions          =             99

   => Loading Basis Set <=

    Name: (CC-PV(T+D)Z AUX)
    Role: JKFIT
    Keyword: DF_BASIS_SCF
    atoms 1 entry CL         line   689 file /work/zw18965/.conda/envs/p4env/share/psi4/basis/cc-pvtz-jkfit.gbs 
    atoms 2 entry C          line   125 file /work/zw18965/.conda/envs/p4env/share/psi4/basis/cc-pvtz-jkfit.gbs 
    atoms 3 entry N          line   177 file /work/zw18965/.conda/envs/p4env/share/psi4/basis/cc-pvtz-jkfit.gbs 

  ==> Pre-Iterations <==

   -------------------------------------------------------
    Irrep   Nso     Nmo     Nalpha   Nbeta   Ndocc  Nsocc
   -------------------------------------------------------
     A1        43      43       0       0       0       0
     A2        10      10       0       0       0       0
     B1        23      23       0       0       0       0
     B2        23      23       0       0       0       0
   -------------------------------------------------------
    Total      99      99      15      15      15       0
   -------------------------------------------------------

  ==> Integral Setup <==

  ==> DiskDFJK: Density-Fitted J/K Matrices <==

    J tasked:                  Yes
    K tasked:                  Yes
    wK tasked:                 Yes
    Omega:               3.000E-01
    OpenMP threads:             24
    Integrals threads:          24
    Memory [MiB]:           102829
    Algorithm:                Core
    Integral Cache:           NONE
    Schwarz Cutoff:          1E-12
    Fitting Condition:       1E-10

   => Auxiliary Basis Set <=

  Basis Set: (CC-PV(T+D)Z AUX)
    Blend: CC-PVTZ-JKFIT
    Number of shells: 87
    Number of basis function: 279
    Number of Cartesian functions: 337
    Spherical Harmonics?: true
    Max angular momentum: 4

  Cached 100.0% of DFT collocation blocks in 0.163 [GiB].

  Minimum eigenvalue in the overlap matrix is 1.3122086050E-03.
  Using Symmetric Orthogonalization.

  SCF Guess: Superposition of Atomic Densities via on-the-fly atomic UHF.

  ==> Iterations <==

                           Total Energy        Delta E     RMS |[F,P]|

   @DF-RKS iter SAD:  -552.44454364480612   -5.52445e+02   0.00000e+00 
   @DF-RKS iter   1:  -552.79528281432158   -3.50739e-01   1.14188e-02 DIIS
   @DF-RKS iter   2:  -552.61328199256297    1.82001e-01   1.63060e-02 DIIS
   @DF-RKS iter   3:  -552.96657568009675   -3.53294e-01   1.28942e-03 DIIS
   @DF-RKS iter   4:  -552.96886281237551   -2.28713e-03   5.56250e-04 DIIS
   @DF-RKS iter   5:  -552.96933366380949   -4.70851e-04   1.41285e-04 DIIS
   @DF-RKS iter   6:  -552.96937840135604   -4.47375e-05   3.24574e-05 DIIS
   @DF-RKS iter   7:  -552.96938279182143   -4.39047e-06   5.47345e-06 DIIS
   @DF-RKS iter   8:  -552.96938289069453   -9.88731e-08   1.55548e-06 DIIS
   @DF-RKS iter   9:  -552.96938289673028   -6.03575e-09   3.03670e-07 DIIS
   @DF-RKS iter  10:  -552.96938289699460   -2.64322e-10   7.12407e-08 DIIS
   @DF-RKS iter  11:  -552.96938289700756   -1.29603e-11   8.84897e-09 DIIS
  Energy and wave function converged.


  ==> Post-Iterations <==

    Orbital Energies [Eh]
    ---------------------

    Doubly Occupied:                                                      

       1A1  -101.637094     2A1   -14.442395     3A1   -10.378250  
       4A1    -9.652039     5A1    -7.409282     1B2    -7.398285  
       1B1    -7.398285     6A1    -1.097663     7A1    -1.034142  
       8A1    -0.692069     2B1    -0.556424     2B2    -0.556424  
       9A1    -0.505316     3B2    -0.438880     3B1    -0.438880  

    Virtual:                                                              

      10A1     0.077006     4B2     0.098999     4B1     0.098999  
      11A1     0.237644    12A1     0.285989     5B2     0.367205  
       5B1     0.367205    13A1     0.424548     6B1     0.425628  
       6B2     0.425628     1A2     0.442723    14A1     0.442723  
      15A1     0.559660     7B2     0.570952     7B1     0.570952  
       8B1     0.668313     8B2     0.668313    16A1     0.712802  
      17A1     0.748130     2A2     0.748132    18A1     0.891839  
      19A1     1.100632    20A1     1.177701     9B2     1.194700  
       9B1     1.194700    21A1     1.287869     3A2     1.287869  
      22A1     1.640842    10B1     1.722471    10B2     1.722471  
       4A2     1.788222    23A1     1.788222    11B2     1.843328  
      11B1     1.843328    24A1     1.898258    25A1     2.061636  
      12B1     2.098704    12B2     2.098704     5A2     2.112880  
      26A1     2.112880    13B1     2.123162    13B2     2.123162  
      27A1     2.248442    14B2     2.266913    14B1     2.266913  
      28A1     2.522622    15B2     2.582617    15B1     2.582617  
      16B2     2.727445    16B1     2.727445    29A1     2.941915  
       6A2     2.975950    30A1     2.975952    31A1     3.032617  
       7A2     3.032620    17B2     3.042021    17B1     3.042021  
      18B1     3.415613    18B2     3.415613    32A1     3.564122  
      19B1     3.709524    19B2     3.709524    33A1     3.870765  
      20B1     4.058734    20B2     4.058734    34A1     4.332684  
       8A2     4.564824    35A1     4.564824     9A2     4.693671  
      36A1     4.693678    21B1     5.116823    21B2     5.116823  
      37A1     5.291650    38A1     5.594807    22B1     5.845887  
      22B2     5.845887    39A1     5.917897    40A1     6.980046  
      10A2     8.073420    41A1     8.073421    23B2     8.209586  
      23B1     8.209586    42A1     8.719723    43A1    14.619620  

    Final Occupation by Irrep:
             A1    A2    B1    B2 
    DOCC [     9,    0,    3,    3 ]

  @DF-RKS Final Energy:  -552.96938289700756

   => Energetics <=

    Nuclear Repulsion Energy =             74.6344329709892520
    One-Electron Energy =                -907.5961084029946733
    Two-Electron Energy =                 309.8368687000445902
    DFT Exchange-Correlation Energy =     -29.9690000968501877
    Empirical Dispersion Energy =           0.0000000000000000
    VV10 Nonlocal Energy =                  0.1244239318036111
    Total Energy =                       -552.9693828970075629

Computation Completed


Properties will be evaluated at   0.000000,   0.000000,   0.000000 [a0]

Properties computed using the SCF density matrix

  Nuclear Dipole Moment: [e a0]
     X:     0.0000      Y:     0.0000      Z:     0.8776

  Electronic Dipole Moment: [e a0]
     X:     0.0000      Y:     0.0000      Z:    -2.0153

  Dipole Moment: [e a0]
     X:     0.0000      Y:     0.0000      Z:    -1.1377     Total:     1.1377

  Dipole Moment: [D]
     X:     0.0000      Y:     0.0000      Z:    -2.8917     Total:     2.8917


*** tstop() called on bp1-compute00092.data.bp.acrc.priv at Tue Apr 27 17:37:06 2021
Module time:
	user time   =      72.77 seconds =       1.21 minutes
	system time =       3.10 seconds =       0.05 minutes
	total time  =          4 seconds =       0.07 minutes
Total time:
	user time   =      72.77 seconds =       1.21 minutes
	system time =       3.10 seconds =       0.05 minutes
	total time  =          4 seconds =       0.07 minutes

  //>>>>>>>>>>>>>>>>>>>>>>>>>>>>>>>>>>>//
  //    Loading displacement 2 of 5    //
  //<<<<<<<<<<<<<<<<<<<<<<<<<<<<<<<<<<<//

*** tstart() called on bp1-compute00092.data.bp.acrc.priv
*** at Tue Apr 27 17:37:06 2021

   => Loading Basis Set <=

    Name: CC-PV(T+D)Z
    Role: ORBITAL
    Keyword: BASIS
    atoms 1 entry CL         line   864 file /work/zw18965/.conda/envs/p4env/share/psi4/basis/cc-pv_tpd_z.gbs 
    atoms 2 entry C          line   195 file /work/zw18965/.conda/envs/p4env/share/psi4/basis/cc-pv_tpd_z.gbs 
    atoms 3 entry N          line   233 file /work/zw18965/.conda/envs/p4env/share/psi4/basis/cc-pv_tpd_z.gbs 


         ---------------------------------------------------------
                                   SCF
               by Justin Turney, Rob Parrish, Andy Simmonett
                          and Daniel G. A. Smith
                              RKS Reference
                       24 Threads, 137329 MiB Core
         ---------------------------------------------------------

  ==> Geometry <==

    Molecular point group: c2v
    Full point group: C_inf_v

    Geometry (in Angstrom), charge = 0, multiplicity = 1:

       Center              X                  Y                   Z               Mass       
    ------------   -----------------  -----------------  -----------------  -----------------
         CL           0.000000000000     0.000000000000    -0.964747620794    34.968852682000
         C            0.000000000000     0.000000000000     0.671643135099    12.000000000000
         N            0.000000000000     0.000000000000     1.833625945099    14.003074004430

  Running in c2v symmetry.

  Rotational constants: A = ************  B =      0.19823  C =      0.19823 [cm^-1]
  Rotational constants: A = ************  B =   5942.76847  C =   5942.76847 [MHz]
  Nuclear repulsion =   74.615105711215932

  Charge       = 0
  Multiplicity = 1
  Electrons    = 30
  Nalpha       = 15
  Nbeta        = 15

  ==> Algorithm <==

  SCF Algorithm Type is DF.
  DIIS enabled.
  MOM disabled.
  Fractional occupation disabled.
  Guess Type is SAD.
  Energy threshold   = 1.00e-08
  Density threshold  = 1.00e-08
  Integral threshold = 0.00e+00

  ==> Primary Basis <==

  Basis Set: CC-PV(T+D)Z
    Blend: CC-PV(T+D)Z
    Number of shells: 33
    Number of basis function: 99
    Number of Cartesian functions: 115
    Spherical Harmonics?: true
    Max angular momentum: 3

  ==> DFT Potential <==

   => Composite Functional: WB97X-V <= 

    wB97X-V Hyb-GGA Exchange-Correlation Functional

    N. Mardirossian and M. Head-Gordon, Phys. Chem. Chem. Phys. 16, 9904 (2014)

    Deriv               =              1
    GGA                 =           TRUE
    Meta                =          FALSE

    Exchange Hybrid     =           TRUE
    MP2 Hybrid          =          FALSE

   => Exchange-Correlation Functionals <=

    1.0000   wB97X-V range-separated functional

   => Exact (HF) Exchange <=

    0.8330            HF,LR [omega = 0.3000]
    0.1670               HF 

   => VV10 Non-Local Parameters <=

    VV10 B              =     6.0000E+00
    VV10 C              =     1.0000E-02

   => Molecular Quadrature <=

    Radial Scheme          =       TREUTLER
    Pruning Scheme         =           FLAT
    Nuclear Scheme         =       TREUTLER

    BS radius alpha        =              1
    Pruning alpha          =              1
    Radial Points          =             75
    Spherical Points       =            302
    Total Points           =          64834
    Total Blocks           =            566
    Max Points             =            253
    Max Functions          =             99

   => Loading Basis Set <=

    Name: (CC-PV(T+D)Z AUX)
    Role: JKFIT
    Keyword: DF_BASIS_SCF
    atoms 1 entry CL         line   689 file /work/zw18965/.conda/envs/p4env/share/psi4/basis/cc-pvtz-jkfit.gbs 
    atoms 2 entry C          line   125 file /work/zw18965/.conda/envs/p4env/share/psi4/basis/cc-pvtz-jkfit.gbs 
    atoms 3 entry N          line   177 file /work/zw18965/.conda/envs/p4env/share/psi4/basis/cc-pvtz-jkfit.gbs 

  ==> Pre-Iterations <==

   -------------------------------------------------------
    Irrep   Nso     Nmo     Nalpha   Nbeta   Ndocc  Nsocc
   -------------------------------------------------------
     A1        43      43       0       0       0       0
     A2        10      10       0       0       0       0
     B1        23      23       0       0       0       0
     B2        23      23       0       0       0       0
   -------------------------------------------------------
    Total      99      99      15      15      15       0
   -------------------------------------------------------

  ==> Integral Setup <==

  ==> DiskDFJK: Density-Fitted J/K Matrices <==

    J tasked:                  Yes
    K tasked:                  Yes
    wK tasked:                 Yes
    Omega:               3.000E-01
    OpenMP threads:             24
    Integrals threads:          24
    Memory [MiB]:           102829
    Algorithm:                Core
    Integral Cache:           NONE
    Schwarz Cutoff:          1E-12
    Fitting Condition:       1E-10

   => Auxiliary Basis Set <=

  Basis Set: (CC-PV(T+D)Z AUX)
    Blend: CC-PVTZ-JKFIT
    Number of shells: 87
    Number of basis function: 279
    Number of Cartesian functions: 337
    Spherical Harmonics?: true
    Max angular momentum: 4

  Cached 100.0% of DFT collocation blocks in 0.163 [GiB].

  Minimum eigenvalue in the overlap matrix is 1.3135006954E-03.
  Using Symmetric Orthogonalization.

  SCF Guess: Superposition of Atomic Densities via on-the-fly atomic UHF.

  ==> Iterations <==

                           Total Energy        Delta E     RMS |[F,P]|

   @DF-RKS iter SAD:  -552.44350533595048   -5.52444e+02   0.00000e+00 
   @DF-RKS iter   1:  -552.79539341058444   -3.51888e-01   1.14160e-02 DIIS
   @DF-RKS iter   2:  -552.61343156064845    1.81962e-01   1.63036e-02 DIIS
   @DF-RKS iter   3:  -552.96657312954483   -3.53142e-01   1.28862e-03 DIIS
   @DF-RKS iter   4:  -552.96885856673748   -2.28544e-03   5.55779e-04 DIIS
   @DF-RKS iter   5:  -552.96932886598881   -4.70299e-04   1.41282e-04 DIIS
   @DF-RKS iter   6:  -552.96937363036102   -4.47644e-05   3.24678e-05 DIIS
   @DF-RKS iter   7:  -552.96937802855962   -4.39820e-06   5.47250e-06 DIIS
   @DF-RKS iter   8:  -552.96937812753504   -9.89754e-08   1.55669e-06 DIIS
   @DF-RKS iter   9:  -552.96937813358181   -6.04678e-09   3.03991e-07 DIIS
   @DF-RKS iter  10:  -552.96937813384648   -2.64663e-10   7.13203e-08 DIIS
   @DF-RKS iter  11:  -552.96937813385910   -1.26192e-11   8.86317e-09 DIIS
  Energy and wave function converged.


  ==> Post-Iterations <==

    Orbital Energies [Eh]
    ---------------------

    Doubly Occupied:                                                      

       1A1  -101.637109     2A1   -14.442451     3A1   -10.378318  
       4A1    -9.652034     5A1    -7.409284     1B1    -7.398280  
       1B2    -7.398280     6A1    -1.097537     7A1    -1.034125  
       8A1    -0.691986     2B2    -0.556324     2B1    -0.556324  
       9A1    -0.505350     3B1    -0.438943     3B2    -0.438943  

    Virtual:                                                              

      10A1     0.076723     4B1     0.098981     4B2     0.098981  
      11A1     0.237689    12A1     0.286080     5B1     0.367244  
       5B2     0.367244    13A1     0.424467     6B2     0.425582  
       6B1     0.425582     1A2     0.442787    14A1     0.442787  
      15A1     0.559668     7B1     0.570838     7B2     0.570838  
       8B2     0.668292     8B1     0.668292    16A1     0.712639  
      17A1     0.748071     2A2     0.748072    18A1     0.891619  
      19A1     1.100285    20A1     1.177731     9B1     1.194408  
       9B2     1.194408    21A1     1.287827     3A2     1.287827  
      22A1     1.641255    10B2     1.722336    10B1     1.722336  
       4A2     1.788242    23A1     1.788243    11B1     1.843345  
      11B2     1.843345    24A1     1.898216    25A1     2.061609  
      12B1     2.098708    12B2     2.098708     5A2     2.112849  
      26A1     2.112850    13B2     2.123232    13B1     2.123232  
      27A1     2.248723    14B1     2.266945    14B2     2.266945  
      28A1     2.521860    15B1     2.582208    15B2     2.582208  
      16B2     2.727419    16B1     2.727419    29A1     2.941076  
       6A2     2.975723    30A1     2.975725    31A1     3.032492  
       7A2     3.032494    17B1     3.041754    17B2     3.041754  
      18B2     3.415213    18B1     3.415213    32A1     3.563773  
      19B1     3.709040    19B2     3.709040    33A1     3.871453  
      20B2     4.058695    20B1     4.058695    34A1     4.331821  
       8A2     4.564687    35A1     4.564687     9A2     4.693603  
      36A1     4.693610    21B2     5.116562    21B1     5.116562  
      37A1     5.291074    38A1     5.594808    22B2     5.845491  
      22B1     5.845491    39A1     5.917587    40A1     6.977390  
      10A2     8.073429    41A1     8.073430    23B1     8.209218  
      23B2     8.209218    42A1     8.717280    43A1    14.618482  

    Final Occupation by Irrep:
             A1    A2    B1    B2 
    DOCC [     9,    0,    3,    3 ]

  @DF-RKS Final Energy:  -552.96937813385910

   => Energetics <=

    Nuclear Repulsion Energy =             74.6151057112159322
    One-Electron Energy =                -907.5578884134567943
    Two-Electron Energy =                 309.8177130439685243
    DFT Exchange-Correlation Energy =     -29.9687333525505650
    Empirical Dispersion Energy =           0.0000000000000000
    VV10 Nonlocal Energy =                  0.1244248769637662
    Total Energy =                       -552.9693781338590952

Computation Completed


Properties will be evaluated at   0.000000,   0.000000,   0.000000 [a0]

Properties computed using the SCF density matrix

  Nuclear Dipole Moment: [e a0]
     X:     0.0000      Y:     0.0000      Z:     0.8778

  Electronic Dipole Moment: [e a0]
     X:     0.0000      Y:     0.0000      Z:    -2.0150

  Dipole Moment: [e a0]
     X:     0.0000      Y:     0.0000      Z:    -1.1372     Total:     1.1372

  Dipole Moment: [D]
     X:     0.0000      Y:     0.0000      Z:    -2.8904     Total:     2.8904


*** tstop() called on bp1-compute00092.data.bp.acrc.priv at Tue Apr 27 17:37:09 2021
Module time:
	user time   =      78.04 seconds =       1.30 minutes
	system time =       3.44 seconds =       0.06 minutes
	total time  =          3 seconds =       0.05 minutes
Total time:
	user time   =     150.95 seconds =       2.52 minutes
	system time =       6.54 seconds =       0.11 minutes
	total time  =          7 seconds =       0.12 minutes

  //>>>>>>>>>>>>>>>>>>>>>>>>>>>>>>>>>>>//
  //    Loading displacement 3 of 5    //
  //<<<<<<<<<<<<<<<<<<<<<<<<<<<<<<<<<<<//

*** tstart() called on bp1-compute00092.data.bp.acrc.priv
*** at Tue Apr 27 17:37:09 2021

   => Loading Basis Set <=

    Name: CC-PV(T+D)Z
    Role: ORBITAL
    Keyword: BASIS
    atoms 1 entry CL         line   864 file /work/zw18965/.conda/envs/p4env/share/psi4/basis/cc-pv_tpd_z.gbs 
    atoms 2 entry C          line   195 file /work/zw18965/.conda/envs/p4env/share/psi4/basis/cc-pv_tpd_z.gbs 
    atoms 3 entry N          line   233 file /work/zw18965/.conda/envs/p4env/share/psi4/basis/cc-pv_tpd_z.gbs 


         ---------------------------------------------------------
                                   SCF
               by Justin Turney, Rob Parrish, Andy Simmonett
                          and Daniel G. A. Smith
                              RKS Reference
                       24 Threads, 137329 MiB Core
         ---------------------------------------------------------

  ==> Geometry <==

    Molecular point group: c2v
    Full point group: C_inf_v

    Geometry (in Angstrom), charge = 0, multiplicity = 1:

       Center              X                  Y                   Z               Mass       
    ------------   -----------------  -----------------  -----------------  -----------------
         CL           0.000000000000     0.000000000000    -0.964163223996    34.968852682000
         C            0.000000000000     0.000000000000     0.670857240111    12.000000000000
         N            0.000000000000     0.000000000000     1.832840050111    14.003074004430

  Running in c2v symmetry.

  Rotational constants: A = ************  B =      0.19845  C =      0.19845 [cm^-1]
  Rotational constants: A = ************  B =   5949.23453  C =   5949.23453 [MHz]
  Nuclear repulsion =   74.653774509946956

  Charge       = 0
  Multiplicity = 1
  Electrons    = 30
  Nalpha       = 15
  Nbeta        = 15

  ==> Algorithm <==

  SCF Algorithm Type is DF.
  DIIS enabled.
  MOM disabled.
  Fractional occupation disabled.
  Guess Type is SAD.
  Energy threshold   = 1.00e-08
  Density threshold  = 1.00e-08
  Integral threshold = 0.00e+00

  ==> Primary Basis <==

  Basis Set: CC-PV(T+D)Z
    Blend: CC-PV(T+D)Z
    Number of shells: 33
    Number of basis function: 99
    Number of Cartesian functions: 115
    Spherical Harmonics?: true
    Max angular momentum: 3

  ==> DFT Potential <==

   => Composite Functional: WB97X-V <= 

    wB97X-V Hyb-GGA Exchange-Correlation Functional

    N. Mardirossian and M. Head-Gordon, Phys. Chem. Chem. Phys. 16, 9904 (2014)

    Deriv               =              1
    GGA                 =           TRUE
    Meta                =          FALSE

    Exchange Hybrid     =           TRUE
    MP2 Hybrid          =          FALSE

   => Exchange-Correlation Functionals <=

    1.0000   wB97X-V range-separated functional

   => Exact (HF) Exchange <=

    0.8330            HF,LR [omega = 0.3000]
    0.1670               HF 

   => VV10 Non-Local Parameters <=

    VV10 B              =     6.0000E+00
    VV10 C              =     1.0000E-02

   => Molecular Quadrature <=

    Radial Scheme          =       TREUTLER
    Pruning Scheme         =           FLAT
    Nuclear Scheme         =       TREUTLER

    BS radius alpha        =              1
    Pruning alpha          =              1
    Radial Points          =             75
    Spherical Points       =            302
    Total Points           =          64834
    Total Blocks           =            566
    Max Points             =            253
    Max Functions          =             99

   => Loading Basis Set <=

    Name: (CC-PV(T+D)Z AUX)
    Role: JKFIT
    Keyword: DF_BASIS_SCF
    atoms 1 entry CL         line   689 file /work/zw18965/.conda/envs/p4env/share/psi4/basis/cc-pvtz-jkfit.gbs 
    atoms 2 entry C          line   125 file /work/zw18965/.conda/envs/p4env/share/psi4/basis/cc-pvtz-jkfit.gbs 
    atoms 3 entry N          line   177 file /work/zw18965/.conda/envs/p4env/share/psi4/basis/cc-pvtz-jkfit.gbs 

  ==> Pre-Iterations <==

   -------------------------------------------------------
    Irrep   Nso     Nmo     Nalpha   Nbeta   Ndocc  Nsocc
   -------------------------------------------------------
     A1        43      43       0       0       0       0
     A2        10      10       0       0       0       0
     B1        23      23       0       0       0       0
     B2        23      23       0       0       0       0
   -------------------------------------------------------
    Total      99      99      15      15      15       0
   -------------------------------------------------------

  ==> Integral Setup <==

  ==> DiskDFJK: Density-Fitted J/K Matrices <==

    J tasked:                  Yes
    K tasked:                  Yes
    wK tasked:                 Yes
    Omega:               3.000E-01
    OpenMP threads:             24
    Integrals threads:          24
    Memory [MiB]:           102829
    Algorithm:                Core
    Integral Cache:           NONE
    Schwarz Cutoff:          1E-12
    Fitting Condition:       1E-10

   => Auxiliary Basis Set <=

  Basis Set: (CC-PV(T+D)Z AUX)
    Blend: CC-PVTZ-JKFIT
    Number of shells: 87
    Number of basis function: 279
    Number of Cartesian functions: 337
    Spherical Harmonics?: true
    Max angular momentum: 4

  Cached 100.0% of DFT collocation blocks in 0.163 [GiB].

  Minimum eigenvalue in the overlap matrix is 1.3109140858E-03.
  Using Symmetric Orthogonalization.

  SCF Guess: Superposition of Atomic Densities via on-the-fly atomic UHF.

  ==> Iterations <==

                           Total Energy        Delta E     RMS |[F,P]|

   @DF-RKS iter SAD:  -552.44558456386881   -5.52446e+02   0.00000e+00 
   @DF-RKS iter   1:  -552.79517144196018   -3.49587e-01   1.14216e-02 DIIS
   @DF-RKS iter   2:  -552.61313124111268    1.82040e-01   1.63084e-02 DIIS
   @DF-RKS iter   3:  -552.96657764503084   -3.53446e-01   1.29022e-03 DIIS
   @DF-RKS iter   4:  -552.96886647282679   -2.28883e-03   5.56722e-04 DIIS
   @DF-RKS iter   5:  -552.96933787624880   -4.71403e-04   1.41288e-04 DIIS
   @DF-RKS iter   6:  -552.96938258679813   -4.47105e-05   3.24471e-05 DIIS
   @DF-RKS iter   7:  -552.96938696953157   -4.38273e-06   5.47441e-06 DIIS
   @DF-RKS iter   8:  -552.96938706830372   -9.87721e-08   1.55426e-06 DIIS
   @DF-RKS iter   9:  -552.96938707432810   -6.02438e-09   3.03350e-07 DIIS
   @DF-RKS iter  10:  -552.96938707459242   -2.64322e-10   7.11612e-08 DIIS
   @DF-RKS iter  11:  -552.96938707460401   -1.15961e-11   8.83482e-09 DIIS
  Energy and wave function converged.


  ==> Post-Iterations <==

    Orbital Energies [Eh]
    ---------------------

    Doubly Occupied:                                                      

       1A1  -101.637080     2A1   -14.442339     3A1   -10.378182  
       4A1    -9.652043     5A1    -7.409280     1B2    -7.398290  
       1B1    -7.398290     6A1    -1.097790     7A1    -1.034158  
       8A1    -0.692153     2B1    -0.556524     2B2    -0.556524  
       9A1    -0.505281     3B2    -0.438816     3B1    -0.438816  

    Virtual:                                                              

      10A1     0.077290     4B2     0.099016     4B1     0.099016  
      11A1     0.237600    12A1     0.285898     5B2     0.367166  
       5B1     0.367166    13A1     0.424629     6B1     0.425674  
       6B2     0.425674     1A2     0.442660    14A1     0.442660  
      15A1     0.559651     7B2     0.571067     7B1     0.571067  
       8B1     0.668334     8B2     0.668334    16A1     0.712965  
      17A1     0.748190     2A2     0.748191    18A1     0.892058  
      19A1     1.100981    20A1     1.177670     9B2     1.194993  
       9B1     1.194993    21A1     1.287911     3A2     1.287911  
      22A1     1.640429    10B1     1.722607    10B2     1.722607  
       4A2     1.788201    23A1     1.788202    11B2     1.843312  
      11B1     1.843312    24A1     1.898300    25A1     2.061663  
      12B2     2.098699    12B1     2.098699     5A2     2.112910  
      26A1     2.112911    13B1     2.123092    13B2     2.123092  
      27A1     2.248161    14B2     2.266881    14B1     2.266881  
      28A1     2.523383    15B2     2.583027    15B1     2.583027  
      16B2     2.727470    16B1     2.727470    29A1     2.942755  
       6A2     2.976176    30A1     2.976179    31A1     3.032745  
       7A2     3.032747    17B2     3.042289    17B1     3.042289  
      18B1     3.416014    18B2     3.416014    32A1     3.564472  
      19B2     3.710008    19B1     3.710008    33A1     3.870075  
      20B2     4.058774    20B1     4.058774    34A1     4.333550  
       8A2     4.564961    35A1     4.564962     9A2     4.693740  
      36A1     4.693747    21B1     5.117085    21B2     5.117085  
      37A1     5.292225    38A1     5.594808    22B1     5.846283  
      22B2     5.846283    39A1     5.918207    40A1     6.982707  
      10A2     8.073411    41A1     8.073412    23B2     8.209956  
      23B1     8.209956    42A1     8.722176    43A1    14.620754  

    Final Occupation by Irrep:
             A1    A2    B1    B2 
    DOCC [     9,    0,    3,    3 ]

  @DF-RKS Final Energy:  -552.96938707460401

   => Energetics <=

    Nuclear Repulsion Energy =             74.6537745099469561
    One-Electron Energy =                -907.6343554063922738
    Two-Electron Energy =                 309.8560380603404383
    DFT Exchange-Correlation Energy =     -29.9692672254693626
    Empirical Dispersion Energy =           0.0000000000000000
    VV10 Nonlocal Energy =                  0.1244229869701590
    Total Energy =                       -552.9693870746041284

Computation Completed


Properties will be evaluated at   0.000000,   0.000000,   0.000000 [a0]

Properties computed using the SCF density matrix

  Nuclear Dipole Moment: [e a0]
     X:     0.0000      Y:     0.0000      Z:     0.8773

  Electronic Dipole Moment: [e a0]
     X:     0.0000      Y:     0.0000      Z:    -2.0155

  Dipole Moment: [e a0]
     X:     0.0000      Y:     0.0000      Z:    -1.1382     Total:     1.1382

  Dipole Moment: [D]
     X:     0.0000      Y:     0.0000      Z:    -2.8930     Total:     2.8930


*** tstop() called on bp1-compute00092.data.bp.acrc.priv at Tue Apr 27 17:37:13 2021
Module time:
	user time   =      77.25 seconds =       1.29 minutes
	system time =       3.26 seconds =       0.05 minutes
	total time  =          4 seconds =       0.07 minutes
Total time:
	user time   =     228.34 seconds =       3.81 minutes
	system time =       9.81 seconds =       0.16 minutes
	total time  =         11 seconds =       0.18 minutes

  //>>>>>>>>>>>>>>>>>>>>>>>>>>>>>>>>>>>//
  //    Loading displacement 4 of 5    //
  //<<<<<<<<<<<<<<<<<<<<<<<<<<<<<<<<<<<//

*** tstart() called on bp1-compute00092.data.bp.acrc.priv
*** at Tue Apr 27 17:37:13 2021

   => Loading Basis Set <=

    Name: CC-PV(T+D)Z
    Role: ORBITAL
    Keyword: BASIS
    atoms 1 entry CL         line   864 file /work/zw18965/.conda/envs/p4env/share/psi4/basis/cc-pv_tpd_z.gbs 
    atoms 2 entry C          line   195 file /work/zw18965/.conda/envs/p4env/share/psi4/basis/cc-pv_tpd_z.gbs 
    atoms 3 entry N          line   233 file /work/zw18965/.conda/envs/p4env/share/psi4/basis/cc-pv_tpd_z.gbs 


         ---------------------------------------------------------
                                   SCF
               by Justin Turney, Rob Parrish, Andy Simmonett
                          and Daniel G. A. Smith
                              RKS Reference
                       24 Threads, 137329 MiB Core
         ---------------------------------------------------------

  ==> Geometry <==

    Molecular point group: c2v
    Full point group: C_inf_v

    Geometry (in Angstrom), charge = 0, multiplicity = 1:

       Center              X                  Y                   Z               Mass       
    ------------   -----------------  -----------------  -----------------  -----------------
         CL           0.000000000000     0.000000000000    -0.964455422395    34.968852682000
         C            0.000000000000     0.000000000000     0.670689682129    12.000000000000
         N            0.000000000000     0.000000000000     1.833713325404    14.003074004430

  Running in c2v symmetry.

  Rotational constants: A = ************  B =      0.19830  C =      0.19830 [cm^-1]
  Rotational constants: A = ************  B =   5944.90643  C =   5944.90643 [MHz]
  Nuclear repulsion =   74.624763058425231

  Charge       = 0
  Multiplicity = 1
  Electrons    = 30
  Nalpha       = 15
  Nbeta        = 15

  ==> Algorithm <==

  SCF Algorithm Type is DF.
  DIIS enabled.
  MOM disabled.
  Fractional occupation disabled.
  Guess Type is SAD.
  Energy threshold   = 1.00e-08
  Density threshold  = 1.00e-08
  Integral threshold = 0.00e+00

  ==> Primary Basis <==

  Basis Set: CC-PV(T+D)Z
    Blend: CC-PV(T+D)Z
    Number of shells: 33
    Number of basis function: 99
    Number of Cartesian functions: 115
    Spherical Harmonics?: true
    Max angular momentum: 3

  ==> DFT Potential <==

   => Composite Functional: WB97X-V <= 

    wB97X-V Hyb-GGA Exchange-Correlation Functional

    N. Mardirossian and M. Head-Gordon, Phys. Chem. Chem. Phys. 16, 9904 (2014)

    Deriv               =              1
    GGA                 =           TRUE
    Meta                =          FALSE

    Exchange Hybrid     =           TRUE
    MP2 Hybrid          =          FALSE

   => Exchange-Correlation Functionals <=

    1.0000   wB97X-V range-separated functional

   => Exact (HF) Exchange <=

    0.8330            HF,LR [omega = 0.3000]
    0.1670               HF 

   => VV10 Non-Local Parameters <=

    VV10 B              =     6.0000E+00
    VV10 C              =     1.0000E-02

   => Molecular Quadrature <=

    Radial Scheme          =       TREUTLER
    Pruning Scheme         =           FLAT
    Nuclear Scheme         =       TREUTLER

    BS radius alpha        =              1
    Pruning alpha          =              1
    Radial Points          =             75
    Spherical Points       =            302
    Total Points           =          64834
    Total Blocks           =            566
    Max Points             =            253
    Max Functions          =             99

   => Loading Basis Set <=

    Name: (CC-PV(T+D)Z AUX)
    Role: JKFIT
    Keyword: DF_BASIS_SCF
    atoms 1 entry CL         line   689 file /work/zw18965/.conda/envs/p4env/share/psi4/basis/cc-pvtz-jkfit.gbs 
    atoms 2 entry C          line   125 file /work/zw18965/.conda/envs/p4env/share/psi4/basis/cc-pvtz-jkfit.gbs 
    atoms 3 entry N          line   177 file /work/zw18965/.conda/envs/p4env/share/psi4/basis/cc-pvtz-jkfit.gbs 

  ==> Pre-Iterations <==

   -------------------------------------------------------
    Irrep   Nso     Nmo     Nalpha   Nbeta   Ndocc  Nsocc
   -------------------------------------------------------
     A1        43      43       0       0       0       0
     A2        10      10       0       0       0       0
     B1        23      23       0       0       0       0
     B2        23      23       0       0       0       0
   -------------------------------------------------------
    Total      99      99      15      15      15       0
   -------------------------------------------------------

  ==> Integral Setup <==

  ==> DiskDFJK: Density-Fitted J/K Matrices <==

    J tasked:                  Yes
    K tasked:                  Yes
    wK tasked:                 Yes
    Omega:               3.000E-01
    OpenMP threads:             24
    Integrals threads:          24
    Memory [MiB]:           102829
    Algorithm:                Core
    Integral Cache:           NONE
    Schwarz Cutoff:          1E-12
    Fitting Condition:       1E-10

   => Auxiliary Basis Set <=

  Basis Set: (CC-PV(T+D)Z AUX)
    Blend: CC-PVTZ-JKFIT
    Number of shells: 87
    Number of basis function: 279
    Number of Cartesian functions: 337
    Spherical Harmonics?: true
    Max angular momentum: 4

  Cached 100.0% of DFT collocation blocks in 0.163 [GiB].

  Minimum eigenvalue in the overlap matrix is 1.3136051480E-03.
  Using Symmetric Orthogonalization.

  SCF Guess: Superposition of Atomic Densities via on-the-fly atomic UHF.

  ==> Iterations <==

                           Total Energy        Delta E     RMS |[F,P]|

   @DF-RKS iter SAD:  -552.44391043051007   -5.52444e+02   0.00000e+00 
   @DF-RKS iter   1:  -552.79510593926568   -3.51196e-01   1.14178e-02 DIIS
   @DF-RKS iter   2:  -552.61168087281146    1.83425e-01   1.63359e-02 DIIS
   @DF-RKS iter   3:  -552.96652438150170   -3.54844e-01   1.28945e-03 DIIS
   @DF-RKS iter   4:  -552.96881189299154   -2.28751e-03   5.57072e-04 DIIS
   @DF-RKS iter   5:  -552.96928415884315   -4.72266e-04   1.41540e-04 DIIS
   @DF-RKS iter   6:  -552.96932905174776   -4.48929e-05   3.25449e-05 DIIS
   @DF-RKS iter   7:  -552.96933345737534   -4.40563e-06   5.49355e-06 DIIS
   @DF-RKS iter   8:  -552.96933355685974   -9.94844e-08   1.55885e-06 DIIS
   @DF-RKS iter   9:  -552.96933356292243   -6.06269e-09   3.04089e-07 DIIS
   @DF-RKS iter  10:  -552.96933356318755   -2.65118e-10   7.16263e-08 DIIS
   @DF-RKS iter  11:  -552.96933356320062   -1.30740e-11   8.92318e-09 DIIS
  Energy and wave function converged.


  ==> Post-Iterations <==

    Orbital Energies [Eh]
    ---------------------

    Doubly Occupied:                                                      

       1A1  -101.637134     2A1   -14.442630     3A1   -10.378478  
       4A1    -9.652091     5A1    -7.409328     1B1    -7.398339  
       1B2    -7.398339     6A1    -1.097648     7A1    -1.033919  
       8A1    -0.692216     2B2    -0.556435     2B1    -0.556435  
       9A1    -0.505356     3B1    -0.438668     3B2    -0.438668  

    Virtual:                                                              

      10A1     0.077153     4B1     0.098664     4B2     0.098664  
      11A1     0.237620    12A1     0.285882     5B1     0.367190  
       5B2     0.367190    13A1     0.424534     6B2     0.425688  
       6B1     0.425688     1A2     0.442642    14A1     0.442642  
      15A1     0.559577     7B1     0.570882     7B2     0.570882  
       8B2     0.668305     8B1     0.668305    16A1     0.712771  
      17A1     0.748195     2A2     0.748197    18A1     0.891043  
      19A1     1.100659    20A1     1.177480     9B1     1.194407  
       9B2     1.194407    21A1     1.287644     3A2     1.287644  
      22A1     1.640170    10B2     1.722295    10B1     1.722295  
       4A2     1.788154    23A1     1.788154    11B1     1.843266  
      11B2     1.843266    24A1     1.897165    25A1     2.061839  
      12B1     2.099009    12B2     2.099009     5A2     2.112754  
      26A1     2.112754    13B1     2.123066    13B2     2.123066  
      27A1     2.247913    14B1     2.266817    14B2     2.266817  
      28A1     2.522825    15B1     2.582956    15B2     2.582956  
      16B2     2.727533    16B1     2.727533    29A1     2.941822  
       6A2     2.976056    30A1     2.976058    31A1     3.032484  
       7A2     3.032486    17B1     3.041896    17B2     3.041896  
      18B2     3.414608    18B1     3.414608    32A1     3.564254  
      19B1     3.709440    19B2     3.709440    33A1     3.870615  
      20B1     4.058476    20B2     4.058476    34A1     4.330902  
       8A2     4.563677    35A1     4.563677     9A2     4.693028  
      36A1     4.693035    21B2     5.116344    21B1     5.116344  
      37A1     5.291011    38A1     5.592985    22B2     5.843254  
      22B1     5.843254    39A1     5.913921    40A1     6.981049  
      10A2     8.073361    41A1     8.073362    23B1     8.209678  
      23B2     8.209678    42A1     8.721242    43A1    14.596695  

    Final Occupation by Irrep:
             A1    A2    B1    B2 
    DOCC [     9,    0,    3,    3 ]

  @DF-RKS Final Energy:  -552.96933356320062

   => Energetics <=

    Nuclear Repulsion Energy =             74.6247630584252306
    One-Electron Energy =                -907.5765738301307692
    Two-Electron Energy =                 309.8263906719013789
    DFT Exchange-Correlation Energy =     -29.9683361045441892
    Empirical Dispersion Energy =           0.0000000000000000
    VV10 Nonlocal Energy =                  0.1244226411478052
    Total Energy =                       -552.9693335632005073

Computation Completed


Properties will be evaluated at   0.000000,   0.000000,   0.000000 [a0]

Properties computed using the SCF density matrix

  Nuclear Dipole Moment: [e a0]
     X:     0.0000      Y:     0.0000      Z:     0.8776

  Electronic Dipole Moment: [e a0]
     X:     0.0000      Y:     0.0000      Z:    -2.0162

  Dipole Moment: [e a0]
     X:     0.0000      Y:     0.0000      Z:    -1.1387     Total:     1.1387

  Dipole Moment: [D]
     X:     0.0000      Y:     0.0000      Z:    -2.8942     Total:     2.8942


*** tstop() called on bp1-compute00092.data.bp.acrc.priv at Tue Apr 27 17:37:16 2021
Module time:
	user time   =      76.00 seconds =       1.27 minutes
	system time =       2.76 seconds =       0.05 minutes
	total time  =          3 seconds =       0.05 minutes
Total time:
	user time   =     304.49 seconds =       5.07 minutes
	system time =      12.58 seconds =       0.21 minutes
	total time  =         14 seconds =       0.23 minutes

  //>>>>>>>>>>>>>>>>>>>>>>>>>>>>>>>>>>>//
  //    Loading displacement 5 of 5    //
  //<<<<<<<<<<<<<<<<<<<<<<<<<<<<<<<<<<<//

*** tstart() called on bp1-compute00092.data.bp.acrc.priv
*** at Tue Apr 27 17:37:16 2021

   => Loading Basis Set <=

    Name: CC-PV(T+D)Z
    Role: ORBITAL
    Keyword: BASIS
    atoms 1 entry CL         line   864 file /work/zw18965/.conda/envs/p4env/share/psi4/basis/cc-pv_tpd_z.gbs 
    atoms 2 entry C          line   195 file /work/zw18965/.conda/envs/p4env/share/psi4/basis/cc-pv_tpd_z.gbs 
    atoms 3 entry N          line   233 file /work/zw18965/.conda/envs/p4env/share/psi4/basis/cc-pv_tpd_z.gbs 


         ---------------------------------------------------------
                                   SCF
               by Justin Turney, Rob Parrish, Andy Simmonett
                          and Daniel G. A. Smith
                              RKS Reference
                       24 Threads, 137329 MiB Core
         ---------------------------------------------------------

  ==> Geometry <==

    Molecular point group: c2v
    Full point group: C_inf_v

    Geometry (in Angstrom), charge = 0, multiplicity = 1:

       Center              X                  Y                   Z               Mass       
    ------------   -----------------  -----------------  -----------------  -----------------
         CL           0.000000000000     0.000000000000    -0.964455422395    34.968852682000
         C            0.000000000000     0.000000000000     0.671810693081    12.000000000000
         N            0.000000000000     0.000000000000     1.832752669806    14.003074004430

  Running in c2v symmetry.

  Rotational constants: A = ************  B =      0.19837  C =      0.19837 [cm^-1]
  Rotational constants: A = ************  B =   5947.09346  C =   5947.09346 [MHz]
  Nuclear repulsion =   74.644142653370096

  Charge       = 0
  Multiplicity = 1
  Electrons    = 30
  Nalpha       = 15
  Nbeta        = 15

  ==> Algorithm <==

  SCF Algorithm Type is DF.
  DIIS enabled.
  MOM disabled.
  Fractional occupation disabled.
  Guess Type is SAD.
  Energy threshold   = 1.00e-08
  Density threshold  = 1.00e-08
  Integral threshold = 0.00e+00

  ==> Primary Basis <==

  Basis Set: CC-PV(T+D)Z
    Blend: CC-PV(T+D)Z
    Number of shells: 33
    Number of basis function: 99
    Number of Cartesian functions: 115
    Spherical Harmonics?: true
    Max angular momentum: 3

  ==> DFT Potential <==

   => Composite Functional: WB97X-V <= 

    wB97X-V Hyb-GGA Exchange-Correlation Functional

    N. Mardirossian and M. Head-Gordon, Phys. Chem. Chem. Phys. 16, 9904 (2014)

    Deriv               =              1
    GGA                 =           TRUE
    Meta                =          FALSE

    Exchange Hybrid     =           TRUE
    MP2 Hybrid          =          FALSE

   => Exchange-Correlation Functionals <=

    1.0000   wB97X-V range-separated functional

   => Exact (HF) Exchange <=

    0.8330            HF,LR [omega = 0.3000]
    0.1670               HF 

   => VV10 Non-Local Parameters <=

    VV10 B              =     6.0000E+00
    VV10 C              =     1.0000E-02

   => Molecular Quadrature <=

    Radial Scheme          =       TREUTLER
    Pruning Scheme         =           FLAT
    Nuclear Scheme         =       TREUTLER

    BS radius alpha        =              1
    Pruning alpha          =              1
    Radial Points          =             75
    Spherical Points       =            302
    Total Points           =          64834
    Total Blocks           =            566
    Max Points             =            253
    Max Functions          =             99

   => Loading Basis Set <=

    Name: (CC-PV(T+D)Z AUX)
    Role: JKFIT
    Keyword: DF_BASIS_SCF
    atoms 1 entry CL         line   689 file /work/zw18965/.conda/envs/p4env/share/psi4/basis/cc-pvtz-jkfit.gbs 
    atoms 2 entry C          line   125 file /work/zw18965/.conda/envs/p4env/share/psi4/basis/cc-pvtz-jkfit.gbs 
    atoms 3 entry N          line   177 file /work/zw18965/.conda/envs/p4env/share/psi4/basis/cc-pvtz-jkfit.gbs 

  ==> Pre-Iterations <==

   -------------------------------------------------------
    Irrep   Nso     Nmo     Nalpha   Nbeta   Ndocc  Nsocc
   -------------------------------------------------------
     A1        43      43       0       0       0       0
     A2        10      10       0       0       0       0
     B1        23      23       0       0       0       0
     B2        23      23       0       0       0       0
   -------------------------------------------------------
    Total      99      99      15      15      15       0
   -------------------------------------------------------

  ==> Integral Setup <==

  ==> DiskDFJK: Density-Fitted J/K Matrices <==

    J tasked:                  Yes
    K tasked:                  Yes
    wK tasked:                 Yes
    Omega:               3.000E-01
    OpenMP threads:             24
    Integrals threads:          24
    Memory [MiB]:           102829
    Algorithm:                Core
    Integral Cache:           NONE
    Schwarz Cutoff:          1E-12
    Fitting Condition:       1E-10

   => Auxiliary Basis Set <=

  Basis Set: (CC-PV(T+D)Z AUX)
    Blend: CC-PVTZ-JKFIT
    Number of shells: 87
    Number of basis function: 279
    Number of Cartesian functions: 337
    Spherical Harmonics?: true
    Max angular momentum: 4

  Cached 100.0% of DFT collocation blocks in 0.163 [GiB].

  Minimum eigenvalue in the overlap matrix is 1.3108182989E-03.
  Using Symmetric Orthogonalization.

  SCF Guess: Superposition of Atomic Densities via on-the-fly atomic UHF.

  ==> Iterations <==

                           Total Energy        Delta E     RMS |[F,P]|

   @DF-RKS iter SAD:  -552.44517728930373   -5.52445e+02   0.00000e+00 
   @DF-RKS iter   1:  -552.79545284642973   -3.50276e-01   1.14199e-02 DIIS
   @DF-RKS iter   2:  -552.61486902507374    1.80584e-01   1.62762e-02 DIIS
   @DF-RKS iter   3:  -552.96662200669459   -3.51753e-01   1.28941e-03 DIIS
   @DF-RKS iter   4:  -552.96890879178579   -2.28679e-03   5.55433e-04 DIIS
   @DF-RKS iter   5:  -552.96937823542976   -4.69444e-04   1.41032e-04 DIIS
   @DF-RKS iter   6:  -552.96942281824010   -4.45828e-05   3.23707e-05 DIIS
   @DF-RKS iter   7:  -552.96942719366132   -4.37542e-06   5.45348e-06 DIIS
   @DF-RKS iter   8:  -552.96942729192938   -9.82681e-08   1.55212e-06 DIIS
   @DF-RKS iter   9:  -552.96942729793739   -6.00801e-09   3.03253e-07 DIIS
   @DF-RKS iter  10:  -552.96942729820171   -2.64322e-10   7.08590e-08 DIIS
   @DF-RKS iter  11:  -552.96942729821342   -1.17097e-11   8.77606e-09 DIIS
  Energy and wave function converged.


  ==> Post-Iterations <==

    Orbital Energies [Eh]
    ---------------------

    Doubly Occupied:                                                      

       1A1  -101.637054     2A1   -14.442159     3A1   -10.378021  
       4A1    -9.651986     5A1    -7.409235     1B2    -7.398231  
       1B1    -7.398231     6A1    -1.097682     7A1    -1.034362  
       8A1    -0.691923     2B1    -0.556413     2B2    -0.556413  
       9A1    -0.505276     3B2    -0.439091     3B1    -0.439091  

    Virtual:                                                              

      10A1     0.076860     4B2     0.099334     4B1     0.099334  
      11A1     0.237669    12A1     0.286096     5B2     0.367219  
       5B1     0.367219    13A1     0.424562     6B1     0.425568  
       6B2     0.425568     1A2     0.442805    14A1     0.442805  
      15A1     0.559743     7B2     0.571022     7B1     0.571022  
       8B1     0.668322     8B2     0.668322    16A1     0.712833  
      17A1     0.748065     2A2     0.748067    18A1     0.892635  
      19A1     1.100606    20A1     1.177928     9B2     1.194994  
       9B1     1.194994    21A1     1.288095     3A2     1.288095  
      22A1     1.641514    10B1     1.722648    10B2     1.722648  
       4A2     1.788290    23A1     1.788290    11B2     1.843391  
      11B1     1.843391    24A1     1.899352    25A1     2.061435  
      12B1     2.098395    12B2     2.098395     5A2     2.113006  
      26A1     2.113006    13B1     2.123258    13B2     2.123258  
      27A1     2.248970    14B2     2.267009    14B1     2.267009  
      28A1     2.522422    15B2     2.582279    15B1     2.582279  
      16B2     2.727357    16B1     2.727357    29A1     2.942007  
       6A2     2.975844    30A1     2.975847    31A1     3.032752  
       7A2     3.032754    17B2     3.042148    17B1     3.042148  
      18B1     3.416621    18B2     3.416621    32A1     3.563990  
      19B1     3.709609    19B2     3.709609    33A1     3.870922  
      20B1     4.058994    20B2     4.058994    34A1     4.334468  
       8A2     4.565967    35A1     4.565967     9A2     4.694323  
      36A1     4.694330    21B1     5.117301    21B2     5.117301  
      37A1     5.292284    38A1     5.596637    22B1     5.848520  
      22B2     5.848520    39A1     5.921877    40A1     6.979066  
      10A2     8.073479    41A1     8.073480    23B2     8.209495  
      23B1     8.209495    42A1     8.718214    43A1    14.642526  

    Final Occupation by Irrep:
             A1    A2    B1    B2 
    DOCC [     9,    0,    3,    3 ]

  @DF-RKS Final Energy:  -552.96942729821342

   => Energetics <=

    Nuclear Repulsion Energy =             74.6441426533700962
    One-Electron Energy =                -907.6157110045121499
    Two-Electron Energy =                 309.8473821191382740
    DFT Exchange-Correlation Energy =     -29.9696662923423176
    Empirical Dispersion Energy =           0.0000000000000000
    VV10 Nonlocal Energy =                  0.1244252261327459
    Total Energy =                       -552.9694272982134180

Computation Completed


Properties will be evaluated at   0.000000,   0.000000,   0.000000 [a0]

Properties computed using the SCF density matrix

  Nuclear Dipole Moment: [e a0]
     X:     0.0000      Y:     0.0000      Z:     0.8776

  Electronic Dipole Moment: [e a0]
     X:     0.0000      Y:     0.0000      Z:    -2.0143

  Dipole Moment: [e a0]
     X:     0.0000      Y:     0.0000      Z:    -1.1367     Total:     1.1367

  Dipole Moment: [D]
     X:     0.0000      Y:     0.0000      Z:    -2.8892     Total:     2.8892


*** tstop() called on bp1-compute00092.data.bp.acrc.priv at Tue Apr 27 17:37:19 2021
Module time:
	user time   =      76.56 seconds =       1.28 minutes
	system time =       2.75 seconds =       0.05 minutes
	total time  =          3 seconds =       0.05 minutes
Total time:
	user time   =     381.19 seconds =       6.35 minutes
	system time =      15.34 seconds =       0.26 minutes
	total time  =         17 seconds =       0.28 minutes

         ----------------------------------------------------------
                                   FINDIF
                     R. A. King and Jonathon Misiewicz
         ---------------------------------------------------------

  Computing gradient from energies.
    Using 3-point formula.
    Energy without displacement: -552.9693828970
    Check energies below for precision!
    Forces are for mass-weighted, symmetry-adapted cartesians (in au).

     Coord      Energy(-1)        Energy(+1)            Force
        0   -552.9693781339   -552.9693870746     -0.0008940745
        1   -552.9693335632   -552.9694272982     -0.0093735013


-------------------------------------------------------------
  ## New Matrix (Symmetry 0) ##
  Irrep: 1 Size: 3 x 3

                 1                   2                   3

    1     0.00000000000000     0.00000000000000    -0.00345272335875
    2     0.00000000000000     0.00000000000000    -0.02223485532918
    3     0.00000000000000     0.00000000000000     0.02568757868793




			-----------------------------------------
			 OPTKING 2.0: for geometry optimizations 
			  - R.A. King,  Bethel University        
			-----------------------------------------
	At level 1: Red. Int., RFO, no backsteps, dynamic trust

	Internal coordinates to be generated automatically.
	Detected frag 1 with atoms:  1 2 3
	---Fragment 1 Bond Connectivity---
	 1 : 2
	 2 : 1 3
	 3 : 2

	---Fragment 1 Geometry and Gradient---
	 CL          0.0000000000        0.0000000000       -1.8225566085
	 C           0.0000000000        0.0000000000        1.2684790162
	 N           0.0000000000        0.0000000000        3.4643082896
	             0.0000000000        0.0000000000       -0.0034527234
	             0.0000000000        0.0000000000       -0.0222348553
	             0.0000000000        0.0000000000        0.0256875787

	Previous optimization step data not found.  Starting new optimization.

	---Fragment 1 Intrafragment Coordinates---
	 - Coordinate -           - BOHR/RAD -       - ANG/DEG -
	 R(1,2)           =         3.091036	       1.635706
	 R(2,3)           =         2.195829	       1.161983
	 L(1,2,3)         =         3.141593	     180.000000
	 l(1,2,3)         =         3.141593	     180.000000

	Current energy   :      -552.9693828970

	Generating empirical Hessian (Schlegel '84) for each fragment.
	Taking RFO optimization step.
	Going to follow RFO solution 1.
	Using RFO vector 1.
	Norm of target step-size    0.02170
	Projected energy change by RFO approximation:        -0.0005476424

	Back-transformation to cartesian coordinates...
	Successfully converged to displaced geometry.

	--- Internal Coordinate Step in ANG or DEG, aJ/ANG or AJ/DEG ---
	 ---------------------------------------------------------------------------
	   Coordinate                Previous        Force       Change         New 
	   ----------                --------       ------       ------       ------
	    1 R(1,2)          =      1.635706    -0.028446    -0.004065     1.631640
	    2 R(2,3)          =      1.161983    -0.211633    -0.010741     1.151242
	    3 L(1,2,3)        =    180.000000     0.000000     0.000000   180.000000
	    4 l(1,2,3)        =    180.000000     0.000000     0.000000   180.000000
	 ---------------------------------------------------------------------------
	Successfully symmetrized geometry.

  ==> Convergence Check <==

  Measures of convergence in internal coordinates in au.
  Criteria marked as inactive (o), active & met (*), and active & unmet ( ).
  --------------------------------------------------------------------------------------------- ~
   Step     Total Energy     Delta E     MAX Force     RMS Force      MAX Disp      RMS Disp    ~
  --------------------------------------------------------------------------------------------- ~
    Convergence Criteria    1.00e-06 *    3.00e-04 *             o    1.20e-03 *             o  ~
  --------------------------------------------------------------------------------------------- ~
      1    -552.96938290   -5.53e+02      2.57e-02      1.30e-02 o    2.03e-02      1.09e-02 o  ~
  ---------------------------------------------------------------------------------------------

	Writing optimization data to binary file.
	Structure for next step:
	Cartesian Geometry (in Angstrom)
	   CL     0.0000000000   0.0000000000  -0.9581650771
	    C     0.0000000000  -0.0000000000   0.6734753211
	    N     0.0000000000   0.0000000000   1.8247175128
			--------------------------
			 OPTKING Finished Execution 
			--------------------------

    Structure for next step:
    Molecular point group: c2v
    Full point group: C_inf_v

    Geometry (in Angstrom), charge = 0, multiplicity = 1:

    CL           0.000000000000     0.000000000000    -0.960254973773
    C           -0.000000000000     0.000000000000     0.671385430898
    N            0.000000000000     0.000000000000     1.822627627060

gradient() will perform gradient computation by finite difference of analytic energies.

         ----------------------------------------------------------
                                   FINDIF
                     R. A. King and Jonathon Misiewicz
         ---------------------------------------------------------

  Using finite-differences of energies to determine gradients.
    Generating geometries for use with 3-point formula.
    Displacement size will be 5.00e-03.
    Number of atoms is 3.
    Number of symmetric SALCs is 2.
    Translations projected? 1. Rotations projected? 1.
    Number of geometries (including reference) is 5.

  //>>>>>>>>>>>>>>>>>>>>>>>>>>>>>>>>>>>//
  //    Loading displacement 1 of 5    //
  //<<<<<<<<<<<<<<<<<<<<<<<<<<<<<<<<<<<//

*** tstart() called on bp1-compute00092.data.bp.acrc.priv
*** at Tue Apr 27 17:37:19 2021

   => Loading Basis Set <=

    Name: CC-PV(T+D)Z
    Role: ORBITAL
    Keyword: BASIS
    atoms 1 entry CL         line   864 file /work/zw18965/.conda/envs/p4env/share/psi4/basis/cc-pv_tpd_z.gbs 
    atoms 2 entry C          line   195 file /work/zw18965/.conda/envs/p4env/share/psi4/basis/cc-pv_tpd_z.gbs 
    atoms 3 entry N          line   233 file /work/zw18965/.conda/envs/p4env/share/psi4/basis/cc-pv_tpd_z.gbs 


         ---------------------------------------------------------
                                   SCF
               by Justin Turney, Rob Parrish, Andy Simmonett
                          and Daniel G. A. Smith
                              RKS Reference
                       24 Threads, 137329 MiB Core
         ---------------------------------------------------------

  ==> Geometry <==

    Molecular point group: c2v
    Full point group: C_inf_v

    Geometry (in Angstrom), charge = 0, multiplicity = 1:

       Center              X                  Y                   Z               Mass       
    ------------   -----------------  -----------------  -----------------  -----------------
         CL          -0.000000000000     0.000000000000    -0.960254973773    34.968852682000
         C            0.000000000000     0.000000000000     0.671385430898    12.000000000000
         N           -0.000000000000     0.000000000000     1.822627627060    14.003074004430

  Running in c2v symmetry.

  Rotational constants: A = ************  B =      0.20028  C =      0.20028 [cm^-1]
  Rotational constants: A = ************  B =   6004.17048  C =   6004.17048 [MHz]
  Nuclear repulsion =   75.014850128497159

  Charge       = 0
  Multiplicity = 1
  Electrons    = 30
  Nalpha       = 15
  Nbeta        = 15

  ==> Algorithm <==

  SCF Algorithm Type is DF.
  DIIS enabled.
  MOM disabled.
  Fractional occupation disabled.
  Guess Type is READ.
  Energy threshold   = 1.00e-08
  Density threshold  = 1.00e-08
  Integral threshold = 0.00e+00

  ==> Primary Basis <==

  Basis Set: CC-PV(T+D)Z
    Blend: CC-PV(T+D)Z
    Number of shells: 33
    Number of basis function: 99
    Number of Cartesian functions: 115
    Spherical Harmonics?: true
    Max angular momentum: 3

  ==> DFT Potential <==

   => Composite Functional: WB97X-V <= 

    wB97X-V Hyb-GGA Exchange-Correlation Functional

    N. Mardirossian and M. Head-Gordon, Phys. Chem. Chem. Phys. 16, 9904 (2014)

    Deriv               =              1
    GGA                 =           TRUE
    Meta                =          FALSE

    Exchange Hybrid     =           TRUE
    MP2 Hybrid          =          FALSE

   => Exchange-Correlation Functionals <=

    1.0000   wB97X-V range-separated functional

   => Exact (HF) Exchange <=

    0.8330            HF,LR [omega = 0.3000]
    0.1670               HF 

   => VV10 Non-Local Parameters <=

    VV10 B              =     6.0000E+00
    VV10 C              =     1.0000E-02

   => Molecular Quadrature <=

    Radial Scheme          =       TREUTLER
    Pruning Scheme         =           FLAT
    Nuclear Scheme         =       TREUTLER

    BS radius alpha        =              1
    Pruning alpha          =              1
    Radial Points          =             75
    Spherical Points       =            302
    Total Points           =          64834
    Total Blocks           =            565
    Max Points             =            254
    Max Functions          =             99

   => Loading Basis Set <=

    Name: (CC-PV(T+D)Z AUX)
    Role: JKFIT
    Keyword: DF_BASIS_SCF
    atoms 1 entry CL         line   689 file /work/zw18965/.conda/envs/p4env/share/psi4/basis/cc-pvtz-jkfit.gbs 
    atoms 2 entry C          line   125 file /work/zw18965/.conda/envs/p4env/share/psi4/basis/cc-pvtz-jkfit.gbs 
    atoms 3 entry N          line   177 file /work/zw18965/.conda/envs/p4env/share/psi4/basis/cc-pvtz-jkfit.gbs 

   => Loading Basis Set <=

    Name: CC-PV(T+D)Z
    Role: ORBITAL
    Keyword: BASIS
    atoms 1 entry CL         line   864 file /work/zw18965/.conda/envs/p4env/share/psi4/basis/cc-pv_tpd_z.gbs 
    atoms 2 entry C          line   195 file /work/zw18965/.conda/envs/p4env/share/psi4/basis/cc-pv_tpd_z.gbs 
    atoms 3 entry N          line   233 file /work/zw18965/.conda/envs/p4env/share/psi4/basis/cc-pv_tpd_z.gbs 

  Reading orbitals from file 180, no projection.

  ==> Pre-Iterations <==

   -------------------------------------------------------
    Irrep   Nso     Nmo     Nalpha   Nbeta   Ndocc  Nsocc
   -------------------------------------------------------
     A1        43      43       0       0       0       0
     A2        10      10       0       0       0       0
     B1        23      23       0       0       0       0
     B2        23      23       0       0       0       0
   -------------------------------------------------------
    Total      99      99      15      15      15       0
   -------------------------------------------------------

  ==> Integral Setup <==

  ==> DiskDFJK: Density-Fitted J/K Matrices <==

    J tasked:                  Yes
    K tasked:                  Yes
    wK tasked:                 Yes
    Omega:               3.000E-01
    OpenMP threads:             24
    Integrals threads:          24
    Memory [MiB]:           102829
    Algorithm:                Core
    Integral Cache:           NONE
    Schwarz Cutoff:          1E-12
    Fitting Condition:       1E-10

   => Auxiliary Basis Set <=

  Basis Set: (CC-PV(T+D)Z AUX)
    Blend: CC-PVTZ-JKFIT
    Number of shells: 87
    Number of basis function: 279
    Number of Cartesian functions: 337
    Spherical Harmonics?: true
    Max angular momentum: 4

  Cached 100.0% of DFT collocation blocks in 0.163 [GiB].

  Minimum eigenvalue in the overlap matrix is 1.2800833421E-03.
  Using Symmetric Orthogonalization.

  SCF Guess: Orbitals guess was supplied from a previous computation.

  ==> Iterations <==

                           Total Energy        Delta E     RMS |[F,P]|

   @DF-RKS iter   0:  -552.97721261260949   -5.52977e+02   7.52722e-04 
   @DF-RKS iter   1:  -552.96961063832862    7.60197e-03   1.77022e-04 DIIS
   @DF-RKS iter   2:  -552.96963681081286   -2.61725e-05   1.52224e-04 DIIS
   @DF-RKS iter   3:  -552.96966589422038   -2.90834e-05   2.49488e-05 DIIS
   @DF-RKS iter   4:  -552.96966639943400   -5.05214e-07   1.54817e-05 DIIS
   @DF-RKS iter   5:  -552.96966670407801   -3.04644e-07   2.68381e-06 DIIS
   @DF-RKS iter   6:  -552.96966671862754   -1.45495e-08   6.18314e-07 DIIS
   @DF-RKS iter   7:  -552.96966672018709   -1.55956e-09   1.43156e-07 DIIS
   @DF-RKS iter   8:  -552.96966672024382   -5.67297e-11   2.77850e-08 DIIS
   @DF-RKS iter   9:  -552.96966672024496   -1.13687e-12   5.06278e-09 DIIS
  Energy and wave function converged.


  ==> Post-Iterations <==

    Orbital Energies [Eh]
    ---------------------

    Doubly Occupied:                                                      

       1A1  -101.636466     2A1   -14.439131     3A1   -10.374893  
       4A1    -9.651550     5A1    -7.408766     1B2    -7.397794  
       1B1    -7.397794     6A1    -1.099696     7A1    -1.036620  
       8A1    -0.691761     2B1    -0.557770     2B2    -0.557770  
       9A1    -0.504395     3B1    -0.440146     3B2    -0.440146  

    Virtual:                                                              

      10A1     0.079568     4B1     0.102724     4B2     0.102724  
      11A1     0.237264    12A1     0.285793     5B1     0.366791  
       5B2     0.366791     6B1     0.425668     6B2     0.425668  
      13A1     0.425850     1A2     0.442657    14A1     0.442657  
      15A1     0.560372     7B2     0.573352     7B1     0.573352  
       8B1     0.668707     8B2     0.668707    16A1     0.715450  
      17A1     0.748322     2A2     0.748323    18A1     0.903144  
      19A1     1.105304    20A1     1.179814     9B2     1.201974  
       9B1     1.201974    21A1     1.290820     3A2     1.290821  
      22A1     1.641887    10B1     1.726166    10B2     1.726166  
       4A2     1.788633    23A1     1.788634    11B1     1.843718  
      11B2     1.843718    24A1     1.910233    25A1     2.059931  
      12B1     2.095337    12B2     2.095337     5A2     2.114649  
      26A1     2.114650    13B1     2.123141    13B2     2.123141  
      27A1     2.249730    14B2     2.267460    14B1     2.267460  
      28A1     2.531614    15B2     2.584993    15B1     2.584993  
      16B2     2.726905    16B1     2.726905    29A1     2.955315  
       6A2     2.977789    30A1     2.977791    31A1     3.036179  
       7A2     3.036181    17B2     3.047433    17B1     3.047433  
      18B2     3.431909    18B1     3.431909    32A1     3.567635  
      19B2     3.717333    19B1     3.717333    33A1     3.862472  
      20B1     4.062045    20B2     4.062045    34A1     4.363714  
       8A2     4.578286    35A1     4.578286     9A2     4.701870  
      36A1     4.701876    21B2     5.125446    21B1     5.125446  
      37A1     5.306294    38A1     5.614071    22B2     5.878801  
      22B1     5.878801    39A1     5.964154    40A1     7.008659  
      41A1     8.073910    10A2     8.073910    23B2     8.214016  
      23B1     8.214016    42A1     8.739480    43A1    14.871702  

    Final Occupation by Irrep:
             A1    A2    B1    B2 
    DOCC [     9,    0,    3,    3 ]

  @DF-RKS Final Energy:  -552.96966672024496

   => Energetics <=

    Nuclear Repulsion Energy =             75.0148501284971587
    One-Electron Energy =                -908.3521256478788928
    Two-Electron Energy =                 310.2229965951747204
    DFT Exchange-Correlation Energy =     -29.9798116136933359
    Empirical Dispersion Energy =           0.0000000000000000
    VV10 Nonlocal Energy =                  0.1244238176552714
    Total Energy =                       -552.9696667202449589

Computation Completed


Properties will be evaluated at   0.000000,   0.000000,   0.000000 [a0]

Properties computed using the SCF density matrix

  Nuclear Dipole Moment: [e a0]
     X:     0.0000      Y:    -0.0000      Z:     0.8738

  Electronic Dipole Moment: [e a0]
     X:     0.0000      Y:     0.0000      Z:    -2.0086

  Dipole Moment: [e a0]
     X:     0.0000      Y:    -0.0000      Z:    -1.1348     Total:     1.1348

  Dipole Moment: [D]
     X:     0.0000      Y:    -0.0000      Z:    -2.8844     Total:     2.8844


*** tstop() called on bp1-compute00092.data.bp.acrc.priv at Tue Apr 27 17:37:22 2021
Module time:
	user time   =      55.90 seconds =       0.93 minutes
	system time =       2.00 seconds =       0.03 minutes
	total time  =          3 seconds =       0.05 minutes
Total time:
	user time   =     437.47 seconds =       7.29 minutes
	system time =      17.35 seconds =       0.29 minutes
	total time  =         20 seconds =       0.33 minutes

  //>>>>>>>>>>>>>>>>>>>>>>>>>>>>>>>>>>>//
  //    Loading displacement 2 of 5    //
  //<<<<<<<<<<<<<<<<<<<<<<<<<<<<<<<<<<<//

*** tstart() called on bp1-compute00092.data.bp.acrc.priv
*** at Tue Apr 27 17:37:22 2021

   => Loading Basis Set <=

    Name: CC-PV(T+D)Z
    Role: ORBITAL
    Keyword: BASIS
    atoms 1 entry CL         line   864 file /work/zw18965/.conda/envs/p4env/share/psi4/basis/cc-pv_tpd_z.gbs 
    atoms 2 entry C          line   195 file /work/zw18965/.conda/envs/p4env/share/psi4/basis/cc-pv_tpd_z.gbs 
    atoms 3 entry N          line   233 file /work/zw18965/.conda/envs/p4env/share/psi4/basis/cc-pv_tpd_z.gbs 


         ---------------------------------------------------------
                                   SCF
               by Justin Turney, Rob Parrish, Andy Simmonett
                          and Daniel G. A. Smith
                              RKS Reference
                       24 Threads, 137329 MiB Core
         ---------------------------------------------------------

  ==> Geometry <==

    Molecular point group: c2v
    Full point group: C_inf_v

    Geometry (in Angstrom), charge = 0, multiplicity = 1:

       Center              X                  Y                   Z               Mass       
    ------------   -----------------  -----------------  -----------------  -----------------
         CL          -0.000000000000     0.000000000000    -0.960547172172    34.968852682000
         C            0.000000000000     0.000000000000     0.671778378392    12.000000000000
         N           -0.000000000000     0.000000000000     1.823020574554    14.003074004430

  Running in c2v symmetry.

  Rotational constants: A = ************  B =      0.20017  C =      0.20017 [cm^-1]
  Rotational constants: A = ************  B =   6000.88954  C =   6000.88954 [MHz]
  Nuclear repulsion =   74.995395162505858

  Charge       = 0
  Multiplicity = 1
  Electrons    = 30
  Nalpha       = 15
  Nbeta        = 15

  ==> Algorithm <==

  SCF Algorithm Type is DF.
  DIIS enabled.
  MOM disabled.
  Fractional occupation disabled.
  Guess Type is READ.
  Energy threshold   = 1.00e-08
  Density threshold  = 1.00e-08
  Integral threshold = 0.00e+00

  ==> Primary Basis <==

  Basis Set: CC-PV(T+D)Z
    Blend: CC-PV(T+D)Z
    Number of shells: 33
    Number of basis function: 99
    Number of Cartesian functions: 115
    Spherical Harmonics?: true
    Max angular momentum: 3

  ==> DFT Potential <==

   => Composite Functional: WB97X-V <= 

    wB97X-V Hyb-GGA Exchange-Correlation Functional

    N. Mardirossian and M. Head-Gordon, Phys. Chem. Chem. Phys. 16, 9904 (2014)

    Deriv               =              1
    GGA                 =           TRUE
    Meta                =          FALSE

    Exchange Hybrid     =           TRUE
    MP2 Hybrid          =          FALSE

   => Exchange-Correlation Functionals <=

    1.0000   wB97X-V range-separated functional

   => Exact (HF) Exchange <=

    0.8330            HF,LR [omega = 0.3000]
    0.1670               HF 

   => VV10 Non-Local Parameters <=

    VV10 B              =     6.0000E+00
    VV10 C              =     1.0000E-02

   => Molecular Quadrature <=

    Radial Scheme          =       TREUTLER
    Pruning Scheme         =           FLAT
    Nuclear Scheme         =       TREUTLER

    BS radius alpha        =              1
    Pruning alpha          =              1
    Radial Points          =             75
    Spherical Points       =            302
    Total Points           =          64834
    Total Blocks           =            565
    Max Points             =            254
    Max Functions          =             99

   => Loading Basis Set <=

    Name: (CC-PV(T+D)Z AUX)
    Role: JKFIT
    Keyword: DF_BASIS_SCF
    atoms 1 entry CL         line   689 file /work/zw18965/.conda/envs/p4env/share/psi4/basis/cc-pvtz-jkfit.gbs 
    atoms 2 entry C          line   125 file /work/zw18965/.conda/envs/p4env/share/psi4/basis/cc-pvtz-jkfit.gbs 
    atoms 3 entry N          line   177 file /work/zw18965/.conda/envs/p4env/share/psi4/basis/cc-pvtz-jkfit.gbs 

   => Loading Basis Set <=

    Name: CC-PV(T+D)Z
    Role: ORBITAL
    Keyword: BASIS
    atoms 1 entry CL         line   864 file /work/zw18965/.conda/envs/p4env/share/psi4/basis/cc-pv_tpd_z.gbs 
    atoms 2 entry C          line   195 file /work/zw18965/.conda/envs/p4env/share/psi4/basis/cc-pv_tpd_z.gbs 
    atoms 3 entry N          line   233 file /work/zw18965/.conda/envs/p4env/share/psi4/basis/cc-pv_tpd_z.gbs 

  Reading orbitals from file 180, no projection.

  ==> Pre-Iterations <==

   -------------------------------------------------------
    Irrep   Nso     Nmo     Nalpha   Nbeta   Ndocc  Nsocc
   -------------------------------------------------------
     A1        43      43       0       0       0       0
     A2        10      10       0       0       0       0
     B1        23      23       0       0       0       0
     B2        23      23       0       0       0       0
   -------------------------------------------------------
    Total      99      99      15      15      15       0
   -------------------------------------------------------

  ==> Integral Setup <==

  ==> DiskDFJK: Density-Fitted J/K Matrices <==

    J tasked:                  Yes
    K tasked:                  Yes
    wK tasked:                 Yes
    Omega:               3.000E-01
    OpenMP threads:             24
    Integrals threads:          24
    Memory [MiB]:           102829
    Algorithm:                Core
    Integral Cache:           NONE
    Schwarz Cutoff:          1E-12
    Fitting Condition:       1E-10

   => Auxiliary Basis Set <=

  Basis Set: (CC-PV(T+D)Z AUX)
    Blend: CC-PVTZ-JKFIT
    Number of shells: 87
    Number of basis function: 279
    Number of Cartesian functions: 337
    Spherical Harmonics?: true
    Max angular momentum: 4

  Cached 100.0% of DFT collocation blocks in 0.163 [GiB].

  Minimum eigenvalue in the overlap matrix is 1.2813569856E-03.
  Using Symmetric Orthogonalization.

  SCF Guess: Orbitals guess was supplied from a previous computation.

  ==> Iterations <==

                           Total Energy        Delta E     RMS |[F,P]|

   @DF-RKS iter   0:  -552.96913480773947   -5.52969e+02   3.34615e-05 
   @DF-RKS iter   1:  -552.96966581169897   -5.31004e-04   8.15545e-06 DIIS
   @DF-RKS iter   2:  -552.96966575181773    5.98812e-08   1.14766e-05 DIIS
   @DF-RKS iter   3:  -552.96966590468674   -1.52869e-07   1.05729e-06 DIIS
   @DF-RKS iter   4:  -552.96966590581121   -1.12448e-09   2.06302e-07 DIIS
   @DF-RKS iter   5:  -552.96966590591603   -1.04819e-10   4.71754e-08 DIIS
   @DF-RKS iter   6:  -552.96966590592331   -7.27596e-12   2.09854e-08 DIIS
   @DF-RKS iter   7:  -552.96966590592376   -4.54747e-13   4.34983e-09 DIIS
  Energy and wave function converged.


  ==> Post-Iterations <==

    Orbital Energies [Eh]
    ---------------------

    Doubly Occupied:                                                      

[...]

  Dipole Moment: [e a0]
     X:     0.0003      Y:     0.0000      Z:    -1.1350     Total:     1.1350

  Dipole Moment: [D]
     X:     0.0008      Y:     0.0000      Z:    -2.8850     Total:     2.8850


*** tstop() called on bp1-compute00092.data.bp.acrc.priv at Tue Apr 27 17:38:25 2021
Module time:
	user time   =      80.39 seconds =       1.34 minutes
	system time =       2.40 seconds =       0.04 minutes
	total time  =          3 seconds =       0.05 minutes
Total time:
	user time   =    1900.35 seconds =      31.67 minutes
	system time =      66.59 seconds =       1.11 minutes
	total time  =         83 seconds =       1.38 minutes

  //>>>>>>>>>>>>>>>>>>>>>>>>>>>>>>>>>>>//
  //    Loading displacement 9 of 9    //
  //<<<<<<<<<<<<<<<<<<<<<<<<<<<<<<<<<<<//

*** tstart() called on bp1-compute00092.data.bp.acrc.priv
*** at Tue Apr 27 17:38:25 2021

   => Loading Basis Set <=

    Name: CC-PV(T+D)Z
    Role: ORBITAL
    Keyword: BASIS
    atoms 1 entry CL         line   864 file /work/zw18965/.conda/envs/p4env/share/psi4/basis/cc-pv_tpd_z.gbs 
    atoms 2 entry C          line   195 file /work/zw18965/.conda/envs/p4env/share/psi4/basis/cc-pv_tpd_z.gbs 
    atoms 3 entry N          line   233 file /work/zw18965/.conda/envs/p4env/share/psi4/basis/cc-pv_tpd_z.gbs 


         ---------------------------------------------------------
                                   SCF
               by Justin Turney, Rob Parrish, Andy Simmonett
                          and Daniel G. A. Smith
                              RKS Reference
                       24 Threads, 137329 MiB Core
         ---------------------------------------------------------

  ==> Geometry <==

    Molecular point group: cs
    Full point group: Cs

    Geometry (in Angstrom), charge = 0, multiplicity = 1:

       Center              X                  Y                   Z               Mass       
    ------------   -----------------  -----------------  -----------------  -----------------
         CL           0.000000000000    -0.000093213664    -0.959996667247    34.968852682000
         C            0.000000000000     0.000656573619     0.671161660025    12.000000000000
         N            0.000000000000    -0.000329878179     1.822174338563    14.003074004430

  Running in cs symmetry.

  Rotational constants: A = 2407987.46702  B =      0.20038  C =      0.20038 [cm^-1]
  Rotational constants: A = 72189648157.17371  B =   6007.31685  C =   6007.31635 [MHz]
  Nuclear repulsion =   75.034253563040551

  Charge       = 0
  Multiplicity = 1
  Electrons    = 30
  Nalpha       = 15
  Nbeta        = 15

  ==> Algorithm <==

  SCF Algorithm Type is DF.
  DIIS enabled.
  MOM disabled.
  Fractional occupation disabled.
  Guess Type is SAD.
  Energy threshold   = 1.00e-10
  Density threshold  = 1.00e-10
  Integral threshold = 0.00e+00

  ==> Primary Basis <==

  Basis Set: CC-PV(T+D)Z
    Blend: CC-PV(T+D)Z
    Number of shells: 33
    Number of basis function: 99
    Number of Cartesian functions: 115
    Spherical Harmonics?: true
    Max angular momentum: 3

  ==> DFT Potential <==

   => Composite Functional: WB97X-V <= 

    wB97X-V Hyb-GGA Exchange-Correlation Functional

    N. Mardirossian and M. Head-Gordon, Phys. Chem. Chem. Phys. 16, 9904 (2014)

    Deriv               =              1
    GGA                 =           TRUE
    Meta                =          FALSE

    Exchange Hybrid     =           TRUE
    MP2 Hybrid          =          FALSE

   => Exchange-Correlation Functionals <=

    1.0000   wB97X-V range-separated functional

   => Exact (HF) Exchange <=

    0.8330            HF,LR [omega = 0.3000]
    0.1670               HF 

   => VV10 Non-Local Parameters <=

    VV10 B              =     6.0000E+00
    VV10 C              =     1.0000E-02

   => Molecular Quadrature <=

    Radial Scheme          =       TREUTLER
    Pruning Scheme         =           FLAT
    Nuclear Scheme         =       TREUTLER

    BS radius alpha        =              1
    Pruning alpha          =              1
    Radial Points          =             75
    Spherical Points       =            302
    Total Points           =          64834
    Total Blocks           =            558
    Max Points             =            256
    Max Functions          =             99

   => Loading Basis Set <=

    Name: (CC-PV(T+D)Z AUX)
    Role: JKFIT
    Keyword: DF_BASIS_SCF
    atoms 1 entry CL         line   689 file /work/zw18965/.conda/envs/p4env/share/psi4/basis/cc-pvtz-jkfit.gbs 
    atoms 2 entry C          line   125 file /work/zw18965/.conda/envs/p4env/share/psi4/basis/cc-pvtz-jkfit.gbs 
    atoms 3 entry N          line   177 file /work/zw18965/.conda/envs/p4env/share/psi4/basis/cc-pvtz-jkfit.gbs 

  ==> Pre-Iterations <==

   -------------------------------------------------------
    Irrep   Nso     Nmo     Nalpha   Nbeta   Ndocc  Nsocc
   -------------------------------------------------------
     A'        66      66       0       0       0       0
     A"        33      33       0       0       0       0
   -------------------------------------------------------
    Total      99      99      15      15      15       0
   -------------------------------------------------------

  ==> Integral Setup <==

  ==> DiskDFJK: Density-Fitted J/K Matrices <==

    J tasked:                  Yes
    K tasked:                  Yes
    wK tasked:                 Yes
    Omega:               3.000E-01
    OpenMP threads:             24
    Integrals threads:          24
    Memory [MiB]:           102829
    Algorithm:                Core
    Integral Cache:           NONE
    Schwarz Cutoff:          1E-12
    Fitting Condition:       1E-10

   => Auxiliary Basis Set <=

  Basis Set: (CC-PV(T+D)Z AUX)
    Blend: CC-PVTZ-JKFIT
    Number of shells: 87
    Number of basis function: 279
    Number of Cartesian functions: 337
    Spherical Harmonics?: true
    Max angular momentum: 4

  Cached 100.0% of DFT collocation blocks in 0.163 [GiB].

  Minimum eigenvalue in the overlap matrix is 1.2786834237E-03.
  Using Symmetric Orthogonalization.

  SCF Guess: Superposition of Atomic Densities via on-the-fly atomic UHF.

  ==> Iterations <==

                           Total Energy        Delta E     RMS |[F,P]|

   @DF-RKS iter SAD:  -552.46709207465608   -5.52467e+02   0.00000e+00 
   @DF-RKS iter   1:  -552.79504597940775   -3.27954e-01   8.52855e-03 DIIS
   @DF-RKS iter   2:  -552.62707190416916    1.67974e-01   1.19159e-02 DIIS
   @DF-RKS iter   3:  -552.96684699094806   -3.39775e-01   9.67028e-04 DIIS
   @DF-RKS iter   4:  -552.96915560027423   -2.30861e-03   4.12311e-04 DIIS
   @DF-RKS iter   5:  -552.96961999618179   -4.64396e-04   1.03087e-04 DIIS
   @DF-RKS iter   6:  -552.96966273246721   -4.27363e-05   2.33427e-05 DIIS
   @DF-RKS iter   7:  -552.96966685689824   -4.12443e-06   3.92524e-06 DIIS
   @DF-RKS iter   8:  -552.96966694816786   -9.12696e-08   1.11708e-06 DIIS
   @DF-RKS iter   9:  -552.96966695376852   -5.60067e-09   2.18928e-07 DIIS
   @DF-RKS iter  10:  -552.96966695401500   -2.46473e-10   4.92555e-08 DIIS
   @DF-RKS iter  11:  -552.96966695402614   -1.11413e-11   5.90212e-09 DIIS
   @DF-RKS iter  12:  -552.96966695402637   -2.27374e-13   9.99386e-10 DIIS
   @DF-RKS iter  13:  -552.96966695402591    4.54747e-13   1.30828e-10 DIIS
   @DF-RKS iter  14:  -552.96966695402648   -5.68434e-13   1.87534e-11 DIIS
  Energy and wave function converged.


  ==> Post-Iterations <==

    Orbital Energies [Eh]
    ---------------------

    Doubly Occupied:                                                      

       1Ap  -101.636444     2Ap   -14.439029     3Ap   -10.374782  
       4Ap    -9.651542     5Ap    -7.408754     1App   -7.397786  
       6Ap    -7.397786     7Ap    -1.099811     8Ap    -1.036685  
       9Ap    -0.691802     2App   -0.557857    10Ap    -0.557857  
      11Ap    -0.504355     3App   -0.440136    12Ap    -0.440136  

    Virtual:                                                              

      13Ap     0.079784     4App    0.102814    14Ap     0.102815  
      15Ap     0.237230    16Ap     0.285737     5App    0.366760  
      17Ap     0.366760    18Ap     0.425689     6App    0.425695  
      19Ap     0.425933     7App    0.442620    20Ap     0.442620  
      21Ap     0.560382     8App    0.573472    22Ap     0.573472  
      23Ap     0.668727     9App    0.668727    24Ap     0.715603  
      25Ap     0.748361    10App    0.748362    26Ap     0.903507  
      27Ap     1.105604    28Ap     1.179837    11App    1.202299  
      29Ap     1.202302    30Ap     1.290909    12App    1.290909  
      31Ap     1.641678    32Ap     1.726317    13App    1.726317  
      14App    1.788630    33Ap     1.788630    34Ap     1.843716  
      15App    1.843716    35Ap     1.910515    36Ap     2.059904  
      37Ap     2.095259    16App    2.095259    17App    2.114710  
      38Ap     2.114710    18App    2.123100    39Ap     2.123100  
      40Ap     2.249588    19App    2.267454    41Ap     2.267454  
      42Ap     2.532240    20App    2.585276    43Ap     2.585279  
      21App    2.726908    44Ap     2.726908    45Ap     2.956114  
      22App    2.977933    46Ap     2.977935    47Ap     3.036354  
      23App    3.036356    24App    3.047720    48Ap     3.047723  
      49Ap     3.432492    25App    3.432494    50Ap     3.567907  
      51Ap     3.717775    26App    3.717776    52Ap     3.861878  
      53Ap     4.062140    27App    4.062140    54Ap     4.364898  
      28App    4.578644    55Ap     4.578644    29App    4.702100  
      56Ap     4.702106    57Ap     5.125777    30App    5.125780  
      58Ap     5.306934    59Ap     5.614498    60Ap     5.879731  
      31App    5.879733    61Ap     5.965361    62Ap     7.010813  
      63Ap     8.073916    32App    8.073917    64Ap     8.214334  
      33App    8.214335    65Ap     8.741352    66Ap    14.877706  

    Final Occupation by Irrep:
             Ap   App 
    DOCC [    12,    3 ]

  @DF-RKS Final Energy:  -552.96966695402648

   => Energetics <=

    Nuclear Repulsion Energy =             75.0342535630405507
    One-Electron Energy =                -908.3905653450939326
    Two-Electron Energy =                 310.2424215928555782
    DFT Exchange-Correlation Energy =     -29.9802000359938532
    Empirical Dispersion Energy =           0.0000000000000000
    VV10 Nonlocal Energy =                  0.1244232711652399
    Total Energy =                       -552.9696669540263656

Computation Completed


Properties will be evaluated at   0.000000,   0.000000,   0.000000 [a0]

Properties computed using the SCF density matrix

  Nuclear Dipole Moment: [e a0]
     X:     0.0000      Y:     0.0001      Z:     0.8735

  Electronic Dipole Moment: [e a0]
     X:     0.0000      Y:     0.0002      Z:    -2.0086

  Dipole Moment: [e a0]
     X:     0.0000      Y:     0.0003      Z:    -1.1350     Total:     1.1350

  Dipole Moment: [D]
     X:     0.0000      Y:     0.0008      Z:    -2.8850     Total:     2.8850


*** tstop() called on bp1-compute00092.data.bp.acrc.priv at Tue Apr 27 17:38:28 2021
Module time:
	user time   =      80.72 seconds =       1.35 minutes
	system time =       2.54 seconds =       0.04 minutes
	total time  =          3 seconds =       0.05 minutes
Total time:
	user time   =    1981.20 seconds =      33.02 minutes
	system time =      69.13 seconds =       1.15 minutes
	total time  =         86 seconds =       1.43 minutes

         ----------------------------------------------------------
                                   FINDIF
                     R. A. King and Jonathon Misiewicz
         ---------------------------------------------------------

  Computing second-derivative from energies using projected, 
  symmetry-adapted, cartesian coordinates.

  9 energies passed in, including the reference geometry.
    Using 3-point formula.
    Energy without displacement: -552.9696670359
    Check energies below for precision!
    0: -1        :      -552.9696666530
    0: 1         :      -552.9696668178
    1: -1        :      -552.9696645539
    1: 1         :      -552.9696642420
    0: 1, 1: 1   :      -552.9696644733
    0: -1, 1: -1 :      -552.9696646189
    2: -1        :      -552.9696669540
    3: -1        :      -552.9696669540

-------------------------------------------------------------


  ==> Harmonic Vibrational Analysis <==

  non-mass-weighted Hessian:       Symmetric? True   Hermitian? True   Lin Dep Dim?  5 (0)
  projection of translations (True) and rotations (True) removed 5 degrees of freedom (5)
  total projector:                 Symmetric? True   Hermitian? True   Lin Dep Dim?  5 (5)
  mass-weighted Hessian:           Symmetric? True   Hermitian? True   Lin Dep Dim?  5 (0)
  pre-proj  low-frequency mode:    0.0000i [cm^-1]
  pre-proj  low-frequency mode:    0.0000  [cm^-1]
  pre-proj  low-frequency mode:    0.0000  [cm^-1]
  pre-proj  low-frequency mode:    0.0000  [cm^-1]
  pre-proj  low-frequency mode:    0.0000  [cm^-1]
  pre-proj  all modes:['0.0000i' '0.0000' '0.0000' '0.0000' '0.0000' '416.1330' '416.2716'
 '768.2757' '2371.0196']
  projected mass-weighted Hessian: Symmetric? True   Hermitian? True   Lin Dep Dim?  5 (5)
  post-proj low-frequency mode:    0.0000i [cm^-1] (TR)
  post-proj low-frequency mode:    0.0000i [cm^-1] (TR)
  post-proj low-frequency mode:    0.0000  [cm^-1] (TR)
  post-proj low-frequency mode:    0.0000  [cm^-1] (TR)
  post-proj low-frequency mode:    0.0000  [cm^-1] (TR)
  post-proj  all modes:['0.0000i' '0.0000i' '0.0000' '0.0000' '0.0000' '416.1330' '416.2716'
 '768.2757' '2371.0196']

  Vibration                       6                   7                   8           
  Freq [cm^-1]                 416.1330            416.2716            768.2757       
  Irrep                           B2                  B1                  A1          
  Reduced mass [u]             12.7611             12.7611             17.9687        
  Force const [mDyne/A]         1.3020              1.3028              6.2489        
  Turning point v=0 [a0]        0.1506              0.1505              0.0934        
  RMS dev v=0 [a0 u^1/2]        0.3803              0.3803              0.2799        
  Char temp [K]                598.7228            598.9222           1105.3776       
  ----------------------------------------------------------------------------------
      1   CL               0.00 -0.13 -0.00   -0.13  0.00  0.00    0.00  0.00  0.47   
      2   C                0.00  0.89 -0.00    0.89 -0.00  0.00   -0.00 -0.00 -0.54   
      3   N               -0.00 -0.45 -0.00   -0.45  0.00  0.00   -0.00  0.00 -0.70   

  Vibration                       9           
  Freq [cm^-1]                2371.0196       
  Irrep                           A1          
  Reduced mass [u]             12.7409        
  Force const [mDyne/A]        42.2006        
  Turning point v=0 [a0]        0.0631        
  RMS dev v=0 [a0 u^1/2]        0.1593        
  Char temp [K]               3411.3694       
  ----------------------------------------------------------------------------------
      1   CL               0.00  0.00 -0.04   
      2   C               -0.00  0.00  0.80   
      3   N               -0.00  0.00 -0.59   

  ==> Thermochemistry Components <==

  Entropy, S
    Electronic S            0.000 [cal/(mol K)]        0.000 [J/(mol K)]       0.00000000 [mEh/K] (multiplicity = 1)
    Translational S        38.243 [cal/(mol K)]      160.010 [J/(mol K)]       0.06094445 [mEh/K] (mol. weight = 60.9719 [u], P = 101325.00 [Pa])
    Rotational S           15.781 [cal/(mol K)]       66.028 [J/(mol K)]       0.02514869 [mEh/K] (symmetry no. = 1)
    Vibrational S           2.045 [cal/(mol K)]        8.556 [J/(mol K)]       0.00325878 [mEh/K]
  Total S                  56.069 [cal/(mol K)]      234.593 [J/(mol K)]       0.08935191 [mEh/K]
  Correction S              0.000 [cal/(mol K)]        0.000 [J/(mol K)]       0.00000000 [mEh/K]

  Constant volume heat capacity, Cv
    Electronic Cv           0.000 [cal/(mol K)]        0.000 [J/(mol K)]       0.00000000 [mEh/K]
    Translational Cv        2.981 [cal/(mol K)]       12.472 [J/(mol K)]       0.00475022 [mEh/K]
    Rotational Cv           1.987 [cal/(mol K)]        8.314 [J/(mol K)]       0.00316681 [mEh/K]
    Vibrational Cv          3.577 [cal/(mol K)]       14.968 [J/(mol K)]       0.00570084 [mEh/K]
  Total Cv                  8.545 [cal/(mol K)]       35.754 [J/(mol K)]       0.01361786 [mEh/K]
  Correction Cv             0.000 [cal/(mol K)]        0.000 [J/(mol K)]       0.00000000 [mEh/K]

  Constant pressure heat capacity, Cp
    Electronic Cp           0.000 [cal/(mol K)]        0.000 [J/(mol K)]       0.00000000 [mEh/K]
    Translational Cp        4.968 [cal/(mol K)]       20.786 [J/(mol K)]       0.00791703 [mEh/K]
    Rotational Cp           1.987 [cal/(mol K)]        8.314 [J/(mol K)]       0.00316681 [mEh/K]
    Vibrational Cp          3.577 [cal/(mol K)]       14.968 [J/(mol K)]       0.00570084 [mEh/K]
  Total Cp                 10.533 [cal/(mol K)]       44.068 [J/(mol K)]       0.01678468 [mEh/K]
  Correction Cp             0.000 [cal/(mol K)]        0.000 [J/(mol K)]       0.00000000 [mEh/K]

  ==> Thermochemistry Energy Analysis <==

  Raw electronic energy, E0
  Total E0, Electronic energy at well bottom at 0 [K]                 -552.96966704 [Eh]

  Zero-point energy, ZPE_vib = Sum_i nu_i / 2
    Electronic ZPE          0.000 [kcal/mol]        0.000 [kJ/mol]       0.00000000 [Eh]
    Translational ZPE       0.000 [kcal/mol]        0.000 [kJ/mol]       0.00000000 [Eh]
    Rotational ZPE          0.000 [kcal/mol]        0.000 [kJ/mol]       0.00000000 [Eh]
    Vibrational ZPE         5.678 [kcal/mol]       23.756 [kJ/mol]       0.00904820 [Eh]        1985.850 [cm^-1]
  Correction ZPE            5.678 [kcal/mol]       23.756 [kJ/mol]       0.00904820 [Eh]        1985.850 [cm^-1]
  Total ZPE, Electronic energy at 0 [K]                               -552.96061884 [Eh]

  Thermal Energy, E (includes ZPE)
    Electronic E            0.000 [kcal/mol]        0.000 [kJ/mol]       0.00000000 [Eh]
    Translational E         0.889 [kcal/mol]        3.718 [kJ/mol]       0.00141628 [Eh]
    Rotational E            0.592 [kcal/mol]        2.479 [kJ/mol]       0.00094418 [Eh]
    Vibrational E           6.102 [kcal/mol]       25.531 [kJ/mol]       0.00972423 [Eh]
  Correction E              7.583 [kcal/mol]       31.728 [kJ/mol]       0.01208469 [Eh]
  Total E, Electronic energy at  298.15 [K]                           -552.95758235 [Eh]

  Enthalpy, H_trans = E_trans + k_B * T
    Electronic H            0.000 [kcal/mol]        0.000 [kJ/mol]       0.00000000 [Eh]
    Translational H         1.481 [kcal/mol]        6.197 [kJ/mol]       0.00236046 [Eh]
    Rotational H            0.592 [kcal/mol]        2.479 [kJ/mol]       0.00094418 [Eh]
    Vibrational H           6.102 [kcal/mol]       25.531 [kJ/mol]       0.00972423 [Eh]
  Correction H              8.176 [kcal/mol]       34.207 [kJ/mol]       0.01302887 [Eh]
  Total H, Enthalpy at  298.15 [K]                                    -552.95663816 [Eh]

  Gibbs free energy, G = H - T * S
    Electronic G            0.000 [kcal/mol]        0.000 [kJ/mol]       0.00000000 [Eh]
    Translational G        -9.921 [kcal/mol]      -41.509 [kJ/mol]      -0.01581013 [Eh]
    Rotational G           -4.113 [kcal/mol]      -17.207 [kJ/mol]      -0.00655390 [Eh]
    Vibrational G           5.492 [kcal/mol]       22.980 [kJ/mol]       0.00875262 [Eh]
  Correction G             -8.541 [kcal/mol]      -35.737 [kJ/mol]      -0.01361140 [Eh]
  Total G, Free enthalpy at  298.15 [K]                               -552.98327844 [Eh]

    Psi4 stopped on: Tuesday, 27 April 2021 05:38PM
    Psi4 wall time for execution: 0:01:26.59

*** Psi4 exiting successfully. Buy a developer a beer!
