
    -----------------------------------------------------------------------
          Psi4: An Open-Source Ab Initio Electronic Structure Package
                               Psi4 1.3.2 release

                         Git: Rev {HEAD} ecbda83 


    R. M. Parrish, L. A. Burns, D. G. A. Smith, A. C. Simmonett,
    A. E. DePrince III, E. G. Hohenstein, U. Bozkaya, A. Yu. Sokolov,
    R. Di Remigio, R. M. Richard, J. F. Gonthier, A. M. James,
    H. R. McAlexander, A. Kumar, M. Saitow, X. Wang, B. P. Pritchard,
    P. Verma, H. F. Schaefer III, K. Patkowski, R. A. King, E. F. Valeev,
    F. A. Evangelista, J. M. Turney, T. D. Crawford, and C. D. Sherrill,
    J. Chem. Theory Comput. 13(7) pp 3185--3197 (2017).
    (doi: 10.1021/acs.jctc.7b00174)


                         Additional Contributions by
    P. Kraus, H. Kruse, M. H. Lechner, M. C. Schieber, R. A. Shaw,
    A. Alenaizan, R. Galvelis, Z. L. Glick, S. Lehtola, and J. P. Misiewicz

    -----------------------------------------------------------------------


    Psi4 started on: Tuesday, 27 April 2021 05:39PM

    Process ID: 122905
    Host:       bp1-compute00092.data.bp.acrc.priv
    PSIDATADIR: /work/zw18965/.conda/envs/p4env/share/psi4
    Memory:     500.0 MiB
    Threads:    24
    
  ==> Input File <==

--------------------------------------------------------------------------
memory 144 GB

molecule {
0 1
N 0.0000000000 0.0000000000 0.0000000000
N 0.0000000000 0.0000000000 1.1003000000
}

set dynamic_level 1
set basis cc-pV(T+d)Z
 
optimize("wB97X-V")
frequencies("wB97X-V")
--------------------------------------------------------------------------

  Memory set to 134.110 GiB by Python driver.
gradient() will perform gradient computation by finite difference of analytic energies.

         ----------------------------------------------------------
                                   FINDIF
                     R. A. King and Jonathon Misiewicz
         ---------------------------------------------------------

  Using finite-differences of energies to determine gradients.
    Generating geometries for use with 3-point formula.
    Displacement size will be 5.00e-03.
    Number of atoms is 2.
    Number of symmetric SALCs is 1.
    Translations projected? 1. Rotations projected? 1.
    Number of geometries (including reference) is 3.

  //>>>>>>>>>>>>>>>>>>>>>>>>>>>>>>>>>>>//
  //    Loading displacement 1 of 3    //
  //<<<<<<<<<<<<<<<<<<<<<<<<<<<<<<<<<<<//

*** tstart() called on bp1-compute00092.data.bp.acrc.priv
*** at Tue Apr 27 17:39:38 2021

   => Loading Basis Set <=

    Name: CC-PV(T+D)Z
    Role: ORBITAL
    Keyword: BASIS
    atoms 1-2 entry N          line   233 file /work/zw18965/.conda/envs/p4env/share/psi4/basis/cc-pv_tpd_z.gbs 


         ---------------------------------------------------------
                                   SCF
               by Justin Turney, Rob Parrish, Andy Simmonett
                          and Daniel G. A. Smith
                              RKS Reference
                       24 Threads, 137329 MiB Core
         ---------------------------------------------------------

  ==> Geometry <==

    Molecular point group: d2h
    Full point group: D_inf_h

    Geometry (in Angstrom), charge = 0, multiplicity = 1:

       Center              X                  Y                   Z               Mass       
    ------------   -----------------  -----------------  -----------------  -----------------
         N            0.000000000000     0.000000000000    -0.550150000000    14.003074004430
         N            0.000000000000     0.000000000000     0.550150000000    14.003074004430

  Running in d2h symmetry.

  Rotational constants: A = ************  B =      1.98875  C =      1.98875 [cm^-1]
  Rotational constants: A = ************  B =  59621.31974  C =  59621.31974 [MHz]
  Nuclear repulsion =   23.566012290129969

  Charge       = 0
  Multiplicity = 1
  Electrons    = 14
  Nalpha       = 7
  Nbeta        = 7

  ==> Algorithm <==

  SCF Algorithm Type is DF.
  DIIS enabled.
  MOM disabled.
  Fractional occupation disabled.
  Guess Type is SAD.
  Energy threshold   = 1.00e-08
  Density threshold  = 1.00e-08
  Integral threshold = 0.00e+00

  ==> Primary Basis <==

  Basis Set: CC-PV(T+D)Z
    Blend: CC-PV(T+D)Z
    Number of shells: 20
    Number of basis function: 60
    Number of Cartesian functions: 70
    Spherical Harmonics?: true
    Max angular momentum: 3

  ==> DFT Potential <==

   => Composite Functional: WB97X-V <= 

    wB97X-V Hyb-GGA Exchange-Correlation Functional

    N. Mardirossian and M. Head-Gordon, Phys. Chem. Chem. Phys. 16, 9904 (2014)

    Deriv               =              1
    GGA                 =           TRUE
    Meta                =          FALSE

    Exchange Hybrid     =           TRUE
    MP2 Hybrid          =          FALSE

   => Exchange-Correlation Functionals <=

    1.0000   wB97X-V range-separated functional

   => Exact (HF) Exchange <=

    0.8330            HF,LR [omega = 0.3000]
    0.1670               HF 

   => VV10 Non-Local Parameters <=

    VV10 B              =     6.0000E+00
    VV10 C              =     1.0000E-02

   => Molecular Quadrature <=

    Radial Scheme          =       TREUTLER
    Pruning Scheme         =           FLAT
    Nuclear Scheme         =       TREUTLER

    BS radius alpha        =              1
    Pruning alpha          =              1
    Radial Points          =             75
    Spherical Points       =            302
    Total Points           =          42426
    Total Blocks           =            378
    Max Points             =            255
    Max Functions          =             60

   => Loading Basis Set <=

    Name: (CC-PV(T+D)Z AUX)
    Role: JKFIT
    Keyword: DF_BASIS_SCF
    atoms 1-2 entry N          line   177 file /work/zw18965/.conda/envs/p4env/share/psi4/basis/cc-pvtz-jkfit.gbs 

  ==> Pre-Iterations <==

   -------------------------------------------------------
    Irrep   Nso     Nmo     Nalpha   Nbeta   Ndocc  Nsocc
   -------------------------------------------------------
     Ag        13      13       0       0       0       0
     B1g        3       3       0       0       0       0
     B2g        7       7       0       0       0       0
     B3g        7       7       0       0       0       0
     Au         3       3       0       0       0       0
     B1u       13      13       0       0       0       0
     B2u        7       7       0       0       0       0
     B3u        7       7       0       0       0       0
   -------------------------------------------------------
    Total      60      60       7       7       7       0
   -------------------------------------------------------

  ==> Integral Setup <==

  ==> DiskDFJK: Density-Fitted J/K Matrices <==

    J tasked:                  Yes
    K tasked:                  Yes
    wK tasked:                 Yes
    Omega:               3.000E-01
    OpenMP threads:             24
    Integrals threads:          24
    Memory [MiB]:           102924
    Algorithm:                Core
    Integral Cache:           NONE
    Schwarz Cutoff:          1E-12
    Fitting Condition:       1E-10

   => Auxiliary Basis Set <=

  Basis Set: (CC-PV(T+D)Z AUX)
    Blend: CC-PVTZ-JKFIT
    Number of shells: 50
    Number of basis function: 158
    Number of Cartesian functions: 192
    Spherical Harmonics?: true
    Max angular momentum: 4

  Cached 100.0% of DFT collocation blocks in 0.070 [GiB].

  Minimum eigenvalue in the overlap matrix is 1.1646295380E-03.
  Using Symmetric Orthogonalization.

  SCF Guess: Superposition of Atomic Densities via on-the-fly atomic UHF.

  ==> Iterations <==

                           Total Energy        Delta E     RMS |[F,P]|

   @DF-RKS iter SAD:  -108.79250553846046   -1.08793e+02   0.00000e+00 
   @DF-RKS iter   1:  -109.51964931858890   -7.27144e-01   8.74451e-03 DIIS
   @DF-RKS iter   2:  -109.53246615791645   -1.28168e-02   3.14889e-03 DIIS
   @DF-RKS iter   3:  -109.53425288813779   -1.78673e-03   3.19058e-04 DIIS
   @DF-RKS iter   4:  -109.53427077607871   -1.78879e-05   4.42749e-05 DIIS
   @DF-RKS iter   5:  -109.53427128790668   -5.11828e-07   5.97109e-06 DIIS
   @DF-RKS iter   6:  -109.53427130231387   -1.44072e-08   4.29300e-07 DIIS
   @DF-RKS iter   7:  -109.53427130241198   -9.81117e-11   4.71840e-08 DIIS
   @DF-RKS iter   8:  -109.53427130241303   -1.05160e-12   5.11069e-09 DIIS
  Energy and wave function converged.


  ==> Post-Iterations <==

    Orbital Energies [Eh]
    ---------------------

    Doubly Occupied:                                                      

       1Ag   -14.511741     1B1u  -14.510063     2Ag    -1.251570  
       2B1u   -0.671736     1B2u   -0.573958     1B3u   -0.573958  
       3Ag    -0.542069  

    Virtual:                                                              

       1B3g    0.079731     1B2g    0.079731     3B1u    0.389702  
       2B3u    0.496805     2B2u    0.496805     4Ag     0.515118  
       5Ag     0.595674     2B2g    0.641049     2B3g    0.641049  
       4B1u    0.806117     6Ag     0.941305     1B1g    0.941305  
       5B1u    0.973489     3B3u    1.206335     3B2u    1.206335  
       6B1u    1.379666     1Au     1.379666     7Ag     1.793379  
       3B2g    1.796028     3B3g    1.796028     7B1u    2.034028  
       4B2u    2.879619     4B3u    2.879619     8Ag     3.037745  
       4B3g    3.216251     4B2g    3.216251     8B1u    3.492128  
       2B1g    3.573413     9Ag     3.573413     5B3u    3.706881  
       5B2u    3.706881     6B3u    3.713134     6B2u    3.713134  
      10Ag     4.081099     5B2g    4.187461     5B3g    4.187461  
       3B1g    4.467033    11Ag     4.467034     6B3g    4.596343  
       6B2g    4.596343     2Au     4.600873     9B1u    4.600874  
      10B1u    4.730480     3Au     5.018779    11B1u    5.018781  
       7B3u    5.107436     7B2u    5.107436    12Ag     5.237368  
      12B1u    5.805479     7B3g    6.512026     7B2g    6.512026  
      13Ag     6.579896    13B1u   15.959717  

    Final Occupation by Irrep:
             Ag   B1g   B2g   B3g    Au   B1u   B2u   B3u 
    DOCC [     3,    0,    0,    0,    0,    2,    1,    1 ]

  @DF-RKS Final Energy:  -109.53427130241303

   => Energetics <=

    Nuclear Repulsion Energy =             23.5660122901299687
    One-Electron Energy =                -194.4199348095387734
    Two-Electron Energy =                  70.9453629139156448
    DFT Exchange-Correlation Energy =      -9.6846651695488273
    Empirical Dispersion Energy =           0.0000000000000000
    VV10 Nonlocal Energy =                  0.0589534726289430
    Total Energy =                       -109.5342713024130319

Computation Completed


Properties will be evaluated at   0.000000,   0.000000,   0.000000 [a0]

Properties computed using the SCF density matrix

  Nuclear Dipole Moment: [e a0]
     X:     0.0000      Y:     0.0000      Z:    -0.0000

  Electronic Dipole Moment: [e a0]
     X:     0.0000      Y:     0.0000      Z:     0.0000

  Dipole Moment: [e a0]
     X:     0.0000      Y:     0.0000      Z:    -0.0000     Total:     0.0000

  Dipole Moment: [D]
     X:     0.0000      Y:     0.0000      Z:    -0.0000     Total:     0.0000


*** tstop() called on bp1-compute00092.data.bp.acrc.priv at Tue Apr 27 17:39:40 2021
Module time:
	user time   =      41.76 seconds =       0.70 minutes
	system time =       2.10 seconds =       0.04 minutes
	total time  =          2 seconds =       0.03 minutes
Total time:
	user time   =      41.76 seconds =       0.70 minutes
	system time =       2.10 seconds =       0.04 minutes
	total time  =          2 seconds =       0.03 minutes

  //>>>>>>>>>>>>>>>>>>>>>>>>>>>>>>>>>>>//
  //    Loading displacement 2 of 3    //
  //<<<<<<<<<<<<<<<<<<<<<<<<<<<<<<<<<<<//

*** tstart() called on bp1-compute00092.data.bp.acrc.priv
*** at Tue Apr 27 17:39:40 2021

   => Loading Basis Set <=

    Name: CC-PV(T+D)Z
    Role: ORBITAL
    Keyword: BASIS
    atoms 1-2 entry N          line   233 file /work/zw18965/.conda/envs/p4env/share/psi4/basis/cc-pv_tpd_z.gbs 


         ---------------------------------------------------------
                                   SCF
               by Justin Turney, Rob Parrish, Andy Simmonett
                          and Daniel G. A. Smith
                              RKS Reference
                       24 Threads, 137329 MiB Core
         ---------------------------------------------------------

  ==> Geometry <==

    Molecular point group: d2h
    Full point group: D_inf_h

    Geometry (in Angstrom), charge = 0, multiplicity = 1:

       Center              X                  Y                   Z               Mass       
    ------------   -----------------  -----------------  -----------------  -----------------
         N            0.000000000000     0.000000000000    -0.550649970577    14.003074004430
         N            0.000000000000     0.000000000000     0.550649970577    14.003074004430

  Running in d2h symmetry.

  Rotational constants: A = ************  B =      1.98514  C =      1.98514 [cm^-1]
  Rotational constants: A = ************  B =  59513.10082  C =  59513.10082 [MHz]
  Nuclear repulsion =   23.544615189618426

  Charge       = 0
  Multiplicity = 1
  Electrons    = 14
  Nalpha       = 7
  Nbeta        = 7

  ==> Algorithm <==

  SCF Algorithm Type is DF.
  DIIS enabled.
  MOM disabled.
  Fractional occupation disabled.
  Guess Type is SAD.
  Energy threshold   = 1.00e-08
  Density threshold  = 1.00e-08
  Integral threshold = 0.00e+00

  ==> Primary Basis <==

  Basis Set: CC-PV(T+D)Z
    Blend: CC-PV(T+D)Z
    Number of shells: 20
    Number of basis function: 60
    Number of Cartesian functions: 70
    Spherical Harmonics?: true
    Max angular momentum: 3

  ==> DFT Potential <==

   => Composite Functional: WB97X-V <= 

    wB97X-V Hyb-GGA Exchange-Correlation Functional

    N. Mardirossian and M. Head-Gordon, Phys. Chem. Chem. Phys. 16, 9904 (2014)

    Deriv               =              1
    GGA                 =           TRUE
    Meta                =          FALSE

    Exchange Hybrid     =           TRUE
    MP2 Hybrid          =          FALSE

   => Exchange-Correlation Functionals <=

    1.0000   wB97X-V range-separated functional

   => Exact (HF) Exchange <=

    0.8330            HF,LR [omega = 0.3000]
    0.1670               HF 

   => VV10 Non-Local Parameters <=

    VV10 B              =     6.0000E+00
    VV10 C              =     1.0000E-02

   => Molecular Quadrature <=

    Radial Scheme          =       TREUTLER
    Pruning Scheme         =           FLAT
    Nuclear Scheme         =       TREUTLER

    BS radius alpha        =              1
    Pruning alpha          =              1
    Radial Points          =             75
    Spherical Points       =            302
    Total Points           =          42426
    Total Blocks           =            378
    Max Points             =            255
    Max Functions          =             60

   => Loading Basis Set <=

    Name: (CC-PV(T+D)Z AUX)
    Role: JKFIT
    Keyword: DF_BASIS_SCF
    atoms 1-2 entry N          line   177 file /work/zw18965/.conda/envs/p4env/share/psi4/basis/cc-pvtz-jkfit.gbs 

  ==> Pre-Iterations <==

   -------------------------------------------------------
    Irrep   Nso     Nmo     Nalpha   Nbeta   Ndocc  Nsocc
   -------------------------------------------------------
     Ag        13      13       0       0       0       0
     B1g        3       3       0       0       0       0
     B2g        7       7       0       0       0       0
     B3g        7       7       0       0       0       0
     Au         3       3       0       0       0       0
     B1u       13      13       0       0       0       0
     B2u        7       7       0       0       0       0
     B3u        7       7       0       0       0       0
   -------------------------------------------------------
    Total      60      60       7       7       7       0
   -------------------------------------------------------

  ==> Integral Setup <==

  ==> DiskDFJK: Density-Fitted J/K Matrices <==

    J tasked:                  Yes
    K tasked:                  Yes
    wK tasked:                 Yes
    Omega:               3.000E-01
    OpenMP threads:             24
    Integrals threads:          24
    Memory [MiB]:           102924
    Algorithm:                Core
    Integral Cache:           NONE
    Schwarz Cutoff:          1E-12
    Fitting Condition:       1E-10

   => Auxiliary Basis Set <=

  Basis Set: (CC-PV(T+D)Z AUX)
    Blend: CC-PVTZ-JKFIT
    Number of shells: 50
    Number of basis function: 158
    Number of Cartesian functions: 192
    Spherical Harmonics?: true
    Max angular momentum: 4

  Cached 100.0% of DFT collocation blocks in 0.070 [GiB].

  Minimum eigenvalue in the overlap matrix is 1.1693128189E-03.
  Using Symmetric Orthogonalization.

  SCF Guess: Superposition of Atomic Densities via on-the-fly atomic UHF.

  ==> Iterations <==

                           Total Energy        Delta E     RMS |[F,P]|

   @DF-RKS iter SAD:  -108.79043446810236   -1.08790e+02   0.00000e+00 
   @DF-RKS iter   1:  -109.51967924082027   -7.29245e-01   8.71426e-03 DIIS
   @DF-RKS iter   2:  -109.53243012481784   -1.27509e-02   3.13439e-03 DIIS
   @DF-RKS iter   3:  -109.53419989965560   -1.76977e-03   3.18623e-04 DIIS
   @DF-RKS iter   4:  -109.53421775703536   -1.78574e-05   4.43750e-05 DIIS
   @DF-RKS iter   5:  -109.53421827129097   -5.14256e-07   5.97490e-06 DIIS
   @DF-RKS iter   6:  -109.53421828574810   -1.44571e-08   4.30612e-07 DIIS
   @DF-RKS iter   7:  -109.53421828584699   -9.88933e-11   4.73989e-08 DIIS
   @DF-RKS iter   8:  -109.53421828584803   -1.03739e-12   5.12883e-09 DIIS
  Energy and wave function converged.


  ==> Post-Iterations <==

    Orbital Energies [Eh]
    ---------------------

    Doubly Occupied:                                                      

       1Ag   -14.512037     1B1u  -14.510373     2Ag    -1.250999  
       2B1u   -0.672013     1B3u   -0.573620     1B2u   -0.573620  
       3Ag    -0.542010  

    Virtual:                                                              

       1B2g    0.079264     1B3g    0.079264     3B1u    0.389559  
       2B3u    0.496931     2B2u    0.496931     4Ag     0.515236  
       5Ag     0.595604     2B2g    0.640921     2B3g    0.640921  
       4B1u    0.805038     6Ag     0.941373     1B1g    0.941373  
       5B1u    0.972798     3B2u    1.205697     3B3u    1.205697  
       6B1u    1.379297     1Au     1.379297     7Ag     1.793459  
       3B2g    1.795859     3B3g    1.795859     7B1u    2.032088  
       4B3u    2.879658     4B2u    2.879658     8Ag     3.037227  
       4B3g    3.215343     4B2g    3.215343     8B1u    3.492834  
       2B1g    3.573134     9Ag     3.573134     5B2u    3.706111  
       5B3u    3.706111     6B2u    3.713667     6B3u    3.713667  
      10Ag     4.079938     5B3g    4.186699     5B2g    4.186699  
       3B1g    4.466872    11Ag     4.466872     6B2g    4.597310  
       6B3g    4.597310     2Au     4.600616     9B1u    4.600617  
      10B1u    4.727931     3Au     5.016687    11B1u    5.016688  
       7B2u    5.106007     7B3u    5.106007    12Ag     5.239014  
      12B1u    5.802316     7B3g    6.507720     7B2g    6.507720  
      13Ag     6.573230    13B1u   15.924735  

    Final Occupation by Irrep:
             Ag   B1g   B2g   B3g    Au   B1u   B2u   B3u 
    DOCC [     3,    0,    0,    0,    0,    2,    1,    1 ]

  @DF-RKS Final Energy:  -109.53421828584803

   => Energetics <=

    Nuclear Repulsion Energy =             23.5446151896184261
    One-Electron Energy =                -194.3785170793797761
    Two-Electron Energy =                  70.9243928891081907
    DFT Exchange-Correlation Energy =      -9.6836623688827661
    Empirical Dispersion Energy =           0.0000000000000000
    VV10 Nonlocal Energy =                  0.0589530836879050
    Total Energy =                       -109.5342182858480271

Computation Completed


Properties will be evaluated at   0.000000,   0.000000,   0.000000 [a0]

Properties computed using the SCF density matrix

  Nuclear Dipole Moment: [e a0]
     X:     0.0000      Y:     0.0000      Z:     0.0000

  Electronic Dipole Moment: [e a0]
     X:     0.0000      Y:     0.0000      Z:     0.0000

  Dipole Moment: [e a0]
     X:     0.0000      Y:     0.0000      Z:     0.0000     Total:     0.0000

  Dipole Moment: [D]
     X:     0.0000      Y:     0.0000      Z:     0.0000     Total:     0.0000


*** tstop() called on bp1-compute00092.data.bp.acrc.priv at Tue Apr 27 17:39:42 2021
Module time:
	user time   =      41.71 seconds =       0.70 minutes
	system time =       1.79 seconds =       0.03 minutes
	total time  =          2 seconds =       0.03 minutes
Total time:
	user time   =      83.61 seconds =       1.39 minutes
	system time =       3.90 seconds =       0.07 minutes
	total time  =          4 seconds =       0.07 minutes

  //>>>>>>>>>>>>>>>>>>>>>>>>>>>>>>>>>>>//
  //    Loading displacement 3 of 3    //
  //<<<<<<<<<<<<<<<<<<<<<<<<<<<<<<<<<<<//

*** tstart() called on bp1-compute00092.data.bp.acrc.priv
*** at Tue Apr 27 17:39:42 2021

   => Loading Basis Set <=

    Name: CC-PV(T+D)Z
    Role: ORBITAL
    Keyword: BASIS
    atoms 1-2 entry N          line   233 file /work/zw18965/.conda/envs/p4env/share/psi4/basis/cc-pv_tpd_z.gbs 


         ---------------------------------------------------------
                                   SCF
               by Justin Turney, Rob Parrish, Andy Simmonett
                          and Daniel G. A. Smith
                              RKS Reference
                       24 Threads, 137329 MiB Core
         ---------------------------------------------------------

  ==> Geometry <==

    Molecular point group: d2h
    Full point group: D_inf_h

    Geometry (in Angstrom), charge = 0, multiplicity = 1:

       Center              X                  Y                   Z               Mass       
    ------------   -----------------  -----------------  -----------------  -----------------
         N            0.000000000000     0.000000000000    -0.549650029423    14.003074004430
         N            0.000000000000     0.000000000000     0.549650029423    14.003074004430

  Running in d2h symmetry.

  Rotational constants: A = ************  B =      1.99237  C =      1.99237 [cm^-1]
  Rotational constants: A = ************  B =  59729.83411  C =  59729.83411 [MHz]
  Nuclear repulsion =   23.587448316940506

  Charge       = 0
  Multiplicity = 1
  Electrons    = 14
  Nalpha       = 7
  Nbeta        = 7

  ==> Algorithm <==

  SCF Algorithm Type is DF.
  DIIS enabled.
  MOM disabled.
  Fractional occupation disabled.
  Guess Type is SAD.
  Energy threshold   = 1.00e-08
  Density threshold  = 1.00e-08
  Integral threshold = 0.00e+00

  ==> Primary Basis <==

  Basis Set: CC-PV(T+D)Z
    Blend: CC-PV(T+D)Z
    Number of shells: 20
    Number of basis function: 60
    Number of Cartesian functions: 70
    Spherical Harmonics?: true
    Max angular momentum: 3

  ==> DFT Potential <==

   => Composite Functional: WB97X-V <= 

    wB97X-V Hyb-GGA Exchange-Correlation Functional

    N. Mardirossian and M. Head-Gordon, Phys. Chem. Chem. Phys. 16, 9904 (2014)

    Deriv               =              1
    GGA                 =           TRUE
    Meta                =          FALSE

    Exchange Hybrid     =           TRUE
    MP2 Hybrid          =          FALSE

   => Exchange-Correlation Functionals <=

    1.0000   wB97X-V range-separated functional

   => Exact (HF) Exchange <=

    0.8330            HF,LR [omega = 0.3000]
    0.1670               HF 

   => VV10 Non-Local Parameters <=

    VV10 B              =     6.0000E+00
    VV10 C              =     1.0000E-02

   => Molecular Quadrature <=

    Radial Scheme          =       TREUTLER
    Pruning Scheme         =           FLAT
    Nuclear Scheme         =       TREUTLER

    BS radius alpha        =              1
    Pruning alpha          =              1
    Radial Points          =             75
    Spherical Points       =            302
    Total Points           =          42426
    Total Blocks           =            378
    Max Points             =            255
    Max Functions          =             60

   => Loading Basis Set <=

    Name: (CC-PV(T+D)Z AUX)
    Role: JKFIT
    Keyword: DF_BASIS_SCF
    atoms 1-2 entry N          line   177 file /work/zw18965/.conda/envs/p4env/share/psi4/basis/cc-pvtz-jkfit.gbs 

  ==> Pre-Iterations <==

   -------------------------------------------------------
    Irrep   Nso     Nmo     Nalpha   Nbeta   Ndocc  Nsocc
   -------------------------------------------------------
     Ag        13      13       0       0       0       0
     B1g        3       3       0       0       0       0
     B2g        7       7       0       0       0       0
     B3g        7       7       0       0       0       0
     Au         3       3       0       0       0       0
     B1u       13      13       0       0       0       0
     B2u        7       7       0       0       0       0
     B3u        7       7       0       0       0       0
   -------------------------------------------------------
    Total      60      60       7       7       7       0
   -------------------------------------------------------

  ==> Integral Setup <==

  ==> DiskDFJK: Density-Fitted J/K Matrices <==

    J tasked:                  Yes
    K tasked:                  Yes
    wK tasked:                 Yes
    Omega:               3.000E-01
    OpenMP threads:             24
    Integrals threads:          24
    Memory [MiB]:           102924
    Algorithm:                Core
    Integral Cache:           NONE
    Schwarz Cutoff:          1E-12
    Fitting Condition:       1E-10

   => Auxiliary Basis Set <=

  Basis Set: (CC-PV(T+D)Z AUX)
    Blend: CC-PVTZ-JKFIT
    Number of shells: 50
    Number of basis function: 158
    Number of Cartesian functions: 192
    Spherical Harmonics?: true
    Max angular momentum: 4

  Cached 100.0% of DFT collocation blocks in 0.070 [GiB].

  Minimum eigenvalue in the overlap matrix is 1.1599685218E-03.
  Using Symmetric Orthogonalization.

  SCF Guess: Superposition of Atomic Densities via on-the-fly atomic UHF.

  ==> Iterations <==

                           Total Energy        Delta E     RMS |[F,P]|

   @DF-RKS iter SAD:  -108.79457711300851   -1.08795e+02   0.00000e+00 
   @DF-RKS iter   1:  -109.51961311457455   -7.25036e-01   8.77494e-03 DIIS
   @DF-RKS iter   2:  -109.53249649988975   -1.28834e-02   3.16348e-03 DIIS
   @DF-RKS iter   3:  -109.53430035580359   -1.80386e-03   3.19492e-04 DIIS
   @DF-RKS iter   4:  -109.53431827431773   -1.79185e-05   4.41755e-05 DIIS
   @DF-RKS iter   5:  -109.53431878373675   -5.09419e-07   5.96734e-06 DIIS
   @DF-RKS iter   6:  -109.53431879809433   -1.43576e-08   4.27989e-07 DIIS
   @DF-RKS iter   7:  -109.53431879819162   -9.72875e-11   4.69667e-08 DIIS
   @DF-RKS iter   8:  -109.53431879819263   -1.00897e-12   5.09197e-09 DIIS
  Energy and wave function converged.


  ==> Post-Iterations <==

    Orbital Energies [Eh]
    ---------------------

    Doubly Occupied:                                                      

       1Ag   -14.511445     1B1u  -14.509752     2Ag    -1.252142  
       2B1u   -0.671458     1B2u   -0.574296     1B3u   -0.574296  
       3Ag    -0.542128  

    Virtual:                                                              

       1B2g    0.080198     1B3g    0.080198     3B1u    0.389843  
       2B3u    0.496679     2B2u    0.496679     4Ag     0.514999  
       5Ag     0.595743     2B3g    0.641178     2B2g    0.641178  
       4B1u    0.807188     6Ag     0.941237     1B1g    0.941237  
       5B1u    0.974192     3B2u    1.206974     3B3u    1.206974  
       6B1u    1.380036     1Au     1.380036     7Ag     1.793297  
       3B2g    1.796195     3B3g    1.796195     7B1u    2.035975  
       4B3u    2.879578     4B2u    2.879578     8Ag     3.038267  
       4B2g    3.217162     4B3g    3.217162     8B1u    3.491429  
       2B1g    3.573694     9Ag     3.573694     5B3u    3.707654  
       5B2u    3.707654     6B3u    3.712601     6B2u    3.712601  
      10Ag     4.082258     5B2g    4.188224     5B3g    4.188224  
       3B1g    4.467195    11Ag     4.467196     6B2g    4.595372  
       6B3g    4.595372     2Au     4.601128     9B1u    4.601129  
      10B1u    4.733031     3Au     5.020877    11B1u    5.020879  
       7B2u    5.108865     7B3u    5.108865    12Ag     5.235724  
      12B1u    5.808646     7B2g    6.516336     7B3g    6.516336  
      13Ag     6.586581    13B1u   15.994768  

    Final Occupation by Irrep:
             Ag   B1g   B2g   B3g    Au   B1u   B2u   B3u 
    DOCC [     3,    0,    0,    0,    0,    2,    1,    1 ]

  @DF-RKS Final Energy:  -109.53431879819263

   => Energetics <=

    Nuclear Repulsion Energy =             23.5874483169405060
    One-Electron Energy =                -194.4614179253164536
    Two-Electron Energy =                  70.9663672618687684
    DFT Exchange-Correlation Energy =      -9.6856703157187525
    Empirical Dispersion Energy =           0.0000000000000000
    VV10 Nonlocal Energy =                  0.0589538640332992
    Total Energy =                       -109.5343187981926292

Computation Completed


Properties will be evaluated at   0.000000,   0.000000,   0.000000 [a0]

Properties computed using the SCF density matrix

  Nuclear Dipole Moment: [e a0]
     X:     0.0000      Y:     0.0000      Z:     0.0000

  Electronic Dipole Moment: [e a0]
     X:     0.0000      Y:     0.0000      Z:     0.0000

  Dipole Moment: [e a0]
     X:     0.0000      Y:     0.0000      Z:     0.0000     Total:     0.0000

  Dipole Moment: [D]
     X:     0.0000      Y:     0.0000      Z:     0.0000     Total:     0.0000


*** tstop() called on bp1-compute00092.data.bp.acrc.priv at Tue Apr 27 17:39:44 2021
Module time:
	user time   =      40.82 seconds =       0.68 minutes
	system time =       1.62 seconds =       0.03 minutes
	total time  =          2 seconds =       0.03 minutes
Total time:
	user time   =     124.56 seconds =       2.08 minutes
	system time =       5.53 seconds =       0.09 minutes
	total time  =          6 seconds =       0.10 minutes

         ----------------------------------------------------------
                                   FINDIF
                     R. A. King and Jonathon Misiewicz
         ---------------------------------------------------------

  Computing gradient from energies.
    Using 3-point formula.
    Energy without displacement: -109.5342713024
    Check energies below for precision!
    Forces are for mass-weighted, symmetry-adapted cartesians (in au).

     Coord      Energy(-1)        Energy(+1)            Force
        0   -109.5342182858   -109.5343187982     -0.0100512345


-------------------------------------------------------------
  ## New Matrix (Symmetry 0) ##
  Irrep: 1 Size: 2 x 3

                 1                   2                   3

    1     0.00000000000000     0.00000000000000    -0.02659598613370
    2     0.00000000000000     0.00000000000000     0.02659598613370




			-----------------------------------------
			 OPTKING 2.0: for geometry optimizations 
			  - R.A. King,  Bethel University        
			-----------------------------------------
	At level 1: Red. Int., RFO, no backsteps, dynamic trust

	Internal coordinates to be generated automatically.
	Detected frag 1 with atoms:  1 2
	---Fragment 1 Bond Connectivity---
	 1 : 2
	 2 : 1

	---Fragment 1 Geometry and Gradient---
	 N           0.0000000000        0.0000000000       -1.0396328279
	 N           0.0000000000        0.0000000000        1.0396328279
	             0.0000000000        0.0000000000       -0.0265959861
	             0.0000000000        0.0000000000        0.0265959861

	Previous optimization step data not found.  Starting new optimization.

	---Fragment 1 Intrafragment Coordinates---
	 - Coordinate -           - BOHR/RAD -       - ANG/DEG -
	 R(1,2)           =         2.079266	       1.100300

	Current energy   :      -109.5342713024

	Generating empirical Hessian (Schlegel '84) for each fragment.
	Taking RFO optimization step.
	Going to follow RFO solution 1.
	Using RFO vector 1.
	Norm of target step-size    0.01507
	Projected energy change by RFO approximation:        -0.0002872088

	Back-transformation to cartesian coordinates...
	Successfully converged to displaced geometry.

	--- Internal Coordinate Step in ANG or DEG, aJ/ANG or AJ/DEG ---
	 ---------------------------------------------------------------------------
	   Coordinate                Previous        Force       Change         New 
	   ----------                --------       ------       ------       ------
	    1 R(1,2)          =      1.100300    -0.219117    -0.007976     1.092324
	 ---------------------------------------------------------------------------
	Successfully symmetrized geometry.

  ==> Convergence Check <==

  Measures of convergence in internal coordinates in au.
  Criteria marked as inactive (o), active & met (*), and active & unmet ( ).
  --------------------------------------------------------------------------------------------- ~
   Step     Total Energy     Delta E     MAX Force     RMS Force      MAX Disp      RMS Disp    ~
  --------------------------------------------------------------------------------------------- ~
    Convergence Criteria    1.00e-06 *    3.00e-04 *             o    1.20e-03 *             o  ~
  --------------------------------------------------------------------------------------------- ~
      1    -109.53427130   -1.10e+02      2.66e-02      2.66e-02 o    1.51e-02      1.51e-02 o  ~
  ---------------------------------------------------------------------------------------------

	Writing optimization data to binary file.
	Structure for next step:
	Cartesian Geometry (in Angstrom)
	    N     0.0000000000   0.0000000000  -0.5461620746
	    N     0.0000000000   0.0000000000   0.5461620746
			--------------------------
			 OPTKING Finished Execution 
			--------------------------

    Structure for next step:
    Molecular point group: d2h
    Full point group: D_inf_h

    Geometry (in Angstrom), charge = 0, multiplicity = 1:

    N            0.000000000000     0.000000000000    -0.546162076797
    N            0.000000000000     0.000000000000     0.546162076797

gradient() will perform gradient computation by finite difference of analytic energies.

         ----------------------------------------------------------
                                   FINDIF
                     R. A. King and Jonathon Misiewicz
         ---------------------------------------------------------

  Using finite-differences of energies to determine gradients.
    Generating geometries for use with 3-point formula.
    Displacement size will be 5.00e-03.
    Number of atoms is 2.
    Number of symmetric SALCs is 1.
    Translations projected? 1. Rotations projected? 1.
    Number of geometries (including reference) is 3.

  //>>>>>>>>>>>>>>>>>>>>>>>>>>>>>>>>>>>//
  //    Loading displacement 1 of 3    //
  //<<<<<<<<<<<<<<<<<<<<<<<<<<<<<<<<<<<//

*** tstart() called on bp1-compute00092.data.bp.acrc.priv
*** at Tue Apr 27 17:39:44 2021

   => Loading Basis Set <=

    Name: CC-PV(T+D)Z
    Role: ORBITAL
    Keyword: BASIS
    atoms 1-2 entry N          line   233 file /work/zw18965/.conda/envs/p4env/share/psi4/basis/cc-pv_tpd_z.gbs 


         ---------------------------------------------------------
                                   SCF
               by Justin Turney, Rob Parrish, Andy Simmonett
                          and Daniel G. A. Smith
                              RKS Reference
                       24 Threads, 137329 MiB Core
         ---------------------------------------------------------

  ==> Geometry <==

    Molecular point group: d2h
    Full point group: D_inf_h

    Geometry (in Angstrom), charge = 0, multiplicity = 1:

       Center              X                  Y                   Z               Mass       
    ------------   -----------------  -----------------  -----------------  -----------------
         N            0.000000000000     0.000000000000    -0.546162076797    14.003074004430
         N            0.000000000000     0.000000000000     0.546162076797    14.003074004430

  Running in d2h symmetry.

  Rotational constants: A = ************  B =      2.01790  C =      2.01790 [cm^-1]
  Rotational constants: A = ************  B =  60495.17496  C =  60495.17496 [MHz]
  Nuclear repulsion =   23.738084741172557

  Charge       = 0
  Multiplicity = 1
  Electrons    = 14
  Nalpha       = 7
  Nbeta        = 7

  ==> Algorithm <==

  SCF Algorithm Type is DF.
  DIIS enabled.
  MOM disabled.
  Fractional occupation disabled.
  Guess Type is READ.
  Energy threshold   = 1.00e-08
  Density threshold  = 1.00e-08
  Integral threshold = 0.00e+00

  ==> Primary Basis <==

  Basis Set: CC-PV(T+D)Z
    Blend: CC-PV(T+D)Z
    Number of shells: 20
    Number of basis function: 60
    Number of Cartesian functions: 70
    Spherical Harmonics?: true
    Max angular momentum: 3

  ==> DFT Potential <==

   => Composite Functional: WB97X-V <= 

    wB97X-V Hyb-GGA Exchange-Correlation Functional

    N. Mardirossian and M. Head-Gordon, Phys. Chem. Chem. Phys. 16, 9904 (2014)

    Deriv               =              1
    GGA                 =           TRUE
    Meta                =          FALSE

    Exchange Hybrid     =           TRUE
    MP2 Hybrid          =          FALSE

   => Exchange-Correlation Functionals <=

    1.0000   wB97X-V range-separated functional

   => Exact (HF) Exchange <=

    0.8330            HF,LR [omega = 0.3000]
    0.1670               HF 

   => VV10 Non-Local Parameters <=

    VV10 B              =     6.0000E+00
    VV10 C              =     1.0000E-02

   => Molecular Quadrature <=

    Radial Scheme          =       TREUTLER
    Pruning Scheme         =           FLAT
    Nuclear Scheme         =       TREUTLER

    BS radius alpha        =              1
    Pruning alpha          =              1
    Radial Points          =             75
    Spherical Points       =            302
    Total Points           =          42426
    Total Blocks           =            378
    Max Points             =            255
    Max Functions          =             60

   => Loading Basis Set <=

    Name: (CC-PV(T+D)Z AUX)
    Role: JKFIT
    Keyword: DF_BASIS_SCF
    atoms 1-2 entry N          line   177 file /work/zw18965/.conda/envs/p4env/share/psi4/basis/cc-pvtz-jkfit.gbs 

   => Loading Basis Set <=

    Name: CC-PV(T+D)Z
    Role: ORBITAL
    Keyword: BASIS
    atoms 1-2 entry N          line   233 file /work/zw18965/.conda/envs/p4env/share/psi4/basis/cc-pv_tpd_z.gbs 

  Reading orbitals from file 180, no projection.

  ==> Pre-Iterations <==

   -------------------------------------------------------
    Irrep   Nso     Nmo     Nalpha   Nbeta   Ndocc  Nsocc
   -------------------------------------------------------
     Ag        13      13       0       0       0       0
     B1g        3       3       0       0       0       0
     B2g        7       7       0       0       0       0
     B3g        7       7       0       0       0       0
     Au         3       3       0       0       0       0
     B1u       13      13       0       0       0       0
     B2u        7       7       0       0       0       0
     B3u        7       7       0       0       0       0
   -------------------------------------------------------
    Total      60      60       7       7       7       0
   -------------------------------------------------------

  ==> Integral Setup <==

  ==> DiskDFJK: Density-Fitted J/K Matrices <==

    J tasked:                  Yes
    K tasked:                  Yes
    wK tasked:                 Yes
    Omega:               3.000E-01
    OpenMP threads:             24
    Integrals threads:          24
    Memory [MiB]:           102924
    Algorithm:                Core
    Integral Cache:           NONE
    Schwarz Cutoff:          1E-12
    Fitting Condition:       1E-10

   => Auxiliary Basis Set <=

  Basis Set: (CC-PV(T+D)Z AUX)
    Blend: CC-PVTZ-JKFIT
    Number of shells: 50
    Number of basis function: 158
    Number of Cartesian functions: 192
    Spherical Harmonics?: true
    Max angular momentum: 4

  Cached 100.0% of DFT collocation blocks in 0.070 [GiB].

  Minimum eigenvalue in the overlap matrix is 1.1280629035E-03.
  Using Symmetric Orthogonalization.

  SCF Guess: Orbitals guess was supplied from a previous computation.

  ==> Iterations <==

                           Total Energy        Delta E     RMS |[F,P]|

   @DF-RKS iter   0:  -109.53905873081376   -1.09539e+02   1.65458e-03 
   @DF-RKS iter   1:  -109.53448096914579    4.57776e-03   2.18250e-04 DIIS
   @DF-RKS iter   2:  -109.53449161262029   -1.06435e-05   9.98347e-05 DIIS
   @DF-RKS iter   3:  -109.53449329195055   -1.67933e-06   6.46697e-06 DIIS
   @DF-RKS iter   4:  -109.53449330239332   -1.04428e-08   1.48123e-06 DIIS
   @DF-RKS iter   5:  -109.53449330304640   -6.53088e-10   1.82058e-07 DIIS
   @DF-RKS iter   6:  -109.53449330305678   -1.03739e-11   1.44199e-08 DIIS
   @DF-RKS iter   7:  -109.53449330305683   -5.68434e-14   1.55388e-09 DIIS
  Energy and wave function converged.


  ==> Post-Iterations <==

    Orbital Energies [Eh]
    ---------------------

    Doubly Occupied:                                                      

       1Ag   -14.509364     1B1u  -14.507568     2Ag    -1.256132  
       2B1u   -0.669517     1B3u   -0.576672     1B2u   -0.576672  
       3Ag    -0.542540  

    Virtual:                                                              

       1B3g    0.083480     1B2g    0.083480     3B1u    0.390800  
       2B3u    0.495792     2B2u    0.495792     4Ag     0.514175  
       5Ag     0.596242     2B2g    0.642091     2B3g    0.642091  
       4B1u    0.814441     6Ag     0.940776     1B1g    0.940776  
       5B1u    0.979465     3B2u    1.211446     3B3u    1.211446  
       6B1u    1.382623     1Au     1.382623     7Ag     1.792629  
       3B2g    1.797333     3B3g    1.797333     7B1u    2.049753  
       4B3u    2.879214     4B2u    2.879214     8Ag     3.042000  
       4B2g    3.223576     4B3g    3.223576     8B1u    3.486747  
       2B1g    3.575711     9Ag     3.575712     5B3u    3.708883  
       5B2u    3.708883     6B2u    3.713176     6B3u    3.713176  
      10Ag     4.090292     5B2g    4.193590     5B3g    4.193590  
       3B1g    4.468357    11Ag     4.468357     6B2g    4.588531  
       6B3g    4.588531     2Au     4.602819     9B1u    4.602820  
      10B1u    4.750907     3Au     5.035657    11B1u    5.035658  
       7B2u    5.118859     7B3u    5.118859    12Ag     5.224279  
      12B1u    5.830859     7B2g    6.546529     7B3g    6.546529  
      13Ag     6.633739    13B1u   16.241167  

    Final Occupation by Irrep:
             Ag   B1g   B2g   B3g    Au   B1u   B2u   B3u 
    DOCC [     3,    0,    0,    0,    0,    2,    1,    1 ]

  @DF-RKS Final Energy:  -109.53449330305683

   => Energetics <=

    Nuclear Repulsion Energy =             23.7380847411725568
    One-Electron Energy =                -194.7526475611764170
    Two-Electron Energy =                  71.1138611165915790
    DFT Exchange-Correlation Energy =      -9.6927482630867949
    Empirical Dispersion Energy =           0.0000000000000000
    VV10 Nonlocal Energy =                  0.0589566634422238
    Total Energy =                       -109.5344933030568484

Computation Completed


Properties will be evaluated at   0.000000,   0.000000,   0.000000 [a0]

Properties computed using the SCF density matrix

  Nuclear Dipole Moment: [e a0]
     X:     0.0000      Y:     0.0000      Z:     0.0000

  Electronic Dipole Moment: [e a0]
     X:     0.0000      Y:     0.0000      Z:     0.0000

  Dipole Moment: [e a0]
     X:     0.0000      Y:     0.0000      Z:     0.0000     Total:     0.0000

  Dipole Moment: [D]
     X:     0.0000      Y:     0.0000      Z:     0.0000     Total:     0.0000


*** tstop() called on bp1-compute00092.data.bp.acrc.priv at Tue Apr 27 17:39:45 2021
Module time:
	user time   =      34.75 seconds =       0.58 minutes
	system time =       1.40 seconds =       0.02 minutes
	total time  =          1 seconds =       0.02 minutes
Total time:
	user time   =     159.67 seconds =       2.66 minutes
	system time =       6.94 seconds =       0.12 minutes
	total time  =          7 seconds =       0.12 minutes

  //>>>>>>>>>>>>>>>>>>>>>>>>>>>>>>>>>>>//
  //    Loading displacement 2 of 3    //
  //<<<<<<<<<<<<<<<<<<<<<<<<<<<<<<<<<<<//

*** tstart() called on bp1-compute00092.data.bp.acrc.priv
*** at Tue Apr 27 17:39:45 2021

   => Loading Basis Set <=

    Name: CC-PV(T+D)Z
    Role: ORBITAL
    Keyword: BASIS
    atoms 1-2 entry N          line   233 file /work/zw18965/.conda/envs/p4env/share/psi4/basis/cc-pv_tpd_z.gbs 


         ---------------------------------------------------------
                                   SCF
               by Justin Turney, Rob Parrish, Andy Simmonett
                          and Daniel G. A. Smith
                              RKS Reference
                       24 Threads, 137329 MiB Core
         ---------------------------------------------------------

  ==> Geometry <==

    Molecular point group: d2h
    Full point group: D_inf_h

    Geometry (in Angstrom), charge = 0, multiplicity = 1:

       Center              X                  Y                   Z               Mass       
    ------------   -----------------  -----------------  -----------------  -----------------
         N            0.000000000000     0.000000000000    -0.546662047374    14.003074004430
         N            0.000000000000     0.000000000000     0.546662047374    14.003074004430

  Running in d2h symmetry.

  Rotational constants: A = ************  B =      2.01421  C =      2.01421 [cm^-1]
  Rotational constants: A = ************  B =  60384.56924  C =  60384.56924 [MHz]
  Nuclear repulsion =   23.716374172482446

  Charge       = 0
  Multiplicity = 1
  Electrons    = 14
  Nalpha       = 7
  Nbeta        = 7

  ==> Algorithm <==

  SCF Algorithm Type is DF.
  DIIS enabled.
  MOM disabled.
  Fractional occupation disabled.
  Guess Type is READ.
  Energy threshold   = 1.00e-08
  Density threshold  = 1.00e-08
  Integral threshold = 0.00e+00

  ==> Primary Basis <==

  Basis Set: CC-PV(T+D)Z
    Blend: CC-PV(T+D)Z
    Number of shells: 20
    Number of basis function: 60
    Number of Cartesian functions: 70
    Spherical Harmonics?: true
    Max angular momentum: 3

  ==> DFT Potential <==

   => Composite Functional: WB97X-V <= 

    wB97X-V Hyb-GGA Exchange-Correlation Functional

    N. Mardirossian and M. Head-Gordon, Phys. Chem. Chem. Phys. 16, 9904 (2014)

    Deriv               =              1
    GGA                 =           TRUE
    Meta                =          FALSE

    Exchange Hybrid     =           TRUE
    MP2 Hybrid          =          FALSE

   => Exchange-Correlation Functionals <=

    1.0000   wB97X-V range-separated functional

   => Exact (HF) Exchange <=

    0.8330            HF,LR [omega = 0.3000]
    0.1670               HF 

   => VV10 Non-Local Parameters <=

    VV10 B              =     6.0000E+00
    VV10 C              =     1.0000E-02

   => Molecular Quadrature <=

    Radial Scheme          =       TREUTLER
    Pruning Scheme         =           FLAT
    Nuclear Scheme         =       TREUTLER

    BS radius alpha        =              1
    Pruning alpha          =              1
    Radial Points          =             75
    Spherical Points       =            302
    Total Points           =          42426
    Total Blocks           =            378
    Max Points             =            255
    Max Functions          =             60

   => Loading Basis Set <=

    Name: (CC-PV(T+D)Z AUX)
    Role: JKFIT
    Keyword: DF_BASIS_SCF
    atoms 1-2 entry N          line   177 file /work/zw18965/.conda/envs/p4env/share/psi4/basis/cc-pvtz-jkfit.gbs 

   => Loading Basis Set <=

    Name: CC-PV(T+D)Z
    Role: ORBITAL
    Keyword: BASIS
    atoms 1-2 entry N          line   233 file /work/zw18965/.conda/envs/p4env/share/psi4/basis/cc-pv_tpd_z.gbs 

  Reading orbitals from file 180, no projection.

  ==> Pre-Iterations <==

   -------------------------------------------------------
    Irrep   Nso     Nmo     Nalpha   Nbeta   Ndocc  Nsocc
   -------------------------------------------------------
     Ag        13      13       0       0       0       0
     B1g        3       3       0       0       0       0
     B2g        7       7       0       0       0       0
     B3g        7       7       0       0       0       0
     Au         3       3       0       0       0       0
     B1u       13      13       0       0       0       0
     B2u        7       7       0       0       0       0
     B3u        7       7       0       0       0       0
   -------------------------------------------------------
    Total      60      60       7       7       7       0
   -------------------------------------------------------

  ==> Integral Setup <==

  ==> DiskDFJK: Density-Fitted J/K Matrices <==

    J tasked:                  Yes
    K tasked:                  Yes
    wK tasked:                 Yes
    Omega:               3.000E-01
    OpenMP threads:             24
    Integrals threads:          24
    Memory [MiB]:           102924
    Algorithm:                Core
    Integral Cache:           NONE
    Schwarz Cutoff:          1E-12
    Fitting Condition:       1E-10

   => Auxiliary Basis Set <=

  Basis Set: (CC-PV(T+D)Z AUX)
    Blend: CC-PVTZ-JKFIT
    Number of shells: 50
    Number of basis function: 158
    Number of Cartesian functions: 192
    Spherical Harmonics?: true
    Max angular momentum: 4

  Cached 100.0% of DFT collocation blocks in 0.070 [GiB].

  Minimum eigenvalue in the overlap matrix is 1.1325713881E-03.
  Using Symmetric Orthogonalization.

  SCF Guess: Orbitals guess was supplied from a previous computation.

  ==> Iterations <==

                           Total Energy        Delta E     RMS |[F,P]|

   @DF-RKS iter   0:  -109.53394829915270   -1.09534e+02   2.08872e-04 
   @DF-RKS iter   1:  -109.53448521332635   -5.36914e-04   2.73913e-05 DIIS
   @DF-RKS iter   2:  -109.53448538113842   -1.67812e-07   1.25125e-05 DIIS
   @DF-RKS iter   3:  -109.53448540753519   -2.63968e-08   8.10500e-07 DIIS
   @DF-RKS iter   4:  -109.53448540770042   -1.65230e-10   1.86493e-07 DIIS
   @DF-RKS iter   5:  -109.53448540771079   -1.03739e-11   2.29466e-08 DIIS
   @DF-RKS iter   6:  -109.53448540771096   -1.70530e-13   1.82900e-09 DIIS
  Energy and wave function converged.


  ==> Post-Iterations <==

    Orbital Energies [Eh]
    ---------------------

    Doubly Occupied:                                                      

       1Ag   -14.509664     1B1u  -14.507882     2Ag    -1.255560  
       2B1u   -0.669796     1B2u   -0.576329     1B3u   -0.576329  
       3Ag    -0.542481  

    Virtual:                                                              

       1B2g    0.083007     1B3g    0.083007     3B1u    0.390666  
       2B3u    0.495920     2B2u    0.495920     4Ag     0.514293  
       5Ag     0.596169     2B3g    0.641959     2B2g    0.641959  
       4B1u    0.813426     6Ag     0.940841     1B1g    0.940841  
       5B1u    0.978670     3B3u    1.210803     3B2u    1.210803  
       6B1u    1.382251     1Au     1.382252     7Ag     1.792735  
       3B3g    1.797173     3B2g    1.797173     7B1u    2.047757  
       4B2u    2.879274     4B3u    2.879274     8Ag     3.041455  
       4B3g    3.222650     4B2g    3.222650     8B1u    3.487397  
       2B1g    3.575416     9Ag     3.575416     5B2u    3.709416  
       5B3u    3.709416     6B2u    3.712371     6B3u    3.712371  
      10Ag     4.089146     5B3g    4.192816     5B2g    4.192816  
       3B1g    4.468187    11Ag     4.468187     6B3g    4.589519  
       6B2g    4.589519     2Au     4.602585     9B1u    4.602586  
      10B1u    4.748337     3Au     5.033523    11B1u    5.033524  
       7B2u    5.117425     7B3u    5.117425    12Ag     5.225916  
      12B1u    5.827663     7B3g    6.542188     7B2g    6.542188  
      13Ag     6.626923    13B1u   16.205650  

    Final Occupation by Irrep:
             Ag   B1g   B2g   B3g    Au   B1u   B2u   B3u 
    DOCC [     3,    0,    0,    0,    0,    2,    1,    1 ]

  @DF-RKS Final Energy:  -109.53448540771096

   => Energetics <=

    Nuclear Repulsion Energy =             23.7163741724824462
    One-Electron Energy =                -194.7107046300794764
    Two-Electron Energy =                  71.0926153953700037
    DFT Exchange-Correlation Energy =      -9.6917266002418607
    Empirical Dispersion Energy =           0.0000000000000000
    VV10 Nonlocal Energy =                  0.0589562547579133
    Total Energy =                       -109.5344854077109602

Computation Completed


Properties will be evaluated at   0.000000,   0.000000,   0.000000 [a0]

Properties computed using the SCF density matrix

  Nuclear Dipole Moment: [e a0]
     X:     0.0000      Y:     0.0000      Z:    -0.0000

  Electronic Dipole Moment: [e a0]
     X:     0.0000      Y:     0.0000      Z:     0.0000

  Dipole Moment: [e a0]
     X:     0.0000      Y:     0.0000      Z:    -0.0000     Total:     0.0000

  Dipole Moment: [D]
     X:     0.0000      Y:     0.0000      Z:    -0.0000     Total:     0.0000


*** tstop() called on bp1-compute00092.data.bp.acrc.priv at Tue Apr 27 17:39:47 2021
Module time:
	user time   =      34.74 seconds =       0.58 minutes
	system time =       1.47 seconds =       0.02 minutes
	total time  =          2 seconds =       0.03 minutes
Total time:
	user time   =     194.55 seconds =       3.24 minutes
	system time =       8.42 seconds =       0.14 minutes
	total time  =          9 seconds =       0.15 minutes

  //>>>>>>>>>>>>>>>>>>>>>>>>>>>>>>>>>>>//
  //    Loading displacement 3 of 3    //
  //<<<<<<<<<<<<<<<<<<<<<<<<<<<<<<<<<<<//

*** tstart() called on bp1-compute00092.data.bp.acrc.priv
*** at Tue Apr 27 17:39:47 2021

   => Loading Basis Set <=

    Name: CC-PV(T+D)Z
    Role: ORBITAL
    Keyword: BASIS
    atoms 1-2 entry N          line   233 file /work/zw18965/.conda/envs/p4env/share/psi4/basis/cc-pv_tpd_z.gbs 


         ---------------------------------------------------------
                                   SCF
               by Justin Turney, Rob Parrish, Andy Simmonett
                          and Daniel G. A. Smith
                              RKS Reference
                       24 Threads, 137329 MiB Core
         ---------------------------------------------------------

  ==> Geometry <==

    Molecular point group: d2h
    Full point group: D_inf_h

    Geometry (in Angstrom), charge = 0, multiplicity = 1:

       Center              X                  Y                   Z               Mass       
    ------------   -----------------  -----------------  -----------------  -----------------
         N            0.000000000000     0.000000000000    -0.545662106220    14.003074004430
         N            0.000000000000     0.000000000000     0.545662106220    14.003074004430

  Running in d2h symmetry.

  Rotational constants: A = ************  B =      2.02160  C =      2.02160 [cm^-1]
  Rotational constants: A = ************  B =  60606.08486  C =  60606.08486 [MHz]
  Nuclear repulsion =   23.759835095090320

  Charge       = 0
  Multiplicity = 1
  Electrons    = 14
  Nalpha       = 7
  Nbeta        = 7

  ==> Algorithm <==

  SCF Algorithm Type is DF.
  DIIS enabled.
  MOM disabled.
  Fractional occupation disabled.
  Guess Type is READ.
  Energy threshold   = 1.00e-08
  Density threshold  = 1.00e-08
  Integral threshold = 0.00e+00

  ==> Primary Basis <==

  Basis Set: CC-PV(T+D)Z
    Blend: CC-PV(T+D)Z
    Number of shells: 20
    Number of basis function: 60
    Number of Cartesian functions: 70
    Spherical Harmonics?: true
    Max angular momentum: 3

  ==> DFT Potential <==

   => Composite Functional: WB97X-V <= 

    wB97X-V Hyb-GGA Exchange-Correlation Functional

    N. Mardirossian and M. Head-Gordon, Phys. Chem. Chem. Phys. 16, 9904 (2014)

    Deriv               =              1
    GGA                 =           TRUE
    Meta                =          FALSE

    Exchange Hybrid     =           TRUE
    MP2 Hybrid          =          FALSE

   => Exchange-Correlation Functionals <=

    1.0000   wB97X-V range-separated functional

   => Exact (HF) Exchange <=

    0.8330            HF,LR [omega = 0.3000]
    0.1670               HF 

   => VV10 Non-Local Parameters <=

    VV10 B              =     6.0000E+00
    VV10 C              =     1.0000E-02

   => Molecular Quadrature <=

    Radial Scheme          =       TREUTLER
    Pruning Scheme         =           FLAT
    Nuclear Scheme         =       TREUTLER

    BS radius alpha        =              1
    Pruning alpha          =              1
    Radial Points          =             75
    Spherical Points       =            302
    Total Points           =          42426
    Total Blocks           =            378
    Max Points             =            255
    Max Functions          =             60

   => Loading Basis Set <=

    Name: (CC-PV(T+D)Z AUX)
    Role: JKFIT
    Keyword: DF_BASIS_SCF
    atoms 1-2 entry N          line   177 file /work/zw18965/.conda/envs/p4env/share/psi4/basis/cc-pvtz-jkfit.gbs 

   => Loading Basis Set <=

    Name: CC-PV(T+D)Z
    Role: ORBITAL
    Keyword: BASIS
    atoms 1-2 entry N          line   233 file /work/zw18965/.conda/envs/p4env/share/psi4/basis/cc-pv_tpd_z.gbs 

  Reading orbitals from file 180, no projection.

  ==> Pre-Iterations <==

   -------------------------------------------------------
    Irrep   Nso     Nmo     Nalpha   Nbeta   Ndocc  Nsocc
   -------------------------------------------------------
     Ag        13      13       0       0       0       0
     B1g        3       3       0       0       0       0
     B2g        7       7       0       0       0       0
     B3g        7       7       0       0       0       0
     Au         3       3       0       0       0       0
     B1u       13      13       0       0       0       0
     B2u        7       7       0       0       0       0
     B3u        7       7       0       0       0       0
   -------------------------------------------------------
    Total      60      60       7       7       7       0
   -------------------------------------------------------

  ==> Integral Setup <==

  ==> DiskDFJK: Density-Fitted J/K Matrices <==

    J tasked:                  Yes
    K tasked:                  Yes
    wK tasked:                 Yes
    Omega:               3.000E-01
    OpenMP threads:             24
    Integrals threads:          24
    Memory [MiB]:           102924
    Algorithm:                Core
    Integral Cache:           NONE
    Schwarz Cutoff:          1E-12
    Fitting Condition:       1E-10

   => Auxiliary Basis Set <=

  Basis Set: (CC-PV(T+D)Z AUX)
    Blend: CC-PVTZ-JKFIT
    Number of shells: 50
    Number of basis function: 158
    Number of Cartesian functions: 192
    Spherical Harmonics?: true
    Max angular momentum: 4

  Cached 100.0% of DFT collocation blocks in 0.070 [GiB].

  Minimum eigenvalue in the overlap matrix is 1.1235758827E-03.
  Using Symmetric Orthogonalization.

  SCF Guess: Orbitals guess was supplied from a previous computation.

  ==> Iterations <==

                           Total Energy        Delta E     RMS |[F,P]|

   @DF-RKS iter   0:  -109.53503353197935   -1.09535e+02   2.09376e-04 
   @DF-RKS iter   1:  -109.53449516995015    5.38362e-04   2.73416e-05 DIIS
   @DF-RKS iter   2:  -109.53449533710975   -1.67160e-07   1.25006e-05 DIIS
   @DF-RKS iter   3:  -109.53449536342565   -2.63159e-08   8.10087e-07 DIIS
   @DF-RKS iter   4:  -109.53449536359032   -1.64675e-10   1.86452e-07 DIIS
   @DF-RKS iter   5:  -109.53449536360060   -1.02744e-11   2.28923e-08 DIIS
   @DF-RKS iter   6:  -109.53449536360084   -2.41585e-13   1.82889e-09 DIIS
  Energy and wave function converged.


  ==> Post-Iterations <==

    Orbital Energies [Eh]
    ---------------------

    Doubly Occupied:                                                      

       1Ag   -14.509064     1B1u  -14.507252     2Ag    -1.256704  
       2B1u   -0.669238     1B3u   -0.577014     1B2u   -0.577014  
       3Ag    -0.542599  

    Virtual:                                                              

       1B3g    0.083953     1B2g    0.083953     3B1u    0.390934  
       2B2u    0.495664     2B3u    0.495664     4Ag     0.514056  
       5Ag     0.596315     2B2g    0.642224     2B3g    0.642224  
       4B1u    0.815448     6Ag     0.940712     1B1g    0.940712  
       5B1u    0.980274     3B2u    1.212090     3B3u    1.212090  
       6B1u    1.382995     1Au     1.382995     7Ag     1.792521  
       3B3g    1.797492     3B2g    1.797492     7B1u    2.051756  
       4B2u    2.879152     4B3u    2.879152     8Ag     3.042548  
       4B3g    3.224504     4B2g    3.224504     8B1u    3.486103  
       2B1g    3.576009     9Ag     3.576009     5B3u    3.708351  
       5B2u    3.708351     6B3u    3.713985     6B2u    3.713985  
      10Ag     4.091436     5B2g    4.194364     5B3g    4.194364  
       3B1g    4.468528    11Ag     4.468528     6B3g    4.587540  
       6B2g    4.587540     2Au     4.603050     9B1u    4.603050  
      10B1u    4.753479     3Au     5.037796    11B1u    5.037797  
       7B2u    5.120295     7B3u    5.120295    12Ag     5.222644  
      12B1u    5.834061     7B3g    6.550874     7B2g    6.550874  
      13Ag     6.640573    13B1u   16.276749  

    Final Occupation by Irrep:
             Ag   B1g   B2g   B3g    Au   B1u   B2u   B3u 
    DOCC [     3,    0,    0,    0,    0,    2,    1,    1 ]

  @DF-RKS Final Energy:  -109.53449536360084

   => Energetics <=

    Nuclear Repulsion Energy =             23.7598350950903203
    One-Electron Energy =                -194.7946569183109773
    Two-Electron Energy =                  71.1351417018651659
    DFT Exchange-Correlation Energy =      -9.6937723169024341
    Empirical Dispersion Energy =           0.0000000000000000
    VV10 Nonlocal Energy =                  0.0589570746570906
    Total Energy =                       -109.5344953636008398

Computation Completed


Properties will be evaluated at   0.000000,   0.000000,   0.000000 [a0]

Properties computed using the SCF density matrix

  Nuclear Dipole Moment: [e a0]
     X:     0.0000      Y:     0.0000      Z:    -0.0000

  Electronic Dipole Moment: [e a0]
     X:     0.0000      Y:     0.0000      Z:     0.0000

  Dipole Moment: [e a0]
     X:     0.0000      Y:     0.0000      Z:    -0.0000     Total:     0.0000

  Dipole Moment: [D]
     X:     0.0000      Y:     0.0000      Z:    -0.0000     Total:     0.0000


*** tstop() called on bp1-compute00092.data.bp.acrc.priv at Tue Apr 27 17:39:48 2021
Module time:
	user time   =      33.65 seconds =       0.56 minutes
	system time =       1.34 seconds =       0.02 minutes
	total time  =          1 seconds =       0.02 minutes
Total time:
	user time   =     228.34 seconds =       3.81 minutes
	system time =       9.76 seconds =       0.16 minutes
	total time  =         10 seconds =       0.17 minutes

         ----------------------------------------------------------
                                   FINDIF
                     R. A. King and Jonathon Misiewicz
         ---------------------------------------------------------

  Computing gradient from energies.
    Using 3-point formula.
    Energy without displacement: -109.5344933031
    Check energies below for precision!
    Forces are for mass-weighted, symmetry-adapted cartesians (in au).

     Coord      Energy(-1)        Energy(+1)            Force
        0   -109.5344854077   -109.5344953636     -0.0009955890


-------------------------------------------------------------
  ## New Matrix (Symmetry 0) ##
  Irrep: 1 Size: 2 x 3

                 1                   2                   3

    1     0.00000000000000     0.00000000000000    -0.00263437003918
    2     0.00000000000000     0.00000000000000     0.00263437003918




			-----------------------------------------
			 OPTKING 2.0: for geometry optimizations 
			  - R.A. King,  Bethel University        
			-----------------------------------------
	At level 1: Red. Int., RFO, no backsteps, dynamic trust

	Previous internal coordinate definitions found.
	---Fragment 1 Geometry and Gradient---
	 N           0.0000000000        0.0000000000       -1.0320967453
	 N           0.0000000000        0.0000000000        1.0320967453
	             0.0000000000        0.0000000000       -0.0026343700
	             0.0000000000        0.0000000000        0.0026343700

	---Fragment 1 Intrafragment Coordinates---
	 - Coordinate -           - BOHR/RAD -       - ANG/DEG -
	 R(1,2)           =         2.064193	       1.092324

	Current energy   :      -109.5344933031

	Energy change for the previous step:
		Projected    :        -0.0002872088
		Actual       :        -0.0002220006
	Energy ratio indicates good step: Trust radius increased to 1.000e+00.


	Performing BFGS update.
	Previous computed or guess Hessian on step 1.
	Steps to be used in Hessian update: 1
	Taking RFO optimization step.
	Going to follow RFO solution 1.
	Using RFO vector 1.
	Norm of target step-size    0.00166
	Projected energy change by RFO approximation:        -0.0000029924

	Back-transformation to cartesian coordinates...
	Successfully converged to displaced geometry.

	--- Internal Coordinate Step in ANG or DEG, aJ/ANG or AJ/DEG ---
	 ---------------------------------------------------------------------------
	   Coordinate                Previous        Force       Change         New 
	   ----------                --------       ------       ------       ------
	    1 R(1,2)          =      1.092324    -0.021704    -0.000877     1.091447
	 ---------------------------------------------------------------------------
	Successfully symmetrized geometry.

  ==> Convergence Check <==

  Measures of convergence in internal coordinates in au.
  Criteria marked as inactive (o), active & met (*), and active & unmet ( ).
  ---------------------------------------------------------------------------------------------
   Step     Total Energy     Delta E     MAX Force     RMS Force      MAX Disp      RMS Disp   
  ---------------------------------------------------------------------------------------------
    Convergence Criteria    1.00e-06 *    3.00e-04 *             o    1.20e-03 *             o
  ---------------------------------------------------------------------------------------------
      2    -109.53449330   -2.22e-04      2.63e-03      2.63e-03 o    1.66e-03      1.66e-03 o  ~
  ---------------------------------------------------------------------------------------------

	Writing optimization data to binary file.
	Structure for next step:
	Cartesian Geometry (in Angstrom)
	    N     0.0000000000   0.0000000000  -0.5457236386
	    N     0.0000000000   0.0000000000   0.5457236386
			--------------------------
			 OPTKING Finished Execution 
			--------------------------

    Structure for next step:
    Molecular point group: d2h
    Full point group: D_inf_h

    Geometry (in Angstrom), charge = 0, multiplicity = 1:

    N            0.000000000000     0.000000000000    -0.545723640736
    N            0.000000000000     0.000000000000     0.545723640736

gradient() will perform gradient computation by finite difference of analytic energies.

         ----------------------------------------------------------
                                   FINDIF
                     R. A. King and Jonathon Misiewicz
         ---------------------------------------------------------

  Using finite-differences of energies to determine gradients.
    Generating geometries for use with 3-point formula.
    Displacement size will be 5.00e-03.
    Number of atoms is 2.
    Number of symmetric SALCs is 1.
    Translations projected? 1. Rotations projected? 1.
    Number of geometries (including reference) is 3.

  //>>>>>>>>>>>>>>>>>>>>>>>>>>>>>>>>>>>//
  //    Loading displacement 1 of 3    //
  //<<<<<<<<<<<<<<<<<<<<<<<<<<<<<<<<<<<//

*** tstart() called on bp1-compute00092.data.bp.acrc.priv
*** at Tue Apr 27 17:39:48 2021

   => Loading Basis Set <=

    Name: CC-PV(T+D)Z
    Role: ORBITAL
    Keyword: BASIS
    atoms 1-2 entry N          line   233 file /work/zw18965/.conda/envs/p4env/share/psi4/basis/cc-pv_tpd_z.gbs 


         ---------------------------------------------------------
                                   SCF
               by Justin Turney, Rob Parrish, Andy Simmonett
                          and Daniel G. A. Smith
                              RKS Reference
                       24 Threads, 137329 MiB Core
         ---------------------------------------------------------

  ==> Geometry <==

    Molecular point group: d2h
    Full point group: D_inf_h

    Geometry (in Angstrom), charge = 0, multiplicity = 1:

       Center              X                  Y                   Z               Mass       
    ------------   -----------------  -----------------  -----------------  -----------------
         N            0.000000000000     0.000000000000    -0.545723640736    14.003074004430
         N            0.000000000000     0.000000000000     0.545723640736    14.003074004430

  Running in d2h symmetry.

  Rotational constants: A = ************  B =      2.02115  C =      2.02115 [cm^-1]
  Rotational constants: A = ************  B =  60592.41803  C =  60592.41803 [MHz]
  Nuclear repulsion =   23.757155991849523

  Charge       = 0
  Multiplicity = 1
  Electrons    = 14
  Nalpha       = 7
  Nbeta        = 7

  ==> Algorithm <==

  SCF Algorithm Type is DF.
  DIIS enabled.
  MOM disabled.
  Fractional occupation disabled.
  Guess Type is READ.
  Energy threshold   = 1.00e-08
  Density threshold  = 1.00e-08
  Integral threshold = 0.00e+00

  ==> Primary Basis <==

  Basis Set: CC-PV(T+D)Z
    Blend: CC-PV(T+D)Z
    Number of shells: 20
    Number of basis function: 60
    Number of Cartesian functions: 70
    Spherical Harmonics?: true
    Max angular momentum: 3

  ==> DFT Potential <==

   => Composite Functional: WB97X-V <= 

    wB97X-V Hyb-GGA Exchange-Correlation Functional

    N. Mardirossian and M. Head-Gordon, Phys. Chem. Chem. Phys. 16, 9904 (2014)

    Deriv               =              1
    GGA                 =           TRUE
    Meta                =          FALSE

    Exchange Hybrid     =           TRUE
    MP2 Hybrid          =          FALSE

   => Exchange-Correlation Functionals <=

    1.0000   wB97X-V range-separated functional

   => Exact (HF) Exchange <=

    0.8330            HF,LR [omega = 0.3000]
    0.1670               HF 

   => VV10 Non-Local Parameters <=

    VV10 B              =     6.0000E+00
    VV10 C              =     1.0000E-02

   => Molecular Quadrature <=

    Radial Scheme          =       TREUTLER
    Pruning Scheme         =           FLAT
    Nuclear Scheme         =       TREUTLER

    BS radius alpha        =              1
    Pruning alpha          =              1
    Radial Points          =             75
    Spherical Points       =            302
    Total Points           =          42426
    Total Blocks           =            378
    Max Points             =            255
    Max Functions          =             60

   => Loading Basis Set <=

    Name: (CC-PV(T+D)Z AUX)
    Role: JKFIT
    Keyword: DF_BASIS_SCF
    atoms 1-2 entry N          line   177 file /work/zw18965/.conda/envs/p4env/share/psi4/basis/cc-pvtz-jkfit.gbs 

   => Loading Basis Set <=

    Name: CC-PV(T+D)Z
    Role: ORBITAL
    Keyword: BASIS
    atoms 1-2 entry N          line   233 file /work/zw18965/.conda/envs/p4env/share/psi4/basis/cc-pv_tpd_z.gbs 

  Reading orbitals from file 180, no projection.

  ==> Pre-Iterations <==

   -------------------------------------------------------
    Irrep   Nso     Nmo     Nalpha   Nbeta   Ndocc  Nsocc
   -------------------------------------------------------
     Ag        13      13       0       0       0       0
     B1g        3       3       0       0       0       0
     B2g        7       7       0       0       0       0
     B3g        7       7       0       0       0       0
     Au         3       3       0       0       0       0
     B1u       13      13       0       0       0       0
     B2u        7       7       0       0       0       0
     B3u        7       7       0       0       0       0
   -------------------------------------------------------
    Total      60      60       7       7       7       0
   -------------------------------------------------------

  ==> Integral Setup <==

  ==> DiskDFJK: Density-Fitted J/K Matrices <==

    J tasked:                  Yes
    K tasked:                  Yes
    wK tasked:                 Yes
    Omega:               3.000E-01
    OpenMP threads:             24
    Integrals threads:          24
    Memory [MiB]:           102924
    Algorithm:                Core
    Integral Cache:           NONE
    Schwarz Cutoff:          1E-12
    Fitting Condition:       1E-10

   => Auxiliary Basis Set <=

  Basis Set: (CC-PV(T+D)Z AUX)
    Blend: CC-PVTZ-JKFIT
    Number of shells: 50
    Number of basis function: 158
    Number of Cartesian functions: 192
    Spherical Harmonics?: true
    Max angular momentum: 4

  Cached 100.0% of DFT collocation blocks in 0.070 [GiB].

  Minimum eigenvalue in the overlap matrix is 1.1241269736E-03.
  Using Symmetric Orthogonalization.

  SCF Guess: Orbitals guess was supplied from a previous computation.

  ==> Iterations <==

                           Total Energy        Delta E     RMS |[F,P]|

   @DF-RKS iter   0:  -109.53496730090255   -1.09535e+02   1.83580e-04 
   @DF-RKS iter   1:  -109.53449527718352    4.72024e-04   2.39792e-05 DIIS
   @DF-RKS iter   2:  -109.53449540575960   -1.28576e-07   1.09627e-05 DIIS
   @DF-RKS iter   3:  -109.53449542600028   -2.02407e-08   7.10408e-07 DIIS
   @DF-RKS iter   4:  -109.53449542612690   -1.26619e-10   1.63506e-07 DIIS
   @DF-RKS iter   5:  -109.53449542613474   -7.84439e-12   2.00778e-08 DIIS
   @DF-RKS iter   6:  -109.53449542613492   -1.84741e-13   1.60380e-09 DIIS
  Energy and wave function converged.


  ==> Post-Iterations <==

    Orbital Energies [Eh]
    ---------------------

    Doubly Occupied:                                                      

       1Ag   -14.509101     1B1u  -14.507291     2Ag    -1.256633  
       2B1u   -0.669272     1B2u   -0.576972     1B3u   -0.576972  
       3Ag    -0.542592  

    Virtual:                                                              

       1B3g    0.083895     1B2g    0.083895     3B1u    0.390917  
       2B3u    0.495680     2B2u    0.495680     4Ag     0.514071  
       5Ag     0.596306     2B2g    0.642208     2B3g    0.642208  
       4B1u    0.815325     6Ag     0.940720     1B1g    0.940720  
       5B1u    0.980174     3B2u    1.212010     3B3u    1.212010  
       6B1u    1.382949     1Au     1.382949     7Ag     1.792534  
       3B3g    1.797472     3B2g    1.797472     7B1u    2.051509  
       4B3u    2.879160     4B2u    2.879160     8Ag     3.042480  
       4B2g    3.224390     4B3g    3.224390     8B1u    3.486182  
       2B1g    3.575972     9Ag     3.575972     5B3u    3.708416  
       5B2u    3.708416     6B3u    3.713885     6B2u    3.713885  
      10Ag     4.091295     5B2g    4.194269     5B3g    4.194269  
       3B1g    4.468506    11Ag     4.468507     6B3g    4.587662  
       6B2g    4.587662     2Au     4.603021     9B1u    4.603022  
      10B1u    4.753163     3Au     5.037533    11B1u    5.037534  
       7B2u    5.120118     7B3u    5.120118    12Ag     5.222845  
      12B1u    5.833666     7B3g    6.550339     7B2g    6.550339  
      13Ag     6.639730    13B1u   16.272366  

    Final Occupation by Irrep:
             Ag   B1g   B2g   B3g    Au   B1u   B2u   B3u 
    DOCC [     3,    0,    0,    0,    0,    2,    1,    1 ]

  @DF-RKS Final Energy:  -109.53449542613492

   => Energetics <=

    Nuclear Repulsion Energy =             23.7571559918495225
    One-Electron Energy =                -194.7894829732907169
    Two-Electron Energy =                  71.1325206826326166
    DFT Exchange-Correlation Energy =      -9.6936461512399870
    Empirical Dispersion Energy =           0.0000000000000000
    VV10 Nonlocal Energy =                  0.0589570239136533
    Total Energy =                       -109.5344954261349244

Computation Completed


Properties will be evaluated at   0.000000,   0.000000,   0.000000 [a0]

Properties computed using the SCF density matrix

  Nuclear Dipole Moment: [e a0]
     X:     0.0000      Y:     0.0000      Z:     0.0000

  Electronic Dipole Moment: [e a0]
     X:     0.0000      Y:     0.0000      Z:     0.0000

  Dipole Moment: [e a0]
     X:     0.0000      Y:     0.0000      Z:     0.0000     Total:     0.0000

  Dipole Moment: [D]
     X:     0.0000      Y:     0.0000      Z:     0.0000     Total:     0.0000


*** tstop() called on bp1-compute00092.data.bp.acrc.priv at Tue Apr 27 17:39:50 2021
Module time:
	user time   =      33.62 seconds =       0.56 minutes
	system time =       1.48 seconds =       0.02 minutes
	total time  =          2 seconds =       0.03 minutes
Total time:
	user time   =     262.27 seconds =       4.37 minutes
	system time =      11.26 seconds =       0.19 minutes
	total time  =         12 seconds =       0.20 minutes

  //>>>>>>>>>>>>>>>>>>>>>>>>>>>>>>>>>>>//
  //    Loading displacement 2 of 3    //
  //<<<<<<<<<<<<<<<<<<<<<<<<<<<<<<<<<<<//

*** tstart() called on bp1-compute00092.data.bp.acrc.priv
*** at Tue Apr 27 17:39:50 2021

   => Loading Basis Set <=

    Name: CC-PV(T+D)Z
    Role: ORBITAL
    Keyword: BASIS
    atoms 1-2 entry N          line   233 file /work/zw18965/.conda/envs/p4env/share/psi4/basis/cc-pv_tpd_z.gbs 


         ---------------------------------------------------------
                                   SCF
               by Justin Turney, Rob Parrish, Andy Simmonett
                          and Daniel G. A. Smith
                              RKS Reference
                       24 Threads, 137329 MiB Core
         ---------------------------------------------------------

  ==> Geometry <==

    Molecular point group: d2h
    Full point group: D_inf_h

    Geometry (in Angstrom), charge = 0, multiplicity = 1:

       Center              X                  Y                   Z               Mass       
    ------------   -----------------  -----------------  -----------------  -----------------
         N            0.000000000000     0.000000000000    -0.546223611314    14.003074004430
         N            0.000000000000     0.000000000000     0.546223611314    14.003074004430

  Running in d2h symmetry.

  Rotational constants: A = ************  B =      2.01745  C =      2.01745 [cm^-1]
  Rotational constants: A = ************  B =  60481.54563  C =  60481.54563 [MHz]
  Nuclear repulsion =   23.735410540448342

  Charge       = 0
  Multiplicity = 1
  Electrons    = 14
  Nalpha       = 7
  Nbeta        = 7

  ==> Algorithm <==

[...]
   @DF-RKS iter  10:  -109.53449264535368    7.10543e-14   2.96437e-11 DIIS
  Energy and wave function converged.


  ==> Post-Iterations <==

    Orbital Energies [Eh]
    ---------------------

    Doubly Occupied:                                                      

       1Ag   -14.509401     1B1u  -14.507606     2Ag    -1.256061  
       2B1u   -0.669551     1B3u   -0.576629     1B2u   -0.576629  
       3Ag    -0.542533  

    Virtual:                                                              

       1B2g    0.083422     1B3g    0.083422     3B1u    0.390784  
       2B3u    0.495808     2B2u    0.495808     4Ag     0.514189  
       5Ag     0.596233     2B2g    0.642075     2B3g    0.642075  
       4B1u    0.814317     6Ag     0.940784     1B1g    0.940784  
       5B1u    0.979367     3B2u    1.211367     3B3u    1.211367  
       6B1u    1.382577     1Au     1.382577     7Ag     1.792643  
       3B3g    1.797313     3B2g    1.797313     7B1u    2.049507  
       4B2u    2.879222     4B3u    2.879222     8Ag     3.041932  
       4B2g    3.223462     4B3g    3.223462     8B1u    3.486826  
       2B1g    3.575675     9Ag     3.575675     5B3u    3.708949  
       5B2u    3.708949     6B2u    3.713076     6B3u    3.713076  
      10Ag     4.090151     5B2g    4.193494     5B3g    4.193494  
       3B1g    4.468336    11Ag     4.468336     6B3g    4.588653  
       6B2g    4.588653     2Au     4.602790     9B1u    4.602791  
      10B1u    4.750591     3Au     5.035394    11B1u    5.035395  
       7B2u    5.118683     7B3u    5.118683    12Ag     5.224481  
      12B1u    5.830466     7B2g    6.545995     7B3g    6.545995  
      13Ag     6.632899    13B1u   16.236792  

    Final Occupation by Irrep:
             Ag   B1g   B2g   B3g    Au   B1u   B2u   B3u 
    DOCC [     3,    0,    0,    0,    0,    2,    1,    1 ]

  @DF-RKS Final Energy:  -109.53449264535368

   => Energetics <=

    Nuclear Repulsion Energy =             23.7354105404483420
    One-Electron Energy =                -194.7474817996118759
    Two-Electron Energy =                  71.1112443943157189
    DFT Exchange-Correlation Energy =      -9.6926223935299589
    Empirical Dispersion Energy =           0.0000000000000000
    VV10 Nonlocal Energy =                  0.0589566130240834
    Total Energy =                       -109.5344926453536800

Computation Completed


Properties will be evaluated at   0.000000,   0.000000,   0.000000 [a0]

Properties computed using the SCF density matrix

  Nuclear Dipole Moment: [e a0]
     X:     0.0000      Y:     0.0000      Z:     0.0000

  Electronic Dipole Moment: [e a0]
     X:     0.0000      Y:     0.0000      Z:     0.0000

  Dipole Moment: [e a0]
     X:     0.0000      Y:     0.0000      Z:     0.0000     Total:     0.0000

  Dipole Moment: [D]
     X:     0.0000      Y:     0.0000      Z:     0.0000     Total:     0.0000


*** tstop() called on bp1-compute00092.data.bp.acrc.priv at Tue Apr 27 17:40:03 2021
Module time:
	user time   =      45.01 seconds =       0.75 minutes
	system time =       1.75 seconds =       0.03 minutes
	total time  =          2 seconds =       0.03 minutes
Total time:
	user time   =     545.03 seconds =       9.08 minutes
	system time =      22.29 seconds =       0.37 minutes
	total time  =         25 seconds =       0.42 minutes

  //>>>>>>>>>>>>>>>>>>>>>>>>>>>>>>>>>>>//
  //    Loading displacement 3 of 3    //
  //<<<<<<<<<<<<<<<<<<<<<<<<<<<<<<<<<<<//

*** tstart() called on bp1-compute00092.data.bp.acrc.priv
*** at Tue Apr 27 17:40:03 2021

   => Loading Basis Set <=

    Name: CC-PV(T+D)Z
    Role: ORBITAL
    Keyword: BASIS
    atoms 1-2 entry N          line   233 file /work/zw18965/.conda/envs/p4env/share/psi4/basis/cc-pv_tpd_z.gbs 


         ---------------------------------------------------------
                                   SCF
               by Justin Turney, Rob Parrish, Andy Simmonett
                          and Daniel G. A. Smith
                              RKS Reference
                       24 Threads, 137329 MiB Core
         ---------------------------------------------------------

  ==> Geometry <==

    Molecular point group: d2h
    Full point group: D_inf_h

    Geometry (in Angstrom), charge = 0, multiplicity = 1:

       Center              X                  Y                   Z               Mass       
    ------------   -----------------  -----------------  -----------------  -----------------
         N            0.000000000000     0.000000000000    -0.545223670159    14.003074004430
         N            0.000000000000     0.000000000000     0.545223670159    14.003074004430

  Running in d2h symmetry.

  Rotational constants: A = ************  B =      2.02485  C =      2.02485 [cm^-1]
  Rotational constants: A = ************  B =  60703.59558  C =  60703.59558 [MHz]
  Nuclear repulsion =   23.778941324446201

  Charge       = 0
  Multiplicity = 1
  Electrons    = 14
  Nalpha       = 7
  Nbeta        = 7

  ==> Algorithm <==

  SCF Algorithm Type is DF.
  DIIS enabled.
  MOM disabled.
  Fractional occupation disabled.
  Guess Type is SAD.
  Energy threshold   = 1.00e-10
  Density threshold  = 1.00e-10
  Integral threshold = 0.00e+00

  ==> Primary Basis <==

  Basis Set: CC-PV(T+D)Z
    Blend: CC-PV(T+D)Z
    Number of shells: 20
    Number of basis function: 60
    Number of Cartesian functions: 70
    Spherical Harmonics?: true
    Max angular momentum: 3

  ==> DFT Potential <==

   => Composite Functional: WB97X-V <= 

    wB97X-V Hyb-GGA Exchange-Correlation Functional

    N. Mardirossian and M. Head-Gordon, Phys. Chem. Chem. Phys. 16, 9904 (2014)

    Deriv               =              1
    GGA                 =           TRUE
    Meta                =          FALSE

    Exchange Hybrid     =           TRUE
    MP2 Hybrid          =          FALSE

   => Exchange-Correlation Functionals <=

    1.0000   wB97X-V range-separated functional

   => Exact (HF) Exchange <=

    0.8330            HF,LR [omega = 0.3000]
    0.1670               HF 

   => VV10 Non-Local Parameters <=

    VV10 B              =     6.0000E+00
    VV10 C              =     1.0000E-02

   => Molecular Quadrature <=

    Radial Scheme          =       TREUTLER
    Pruning Scheme         =           FLAT
    Nuclear Scheme         =       TREUTLER

    BS radius alpha        =              1
    Pruning alpha          =              1
    Radial Points          =             75
    Spherical Points       =            302
    Total Points           =          42426
    Total Blocks           =            378
    Max Points             =            255
    Max Functions          =             60

   => Loading Basis Set <=

    Name: (CC-PV(T+D)Z AUX)
    Role: JKFIT
    Keyword: DF_BASIS_SCF
    atoms 1-2 entry N          line   177 file /work/zw18965/.conda/envs/p4env/share/psi4/basis/cc-pvtz-jkfit.gbs 

  ==> Pre-Iterations <==

   -------------------------------------------------------
    Irrep   Nso     Nmo     Nalpha   Nbeta   Ndocc  Nsocc
   -------------------------------------------------------
     Ag        13      13       0       0       0       0
     B1g        3       3       0       0       0       0
     B2g        7       7       0       0       0       0
     B3g        7       7       0       0       0       0
     Au         3       3       0       0       0       0
     B1u       13      13       0       0       0       0
     B2u        7       7       0       0       0       0
     B3u        7       7       0       0       0       0
   -------------------------------------------------------
    Total      60      60       7       7       7       0
   -------------------------------------------------------

  ==> Integral Setup <==

  ==> DiskDFJK: Density-Fitted J/K Matrices <==

    J tasked:                  Yes
    K tasked:                  Yes
    wK tasked:                 Yes
    Omega:               3.000E-01
    OpenMP threads:             24
    Integrals threads:          24
    Memory [MiB]:           102924
    Algorithm:                Core
    Integral Cache:           NONE
    Schwarz Cutoff:          1E-12
    Fitting Condition:       1E-10

   => Auxiliary Basis Set <=

  Basis Set: (CC-PV(T+D)Z AUX)
    Blend: CC-PVTZ-JKFIT
    Number of shells: 50
    Number of basis function: 158
    Number of Cartesian functions: 192
    Spherical Harmonics?: true
    Max angular momentum: 4

  Cached 100.0% of DFT collocation blocks in 0.070 [GiB].

  Minimum eigenvalue in the overlap matrix is 1.1196586925E-03.
  Using Symmetric Orthogonalization.

  SCF Guess: Superposition of Atomic Densities via on-the-fly atomic UHF.

  ==> Iterations <==

                           Total Energy        Delta E     RMS |[F,P]|

   @DF-RKS iter SAD:  -108.81293546980450   -1.08813e+02   0.00000e+00 
   @DF-RKS iter   1:  -109.51901154351910   -7.06076e-01   9.05223e-03 DIIS
   @DF-RKS iter   2:  -109.53251050249136   -1.34990e-02   3.29657e-03 DIIS
   @DF-RKS iter   3:  -109.53447364297155   -1.96314e-03   3.23275e-04 DIIS
   @DF-RKS iter   4:  -109.53449183360870   -1.81906e-05   4.33254e-05 DIIS
   @DF-RKS iter   5:  -109.53449232252467   -4.88916e-07   5.93711e-06 DIIS
   @DF-RKS iter   6:  -109.53449233646063   -1.39360e-08   4.16426e-07 DIIS
   @DF-RKS iter   7:  -109.53449233655145   -9.08216e-11   4.49383e-08 DIIS
   @DF-RKS iter   8:  -109.53449233655238   -9.23706e-13   4.89892e-09 DIIS
   @DF-RKS iter   9:  -109.53449233655242   -4.26326e-14   4.12129e-10 DIIS
   @DF-RKS iter  10:  -109.53449233655232    9.94760e-14   2.96425e-11 DIIS
  Energy and wave function converged.


  ==> Post-Iterations <==

    Orbital Energies [Eh]
    ---------------------

    Doubly Occupied:                                                      

       1Ag   -14.508801     1B1u  -14.506975     2Ag    -1.257205  
       2B1u   -0.668993     1B3u   -0.577316     1B2u   -0.577316  
       3Ag    -0.542651  

    Virtual:                                                              

       1B3g    0.084369     1B2g    0.084369     3B1u    0.391050  
       2B3u    0.495551     2B2u    0.495551     4Ag     0.513953  
       5Ag     0.596379     2B3g    0.642341     2B2g    0.642341  
       4B1u    0.816324     6Ag     0.940655     1B1g    0.940656  
       5B1u    0.980994     3B2u    1.212654     3B3u    1.212654  
       6B1u    1.383321     1Au     1.383321     7Ag     1.792423  
       3B2g    1.797630     3B3g    1.797630     7B1u    2.053519  
       4B3u    2.879095     4B2u    2.879095     8Ag     3.043032  
       4B2g    3.225320     4B3g    3.225320     8B1u    3.485544  
       2B1g    3.576271     9Ag     3.576271     5B3u    3.707884  
       5B2u    3.707884     6B2u    3.714698     6B3u    3.714698  
      10Ag     4.092437     5B3g    4.195045     5B2g    4.195045  
       3B1g    4.468678    11Ag     4.468678     6B2g    4.586670  
       6B3g    4.586670     2Au     4.603249     9B1u    4.603250  
      10B1u    4.755737     3Au     5.039676    11B1u    5.039677  
       7B2u    5.121554     7B3u    5.121554    12Ag     5.221210  
      12B1u    5.836871     7B2g    6.554689     7B3g    6.554689  
      13Ag     6.646581    13B1u   16.308005  

    Final Occupation by Irrep:
             Ag   B1g   B2g   B3g    Au   B1u   B2u   B3u 
    DOCC [     3,    0,    0,    0,    0,    2,    1,    1 ]

  @DF-RKS Final Energy:  -109.53449233655232

   => Energetics <=

    Nuclear Repulsion Energy =             23.7789413244462011
    One-Electron Energy =                -194.8315506419197902
    Two-Electron Energy =                  71.1538318353695161
    DFT Exchange-Correlation Energy =      -9.6946722917455865
    Empirical Dispersion Energy =           0.0000000000000000
    VV10 Nonlocal Energy =                  0.0589574372973335
    Total Energy =                       -109.5344923365523186

Computation Completed


Properties will be evaluated at   0.000000,   0.000000,   0.000000 [a0]

Properties computed using the SCF density matrix

  Nuclear Dipole Moment: [e a0]
     X:     0.0000      Y:     0.0000      Z:    -0.0000

  Electronic Dipole Moment: [e a0]
     X:     0.0000      Y:     0.0000      Z:     0.0000

  Dipole Moment: [e a0]
     X:     0.0000      Y:     0.0000      Z:    -0.0000     Total:     0.0000

  Dipole Moment: [D]
     X:     0.0000      Y:     0.0000      Z:    -0.0000     Total:     0.0000


*** tstop() called on bp1-compute00092.data.bp.acrc.priv at Tue Apr 27 17:40:04 2021
Module time:
	user time   =      44.15 seconds =       0.74 minutes
	system time =       1.62 seconds =       0.03 minutes
	total time  =          1 seconds =       0.02 minutes
Total time:
	user time   =     589.32 seconds =       9.82 minutes
	system time =      23.91 seconds =       0.40 minutes
	total time  =         26 seconds =       0.43 minutes

         ----------------------------------------------------------
                                   FINDIF
                     R. A. King and Jonathon Misiewicz
         ---------------------------------------------------------

  Computing second-derivative from energies using projected, 
  symmetry-adapted, cartesian coordinates.

  3 energies passed in, including the reference geometry.
    Using 3-point formula.
    Energy without displacement: -109.5344954261
    Check energies below for precision!
    0: -1 :      -109.5344926454
    0: 1  :      -109.5344923366

-------------------------------------------------------------


  ==> Harmonic Vibrational Analysis <==

  non-mass-weighted Hessian:       Symmetric? True   Hermitian? True   Lin Dep Dim?  5 (0)
  projection of translations (True) and rotations (True) removed 5 degrees of freedom (5)
  total projector:                 Symmetric? True   Hermitian? True   Lin Dep Dim?  5 (5)
  mass-weighted Hessian:           Symmetric? True   Hermitian? True   Lin Dep Dim?  5 (0)
  pre-proj  low-frequency mode:    0.0000  [cm^-1]
  pre-proj  low-frequency mode:    0.0000  [cm^-1]
  pre-proj  low-frequency mode:    0.0000  [cm^-1]
  pre-proj  low-frequency mode:    0.0000  [cm^-1]
  pre-proj  low-frequency mode:    0.0000  [cm^-1]
  pre-proj  all modes:['0.0000' '0.0000' '0.0000' '0.0000' '0.0000' '2490.9602']
  projected mass-weighted Hessian: Symmetric? True   Hermitian? True   Lin Dep Dim?  5 (5)
  post-proj low-frequency mode:    0.0000  [cm^-1] (TR)
  post-proj low-frequency mode:    0.0000  [cm^-1] (TR)
  post-proj low-frequency mode:    0.0000  [cm^-1] (TR)
  post-proj low-frequency mode:    0.0000  [cm^-1] (TR)
  post-proj low-frequency mode:    0.0000  [cm^-1] (TR)
  post-proj  all modes:['0.0000' '0.0000' '0.0000' '0.0000' '0.0000' '2490.9602']

  Vibration                       6           
  Freq [cm^-1]                2490.9602       
  Irrep                           Ag          
  Reduced mass [u]             14.0031        
  Force const [mDyne/A]        51.1926        
  Turning point v=0 [a0]        0.0588        
  RMS dev v=0 [a0 u^1/2]        0.1555        
  Char temp [K]               3583.9371       
  ----------------------------------------------------------------------------------
      1   N                0.00  0.00  0.71   
      2   N                0.00  0.00 -0.71   

  ==> Thermochemistry Components <==

  Entropy, S
    Electronic S            0.000 [cal/(mol K)]        0.000 [J/(mol K)]       0.00000000 [mEh/K] (multiplicity = 1)
    Translational S        35.924 [cal/(mol K)]      150.307 [J/(mol K)]       0.05724883 [mEh/K] (mol. weight = 28.0061 [u], P = 101325.00 [Pa])
    Rotational S            9.811 [cal/(mol K)]       41.048 [J/(mol K)]       0.01563452 [mEh/K] (symmetry no. = 2)
    Vibrational S           0.000 [cal/(mol K)]        0.001 [J/(mol K)]       0.00000025 [mEh/K]
  Total S                  45.735 [cal/(mol K)]      191.356 [J/(mol K)]       0.07288359 [mEh/K]
  Correction S              0.000 [cal/(mol K)]        0.000 [J/(mol K)]       0.00000000 [mEh/K]

  Constant volume heat capacity, Cv
    Electronic Cv           0.000 [cal/(mol K)]        0.000 [J/(mol K)]       0.00000000 [mEh/K]
    Translational Cv        2.981 [cal/(mol K)]       12.472 [J/(mol K)]       0.00475022 [mEh/K]
    Rotational Cv           1.987 [cal/(mol K)]        8.314 [J/(mol K)]       0.00316681 [mEh/K]
    Vibrational Cv          0.002 [cal/(mol K)]        0.007 [J/(mol K)]       0.00000275 [mEh/K]
  Total Cv                  4.970 [cal/(mol K)]       20.793 [J/(mol K)]       0.00791978 [mEh/K]
  Correction Cv             0.000 [cal/(mol K)]        0.000 [J/(mol K)]       0.00000000 [mEh/K]

  Constant pressure heat capacity, Cp
    Electronic Cp           0.000 [cal/(mol K)]        0.000 [J/(mol K)]       0.00000000 [mEh/K]
    Translational Cp        4.968 [cal/(mol K)]       20.786 [J/(mol K)]       0.00791703 [mEh/K]
    Rotational Cp           1.987 [cal/(mol K)]        8.314 [J/(mol K)]       0.00316681 [mEh/K]
    Vibrational Cp          0.002 [cal/(mol K)]        0.007 [J/(mol K)]       0.00000275 [mEh/K]
  Total Cp                  6.957 [cal/(mol K)]       29.108 [J/(mol K)]       0.01108659 [mEh/K]
  Correction Cp             0.000 [cal/(mol K)]        0.000 [J/(mol K)]       0.00000000 [mEh/K]

  ==> Thermochemistry Energy Analysis <==

  Raw electronic energy, E0
  Total E0, Electronic energy at well bottom at 0 [K]                 -109.53449543 [Eh]

  Zero-point energy, ZPE_vib = Sum_i nu_i / 2
    Electronic ZPE          0.000 [kcal/mol]        0.000 [kJ/mol]       0.00000000 [Eh]
    Translational ZPE       0.000 [kcal/mol]        0.000 [kJ/mol]       0.00000000 [Eh]
    Rotational ZPE          0.000 [kcal/mol]        0.000 [kJ/mol]       0.00000000 [Eh]
    Vibrational ZPE         3.561 [kcal/mol]       14.899 [kJ/mol]       0.00567482 [Eh]        1245.480 [cm^-1]
  Correction ZPE            3.561 [kcal/mol]       14.899 [kJ/mol]       0.00567482 [Eh]        1245.480 [cm^-1]
  Total ZPE, Electronic energy at 0 [K]                               -109.52882060 [Eh]

  Thermal Energy, E (includes ZPE)
    Electronic E            0.000 [kcal/mol]        0.000 [kJ/mol]       0.00000000 [Eh]
    Translational E         0.889 [kcal/mol]        3.718 [kJ/mol]       0.00141628 [Eh]
    Rotational E            0.592 [kcal/mol]        2.479 [kJ/mol]       0.00094418 [Eh]
    Vibrational E           3.561 [kcal/mol]       14.899 [kJ/mol]       0.00567489 [Eh]
  Correction E              5.042 [kcal/mol]       21.097 [kJ/mol]       0.00803535 [Eh]
  Total E, Electronic energy at  298.15 [K]                           -109.52646007 [Eh]

  Enthalpy, H_trans = E_trans + k_B * T
    Electronic H            0.000 [kcal/mol]        0.000 [kJ/mol]       0.00000000 [Eh]
    Translational H         1.481 [kcal/mol]        6.197 [kJ/mol]       0.00236046 [Eh]
    Rotational H            0.592 [kcal/mol]        2.479 [kJ/mol]       0.00094418 [Eh]
    Vibrational H           3.561 [kcal/mol]       14.899 [kJ/mol]       0.00567489 [Eh]
  Correction H              5.635 [kcal/mol]       23.576 [kJ/mol]       0.00897954 [Eh]
  Total H, Enthalpy at  298.15 [K]                                    -109.52551589 [Eh]

  Gibbs free energy, G = H - T * S
    Electronic G            0.000 [kcal/mol]        0.000 [kJ/mol]       0.00000000 [Eh]
    Translational G        -9.230 [kcal/mol]      -38.617 [kJ/mol]      -0.01470828 [Eh]
    Rotational G           -2.333 [kcal/mol]       -9.760 [kJ/mol]      -0.00371725 [Eh]
    Vibrational G           3.561 [kcal/mol]       14.899 [kJ/mol]       0.00567482 [Eh]
  Correction G             -8.001 [kcal/mol]      -33.477 [kJ/mol]      -0.01275070 [Eh]
  Total G, Free enthalpy at  298.15 [K]                               -109.54724613 [Eh]

    Psi4 stopped on: Tuesday, 27 April 2021 05:40PM
    Psi4 wall time for execution: 0:00:26.56

*** Psi4 exiting successfully. Buy a developer a beer!
