
    -----------------------------------------------------------------------
          Psi4: An Open-Source Ab Initio Electronic Structure Package
                               Psi4 1.3.2 release

                         Git: Rev {HEAD} ecbda83 


    R. M. Parrish, L. A. Burns, D. G. A. Smith, A. C. Simmonett,
    A. E. DePrince III, E. G. Hohenstein, U. Bozkaya, A. Yu. Sokolov,
    R. Di Remigio, R. M. Richard, J. F. Gonthier, A. M. James,
    H. R. McAlexander, A. Kumar, M. Saitow, X. Wang, B. P. Pritchard,
    P. Verma, H. F. Schaefer III, K. Patkowski, R. A. King, E. F. Valeev,
    F. A. Evangelista, J. M. Turney, T. D. Crawford, and C. D. Sherrill,
    J. Chem. Theory Comput. 13(7) pp 3185--3197 (2017).
    (doi: 10.1021/acs.jctc.7b00174)


                         Additional Contributions by
    P. Kraus, H. Kruse, M. H. Lechner, M. C. Schieber, R. A. Shaw,
    A. Alenaizan, R. Galvelis, Z. L. Glick, S. Lehtola, and J. P. Misiewicz

    -----------------------------------------------------------------------


    Psi4 started on: Tuesday, 27 April 2021 05:40PM

    Process ID: 187873
    Host:       bp1-compute00090.data.bp.acrc.priv
    PSIDATADIR: /work/zw18965/.conda/envs/p4env/share/psi4
    Memory:     500.0 MiB
    Threads:    24
    
  ==> Input File <==

--------------------------------------------------------------------------
memory 144 GB

molecule {
0 1
P 0.0000000000 0.0000000000 -0.0679917919
H 1.1903431933 0.0000000000 0.6964572780
H -0.5951715967 -1.0308674445 0.6964572780
H -0.5951715967 1.0308674445 0.6964572780
}

set dynamic_level 1
set basis cc-pV(T+d)Z
 
optimize("wB97X-V")
frequencies("wB97X-V")
--------------------------------------------------------------------------

  Memory set to 134.110 GiB by Python driver.
gradient() will perform gradient computation by finite difference of analytic energies.

         ----------------------------------------------------------
                                   FINDIF
                     R. A. King and Jonathon Misiewicz
         ---------------------------------------------------------

  Using finite-differences of energies to determine gradients.
    Generating geometries for use with 3-point formula.
    Displacement size will be 5.00e-03.
    Number of atoms is 4.
    Number of symmetric SALCs is 4.
    Translations projected? 1. Rotations projected? 1.
    Number of geometries (including reference) is 9.

  //>>>>>>>>>>>>>>>>>>>>>>>>>>>>>>>>>>>//
  //    Loading displacement 1 of 9    //
  //<<<<<<<<<<<<<<<<<<<<<<<<<<<<<<<<<<<//

*** tstart() called on bp1-compute00090.data.bp.acrc.priv
*** at Tue Apr 27 17:40:33 2021

   => Loading Basis Set <=

    Name: CC-PV(T+D)Z
    Role: ORBITAL
    Keyword: BASIS
    atoms 1   entry P          line   712 file /work/zw18965/.conda/envs/p4env/share/psi4/basis/cc-pv_tpd_z.gbs 
    atoms 2-4 entry H          line    32 file /work/zw18965/.conda/envs/p4env/share/psi4/basis/cc-pv_tpd_z.gbs 


         ---------------------------------------------------------
                                   SCF
               by Justin Turney, Rob Parrish, Andy Simmonett
                          and Daniel G. A. Smith
                              RKS Reference
                       24 Threads, 137329 MiB Core
         ---------------------------------------------------------

  ==> Geometry <==

    Molecular point group: cs
    Full point group: C3v

    Geometry (in Angstrom), charge = 0, multiplicity = 1:

       Center              X                  Y                   Z               Mass       
    ------------   -----------------  -----------------  -----------------  -----------------
         P            0.000000000001     0.067984722378     0.000000000000    30.973761998420
         H            0.595171596587    -0.696464347522     1.030867444611     1.007825032230
         H            0.595171596587    -0.696464347522    -1.030867444611     1.007825032230
         H           -1.190343193220    -0.696464347522     0.000000000000     1.007825032230

  Running in cs symmetry.

  Rotational constants: A =      4.49328  B =      4.49328  C =      3.93501 [cm^-1]
  Rotational constants: A = 134705.25087  B = 134705.25086  C = 117968.59793 [MHz]
  Nuclear repulsion =   17.602846847432616

  Charge       = 0
  Multiplicity = 1
  Electrons    = 18
  Nalpha       = 9
  Nbeta        = 9

  ==> Algorithm <==

  SCF Algorithm Type is DF.
  DIIS enabled.
  MOM disabled.
  Fractional occupation disabled.
  Guess Type is SAD.
  Energy threshold   = 1.00e-08
  Density threshold  = 1.00e-08
  Integral threshold = 0.00e+00

  ==> Primary Basis <==

  Basis Set: CC-PV(T+D)Z
    Blend: CC-PV(T+D)Z
    Number of shells: 31
    Number of basis function: 81
    Number of Cartesian functions: 90
    Spherical Harmonics?: true
    Max angular momentum: 3

  ==> DFT Potential <==

   => Composite Functional: WB97X-V <= 

    wB97X-V Hyb-GGA Exchange-Correlation Functional

    N. Mardirossian and M. Head-Gordon, Phys. Chem. Chem. Phys. 16, 9904 (2014)

    Deriv               =              1
    GGA                 =           TRUE
    Meta                =          FALSE

    Exchange Hybrid     =           TRUE
    MP2 Hybrid          =          FALSE

   => Exchange-Correlation Functionals <=

    1.0000   wB97X-V range-separated functional

   => Exact (HF) Exchange <=

    0.8330            HF,LR [omega = 0.3000]
    0.1670               HF 

   => VV10 Non-Local Parameters <=

    VV10 B              =     6.0000E+00
    VV10 C              =     1.0000E-02

   => Molecular Quadrature <=

    Radial Scheme          =       TREUTLER
    Pruning Scheme         =           FLAT
    Nuclear Scheme         =       TREUTLER

    BS radius alpha        =              1
    Pruning alpha          =              1
    Radial Points          =             75
    Spherical Points       =            302
    Total Points           =          89235
    Total Blocks           =            727
    Max Points             =            256
    Max Functions          =             81

   => Loading Basis Set <=

    Name: (CC-PV(T+D)Z AUX)
    Role: JKFIT
    Keyword: DF_BASIS_SCF
    atoms 1   entry P          line   537 file /work/zw18965/.conda/envs/p4env/share/psi4/basis/cc-pvtz-jkfit.gbs 
    atoms 2-4 entry H          line    51 file /work/zw18965/.conda/envs/p4env/share/psi4/basis/cc-pvtz-jkfit.gbs 

  ==> Pre-Iterations <==

   -------------------------------------------------------
    Irrep   Nso     Nmo     Nalpha   Nbeta   Ndocc  Nsocc
   -------------------------------------------------------
     A'        50      50       0       0       0       0
     A"        31      31       0       0       0       0
   -------------------------------------------------------
    Total      81      81       9       9       9       0
   -------------------------------------------------------

  ==> Integral Setup <==

  ==> DiskDFJK: Density-Fitted J/K Matrices <==

    J tasked:                  Yes
    K tasked:                  Yes
    wK tasked:                 Yes
    Omega:               3.000E-01
    OpenMP threads:             24
    Integrals threads:          24
    Memory [MiB]:           102795
    Algorithm:                Core
    Integral Cache:           NONE
    Schwarz Cutoff:          1E-12
    Fitting Condition:       1E-10

   => Auxiliary Basis Set <=

  Basis Set: (CC-PV(T+D)Z AUX)
    Blend: CC-PVTZ-JKFIT
    Number of shells: 67
    Number of basis function: 211
    Number of Cartesian functions: 250
    Spherical Harmonics?: true
    Max angular momentum: 4

  Cached 100.0% of DFT collocation blocks in 0.196 [GiB].

  Minimum eigenvalue in the overlap matrix is 2.7723974593E-03.
  Using Symmetric Orthogonalization.

  SCF Guess: Superposition of Atomic Densities via on-the-fly atomic UHF.

  ==> Iterations <==

                           Total Energy        Delta E     RMS |[F,P]|

   @DF-RKS iter SAD:  -342.75793863519857   -3.42758e+02   0.00000e+00 
   @DF-RKS iter   1:  -343.07089985440143   -3.12961e-01   4.15310e-03 DIIS
   @DF-RKS iter   2:  -343.09542424171150   -2.45244e-02   2.08200e-03 DIIS
   @DF-RKS iter   3:  -343.10076846312359   -5.34422e-03   2.09790e-04 DIIS
   @DF-RKS iter   4:  -343.10104076451609   -2.72301e-04   3.23843e-05 DIIS
   @DF-RKS iter   5:  -343.10104781000405   -7.04549e-06   6.44335e-06 DIIS
   @DF-RKS iter   6:  -343.10104794550875   -1.35505e-07   8.01827e-07 DIIS
   @DF-RKS iter   7:  -343.10104794803544   -2.52669e-09   2.22692e-07 DIIS
   @DF-RKS iter   8:  -343.10104794815669   -1.21247e-10   3.40770e-08 DIIS
   @DF-RKS iter   9:  -343.10104794816340   -6.70752e-12   4.11352e-09 DIIS
  Energy and wave function converged.


  ==> Post-Iterations <==

    Orbital Energies [Eh]
    ---------------------

    Doubly Occupied:                                                      

       1Ap   -77.091896     2Ap    -6.656492     3Ap    -4.810472  
       1App   -4.810471     4Ap    -4.805961     5Ap    -0.772617  
       6Ap    -0.488619     2App   -0.488619     7Ap    -0.374624  

    Virtual:                                                              

       8Ap     0.110916     3App    0.110917     9Ap     0.113591  
      10Ap     0.271403     4App    0.271403    11Ap     0.334345  
       5App    0.338812    12Ap     0.338812    13Ap     0.360746  
      14Ap     0.441345     6App    0.441345    15Ap     0.492192  
      16Ap     0.584134    17Ap     0.687542     7App    0.687542  
       8App    0.849875    18Ap     0.895677     9App    0.895679  
      19Ap     1.012620    10App    1.012622    20Ap     1.139038  
      21Ap     1.205848    11App    1.205849    22Ap     1.292135  
      23Ap     1.311311    12App    1.311314    24Ap     1.397055  
      25Ap     1.452781    13App    1.598907    26Ap     1.598908  
      14App    1.673972    27Ap     1.753785    15App    1.753787  
      28Ap     1.821244    16App    1.835402    29Ap     1.835403  
      30Ap     2.154653    31Ap     2.457628    17App    2.457630  
      32Ap     2.694647    33Ap     2.782090    18App    2.782091  
      34Ap     3.295882    19App    3.295883    20App    3.306112  
      35Ap     3.352332    21App    3.352333    36Ap     3.599063  
      37Ap     3.653473    22App    3.653475    38Ap     3.680646  
      23App    3.724302    39Ap     3.781889    40Ap     3.792833  
      24App    3.792835    25App    4.024980    41Ap     4.035292  
      26App    4.035294    42Ap     4.130010    27App    4.130012  
      43Ap     4.250506    44Ap     4.303090    45Ap     4.308518  
      28App    4.308521    46Ap     4.712017    29App    4.712019  
      47Ap     5.854964    30App    6.008672    48Ap     6.008676  
      49Ap     6.106844    50Ap     6.918853    31App    6.918868  

    Final Occupation by Irrep:
             Ap   App 
    DOCC [     7,    2 ]

  @DF-RKS Final Energy:  -343.10104794816340

   => Energetics <=

    Nuclear Repulsion Energy =             17.6028468474326161
    One-Electron Energy =                -508.6019550357106596
    Two-Electron Energy =                 165.8460727748797012
    DFT Exchange-Correlation Energy =     -18.0234019992598249
    Empirical Dispersion Energy =           0.0000000000000000
    VV10 Nonlocal Energy =                  0.0753894644947691
    Total Energy =                       -343.1010479481633979

Computation Completed


Properties will be evaluated at   0.000000,   0.000000,   0.000000 [a0]

Properties computed using the SCF density matrix

  Nuclear Dipole Moment: [e a0]
     X:    -0.0000      Y:    -2.0213      Z:     0.0000

  Electronic Dipole Moment: [e a0]
     X:    -0.0000      Y:     1.7434      Z:     0.0000

  Dipole Moment: [e a0]
     X:    -0.0000      Y:    -0.2779      Z:     0.0000     Total:     0.2779

  Dipole Moment: [D]
     X:    -0.0000      Y:    -0.7064      Z:     0.0000     Total:     0.7064


*** tstop() called on bp1-compute00090.data.bp.acrc.priv at Tue Apr 27 17:40:36 2021
Module time:
	user time   =      74.09 seconds =       1.23 minutes
	system time =       3.30 seconds =       0.06 minutes
	total time  =          3 seconds =       0.05 minutes
Total time:
	user time   =      74.09 seconds =       1.23 minutes
	system time =       3.30 seconds =       0.06 minutes
	total time  =          3 seconds =       0.05 minutes

  //>>>>>>>>>>>>>>>>>>>>>>>>>>>>>>>>>>>//
  //    Loading displacement 2 of 9    //
  //<<<<<<<<<<<<<<<<<<<<<<<<<<<<<<<<<<<//

*** tstart() called on bp1-compute00090.data.bp.acrc.priv
*** at Tue Apr 27 17:40:36 2021

   => Loading Basis Set <=

    Name: CC-PV(T+D)Z
    Role: ORBITAL
    Keyword: BASIS
    atoms 1   entry P          line   712 file /work/zw18965/.conda/envs/p4env/share/psi4/basis/cc-pv_tpd_z.gbs 
    atoms 2-4 entry H          line    32 file /work/zw18965/.conda/envs/p4env/share/psi4/basis/cc-pv_tpd_z.gbs 


         ---------------------------------------------------------
                                   SCF
               by Justin Turney, Rob Parrish, Andy Simmonett
                          and Daniel G. A. Smith
                              RKS Reference
                       24 Threads, 137329 MiB Core
         ---------------------------------------------------------

  ==> Geometry <==

    Molecular point group: cs
    Full point group: Cs

    Geometry (in Angstrom), charge = 0, multiplicity = 1:

       Center              X                  Y                   Z               Mass       
    ------------   -----------------  -----------------  -----------------  -----------------
         P           -0.000107127161     0.067984722378     0.000000000000    30.973761998420
         H            0.596269052699    -0.697169143675     1.030867444611     1.007825032230
         H            0.596269052699    -0.697169143675    -1.030867444611     1.007825032230
         H           -1.189245737108    -0.695054755215     0.000000000000     1.007825032230

  Running in cs symmetry.

  Rotational constants: A =      4.49334  B =      4.49328  C =      3.93496 [cm^-1]
  Rotational constants: A = 134706.87892  B = 134704.99952  C = 117967.15655 [MHz]
  Nuclear repulsion =   17.602856191068895

  Charge       = 0
  Multiplicity = 1
  Electrons    = 18
  Nalpha       = 9
  Nbeta        = 9

  ==> Algorithm <==

  SCF Algorithm Type is DF.
  DIIS enabled.
  MOM disabled.
  Fractional occupation disabled.
  Guess Type is SAD.
  Energy threshold   = 1.00e-08
  Density threshold  = 1.00e-08
  Integral threshold = 0.00e+00

  ==> Primary Basis <==

  Basis Set: CC-PV(T+D)Z
    Blend: CC-PV(T+D)Z
    Number of shells: 31
    Number of basis function: 81
    Number of Cartesian functions: 90
    Spherical Harmonics?: true
    Max angular momentum: 3

  ==> DFT Potential <==

   => Composite Functional: WB97X-V <= 

    wB97X-V Hyb-GGA Exchange-Correlation Functional

    N. Mardirossian and M. Head-Gordon, Phys. Chem. Chem. Phys. 16, 9904 (2014)

    Deriv               =              1
    GGA                 =           TRUE
    Meta                =          FALSE

    Exchange Hybrid     =           TRUE
    MP2 Hybrid          =          FALSE

   => Exchange-Correlation Functionals <=

    1.0000   wB97X-V range-separated functional

   => Exact (HF) Exchange <=

    0.8330            HF,LR [omega = 0.3000]
    0.1670               HF 

   => VV10 Non-Local Parameters <=

    VV10 B              =     6.0000E+00
    VV10 C              =     1.0000E-02

   => Molecular Quadrature <=

    Radial Scheme          =       TREUTLER
    Pruning Scheme         =           FLAT
    Nuclear Scheme         =       TREUTLER

    BS radius alpha        =              1
    Pruning alpha          =              1
    Radial Points          =             75
    Spherical Points       =            302
    Total Points           =          89235
    Total Blocks           =            722
    Max Points             =            256
    Max Functions          =             81

   => Loading Basis Set <=

    Name: (CC-PV(T+D)Z AUX)
    Role: JKFIT
    Keyword: DF_BASIS_SCF
    atoms 1   entry P          line   537 file /work/zw18965/.conda/envs/p4env/share/psi4/basis/cc-pvtz-jkfit.gbs 
    atoms 2-4 entry H          line    51 file /work/zw18965/.conda/envs/p4env/share/psi4/basis/cc-pvtz-jkfit.gbs 

  ==> Pre-Iterations <==

   -------------------------------------------------------
    Irrep   Nso     Nmo     Nalpha   Nbeta   Ndocc  Nsocc
   -------------------------------------------------------
     A'        50      50       0       0       0       0
     A"        31      31       0       0       0       0
   -------------------------------------------------------
    Total      81      81       9       9       9       0
   -------------------------------------------------------

  ==> Integral Setup <==

  ==> DiskDFJK: Density-Fitted J/K Matrices <==

    J tasked:                  Yes
    K tasked:                  Yes
    wK tasked:                 Yes
    Omega:               3.000E-01
    OpenMP threads:             24
    Integrals threads:          24
    Memory [MiB]:           102795
    Algorithm:                Core
    Integral Cache:           NONE
    Schwarz Cutoff:          1E-12
    Fitting Condition:       1E-10

   => Auxiliary Basis Set <=

  Basis Set: (CC-PV(T+D)Z AUX)
    Blend: CC-PVTZ-JKFIT
    Number of shells: 67
    Number of basis function: 211
    Number of Cartesian functions: 250
    Spherical Harmonics?: true
    Max angular momentum: 4

  Cached 100.0% of DFT collocation blocks in 0.197 [GiB].

  Minimum eigenvalue in the overlap matrix is 2.7722086560E-03.
  Using Symmetric Orthogonalization.

  SCF Guess: Superposition of Atomic Densities via on-the-fly atomic UHF.

  ==> Iterations <==

                           Total Energy        Delta E     RMS |[F,P]|

   @DF-RKS iter SAD:  -342.75793788420492   -3.42758e+02   0.00000e+00 
   @DF-RKS iter   1:  -343.07089753271532   -3.12960e-01   4.15311e-03 DIIS
   @DF-RKS iter   2:  -343.09542206964215   -2.45245e-02   2.08201e-03 DIIS
   @DF-RKS iter   3:  -343.10076636643902   -5.34430e-03   2.09792e-04 DIIS
   @DF-RKS iter   4:  -343.10103867144903   -2.72305e-04   3.23859e-05 DIIS
   @DF-RKS iter   5:  -343.10104571726299   -7.04581e-06   6.44447e-06 DIIS
   @DF-RKS iter   6:  -343.10104585280078   -1.35538e-07   8.03106e-07 DIIS
   @DF-RKS iter   7:  -343.10104585533179   -2.53101e-09   2.23196e-07 DIIS
   @DF-RKS iter   8:  -343.10104585545395   -1.22157e-10   3.41966e-08 DIIS
   @DF-RKS iter   9:  -343.10104585546037   -6.42331e-12   4.29359e-09 DIIS
  Energy and wave function converged.


  ==> Post-Iterations <==

    Orbital Energies [Eh]
    ---------------------

    Doubly Occupied:                                                      

       1Ap   -77.091896     2Ap    -6.656492     1App   -4.810474  
       3Ap    -4.810469     4Ap    -4.805961     5Ap    -0.772618  
       6Ap    -0.488909     2App   -0.488329     7Ap    -0.374623  

    Virtual:                                                              

       3App    0.110704     8Ap     0.111117     9Ap     0.113602  
      10Ap     0.271306     4App    0.271500    11Ap     0.334343  
      12Ap     0.338773     5App    0.338853    13Ap     0.360746  
       6App    0.441262    14Ap     0.441427    15Ap     0.492192  
      16Ap     0.584133     7App    0.687154    17Ap     0.687931  
       8App    0.849874     9App    0.895673    18Ap     0.895684  
      19Ap     1.012342    10App    1.012898    20Ap     1.139040  
      21Ap     1.205655    11App    1.206042    22Ap     1.292132  
      12App    1.311186    23Ap     1.311442    24Ap     1.397054  
      25Ap     1.452781    13App    1.598225    26Ap     1.599592  
      14App    1.673973    15App    1.753293    27Ap     1.754278  
      28Ap     1.821244    29Ap     1.835272    16App    1.835534  
      30Ap     2.154651    17App    2.457371    31Ap     2.457875  
      32Ap     2.694657    18App    2.781954    33Ap     2.782229  
      34Ap     3.295662    19App    3.296101    20App    3.306114  
      35Ap     3.352148    21App    3.352516    36Ap     3.599059  
      22App    3.653153    37Ap     3.653782    38Ap     3.680644  
      23App    3.724318    39Ap     3.781876    24App    3.792819  
      40Ap     3.792862    25App    4.024978    26App    4.034860  
      41Ap     4.035730    27App    4.129477    42Ap     4.130548  
      43Ap     4.250508    44Ap     4.302991    45Ap     4.308490  
      28App    4.308648    29App    4.710395    46Ap     4.713661  
      47Ap     5.854963    48Ap     6.008438    30App    6.008875  
      49Ap     6.106881    31App    6.918199    50Ap     6.919511  

    Final Occupation by Irrep:
             Ap   App 
    DOCC [     7,    2 ]

  @DF-RKS Final Energy:  -343.10104585546037

   => Energetics <=

    Nuclear Repulsion Energy =             17.6028561910688950
    One-Electron Energy =                -508.6019687631456918
    Two-Electron Energy =                 165.8460796963769042
    DFT Exchange-Correlation Energy =     -18.0234024509964748
    Empirical Dispersion Energy =           0.0000000000000000
    VV10 Nonlocal Energy =                  0.0753894712359604
    Total Energy =                       -343.1010458554603701

Computation Completed


Properties will be evaluated at   0.000000,   0.000000,   0.000000 [a0]

Properties computed using the SCF density matrix

  Nuclear Dipole Moment: [e a0]
     X:     0.0032      Y:    -2.0213      Z:     0.0000

  Electronic Dipole Moment: [e a0]
     X:    -0.0045      Y:     1.7434      Z:     0.0000

  Dipole Moment: [e a0]
     X:    -0.0014      Y:    -0.2779      Z:     0.0000     Total:     0.2779

  Dipole Moment: [D]
     X:    -0.0034      Y:    -0.7064      Z:     0.0000     Total:     0.7064


*** tstop() called on bp1-compute00090.data.bp.acrc.priv at Tue Apr 27 17:40:39 2021
Module time:
	user time   =      74.65 seconds =       1.24 minutes
	system time =       2.99 seconds =       0.05 minutes
	total time  =          3 seconds =       0.05 minutes
Total time:
	user time   =     148.86 seconds =       2.48 minutes
	system time =       6.31 seconds =       0.11 minutes
	total time  =          6 seconds =       0.10 minutes

  //>>>>>>>>>>>>>>>>>>>>>>>>>>>>>>>>>>>//
  //    Loading displacement 3 of 9    //
  //<<<<<<<<<<<<<<<<<<<<<<<<<<<<<<<<<<<//

*** tstart() called on bp1-compute00090.data.bp.acrc.priv
*** at Tue Apr 27 17:40:39 2021

   => Loading Basis Set <=

    Name: CC-PV(T+D)Z
    Role: ORBITAL
    Keyword: BASIS
    atoms 1   entry P          line   712 file /work/zw18965/.conda/envs/p4env/share/psi4/basis/cc-pv_tpd_z.gbs 
    atoms 2-4 entry H          line    32 file /work/zw18965/.conda/envs/p4env/share/psi4/basis/cc-pv_tpd_z.gbs 


         ---------------------------------------------------------
                                   SCF
               by Justin Turney, Rob Parrish, Andy Simmonett
                          and Daniel G. A. Smith
                              RKS Reference
                       24 Threads, 137329 MiB Core
         ---------------------------------------------------------

  ==> Geometry <==

    Molecular point group: cs
    Full point group: Cs

    Geometry (in Angstrom), charge = 0, multiplicity = 1:

       Center              X                  Y                   Z               Mass       
    ------------   -----------------  -----------------  -----------------  -----------------
         P            0.000107127164     0.067984722378     0.000000000000    30.973761998420
         H            0.594074140475    -0.695759551369     1.030867444611     1.007825032230
         H            0.594074140475    -0.695759551369    -1.030867444611     1.007825032230
         H           -1.191440649332    -0.697873939829     0.000000000000     1.007825032230

  Running in cs symmetry.

  Rotational constants: A =      4.49334  B =      4.49328  C =      3.93496 [cm^-1]
  Rotational constants: A = 134706.87892  B = 134704.99952  C = 117967.15655 [MHz]
  Nuclear repulsion =   17.602856165215442

  Charge       = 0
  Multiplicity = 1
  Electrons    = 18
  Nalpha       = 9
  Nbeta        = 9

  ==> Algorithm <==

  SCF Algorithm Type is DF.
  DIIS enabled.
  MOM disabled.
  Fractional occupation disabled.
  Guess Type is SAD.
  Energy threshold   = 1.00e-08
  Density threshold  = 1.00e-08
  Integral threshold = 0.00e+00

  ==> Primary Basis <==

  Basis Set: CC-PV(T+D)Z
    Blend: CC-PV(T+D)Z
    Number of shells: 31
    Number of basis function: 81
    Number of Cartesian functions: 90
    Spherical Harmonics?: true
    Max angular momentum: 3

  ==> DFT Potential <==

   => Composite Functional: WB97X-V <= 

    wB97X-V Hyb-GGA Exchange-Correlation Functional

    N. Mardirossian and M. Head-Gordon, Phys. Chem. Chem. Phys. 16, 9904 (2014)

    Deriv               =              1
    GGA                 =           TRUE
    Meta                =          FALSE

    Exchange Hybrid     =           TRUE
    MP2 Hybrid          =          FALSE

   => Exchange-Correlation Functionals <=

    1.0000   wB97X-V range-separated functional

   => Exact (HF) Exchange <=

    0.8330            HF,LR [omega = 0.3000]
    0.1670               HF 

   => VV10 Non-Local Parameters <=

    VV10 B              =     6.0000E+00
    VV10 C              =     1.0000E-02

   => Molecular Quadrature <=

    Radial Scheme          =       TREUTLER
    Pruning Scheme         =           FLAT
    Nuclear Scheme         =       TREUTLER

    BS radius alpha        =              1
    Pruning alpha          =              1
    Radial Points          =             75
    Spherical Points       =            302
    Total Points           =          89235
    Total Blocks           =            725
    Max Points             =            256
    Max Functions          =             81

   => Loading Basis Set <=

    Name: (CC-PV(T+D)Z AUX)
    Role: JKFIT
    Keyword: DF_BASIS_SCF
    atoms 1   entry P          line   537 file /work/zw18965/.conda/envs/p4env/share/psi4/basis/cc-pvtz-jkfit.gbs 
    atoms 2-4 entry H          line    51 file /work/zw18965/.conda/envs/p4env/share/psi4/basis/cc-pvtz-jkfit.gbs 

  ==> Pre-Iterations <==

   -------------------------------------------------------
    Irrep   Nso     Nmo     Nalpha   Nbeta   Ndocc  Nsocc
   -------------------------------------------------------
     A'        50      50       0       0       0       0
     A"        31      31       0       0       0       0
   -------------------------------------------------------
    Total      81      81       9       9       9       0
   -------------------------------------------------------

  ==> Integral Setup <==

  ==> DiskDFJK: Density-Fitted J/K Matrices <==

    J tasked:                  Yes
    K tasked:                  Yes
    wK tasked:                 Yes
    Omega:               3.000E-01
    OpenMP threads:             24
    Integrals threads:          24
    Memory [MiB]:           102795
    Algorithm:                Core
    Integral Cache:           NONE
    Schwarz Cutoff:          1E-12
    Fitting Condition:       1E-10

   => Auxiliary Basis Set <=

  Basis Set: (CC-PV(T+D)Z AUX)
    Blend: CC-PVTZ-JKFIT
    Number of shells: 67
    Number of basis function: 211
    Number of Cartesian functions: 250
    Spherical Harmonics?: true
    Max angular momentum: 4

  Cached 100.0% of DFT collocation blocks in 0.196 [GiB].

  Minimum eigenvalue in the overlap matrix is 2.7722126000E-03.
  Using Symmetric Orthogonalization.

  SCF Guess: Superposition of Atomic Densities via on-the-fly atomic UHF.

  ==> Iterations <==

                           Total Energy        Delta E     RMS |[F,P]|

   @DF-RKS iter SAD:  -342.75793798581486   -3.42758e+02   0.00000e+00 
   @DF-RKS iter   1:  -343.07089750947262   -3.12960e-01   4.15311e-03 DIIS
   @DF-RKS iter   2:  -343.09542209416435   -2.45246e-02   2.08202e-03 DIIS
   @DF-RKS iter   3:  -343.10076641195019   -5.34432e-03   2.09791e-04 DIIS
   @DF-RKS iter   4:  -343.10103871535500   -2.72303e-04   3.23858e-05 DIIS
   @DF-RKS iter   5:  -343.10104576115123   -7.04580e-06   6.44447e-06 DIIS
   @DF-RKS iter   6:  -343.10104589668839   -1.35537e-07   8.03100e-07 DIIS
   @DF-RKS iter   7:  -343.10104589921980   -2.53141e-09   2.23197e-07 DIIS
   @DF-RKS iter   8:  -343.10104589934161   -1.21815e-10   3.41966e-08 DIIS
   @DF-RKS iter   9:  -343.10104589934832   -6.70752e-12   4.29328e-09 DIIS
  Energy and wave function converged.


  ==> Post-Iterations <==

    Orbital Energies [Eh]
    ---------------------

    Doubly Occupied:                                                      

       1Ap   -77.091896     2Ap    -6.656492     3Ap    -4.810475  
       1App   -4.810469     4Ap    -4.805961     5Ap    -0.772618  
       2App   -0.488909     6Ap    -0.488329     7Ap    -0.374624  

    Virtual:                                                              

       8Ap     0.110693     3App    0.111129     9Ap     0.113601  
       4App    0.271307    10Ap     0.271500    11Ap     0.334343  
       5App    0.338772    12Ap     0.338855    13Ap     0.360746  
      14Ap     0.441261     6App    0.441428    15Ap     0.492192  
      16Ap     0.584133    17Ap     0.687155     7App    0.687930  
       8App    0.849874    18Ap     0.895668     9App    0.895689  
      10App    1.012346    19Ap     1.012894    20Ap     1.139040  
      11App    1.205656    21Ap     1.206041    22Ap     1.292132  
      23Ap     1.311186    12App    1.311442    24Ap     1.397054  
      25Ap     1.452781    26Ap     1.598231    13App    1.599586  
      14App    1.673973    27Ap     1.753291    15App    1.754280  
      28Ap     1.821244    16App    1.835272    29Ap     1.835534  
      30Ap     2.154651    31Ap     2.457361    17App    2.457886  
      32Ap     2.694656    33Ap     2.781956    18App    2.782227  
      19App    3.295662    34Ap     3.296101    20App    3.306113  
      21App    3.352149    35Ap     3.352513    36Ap     3.599059  
      37Ap     3.653170    22App    3.653765    38Ap     3.680644  
      23App    3.724317    39Ap     3.781877    40Ap     3.792829  
      24App    3.792852    25App    4.024979    41Ap     4.034860  
      26App    4.035729    42Ap     4.129475    27App    4.130550  
      43Ap     4.250508    44Ap     4.303000    28App    4.308396  
      45Ap     4.308734    46Ap     4.710404    29App    4.713651  
      47Ap     5.854964    30App    6.008470    48Ap     6.008842  
      49Ap     6.106879    50Ap     6.918183    31App    6.919525  

    Final Occupation by Irrep:
             Ap   App 
    DOCC [     7,    2 ]

  @DF-RKS Final Energy:  -343.10104589934832

   => Energetics <=

    Nuclear Repulsion Energy =             17.6028561652154423
    One-Electron Energy =                -508.6019673331873037
    Two-Electron Energy =                 165.8460782715980315
    DFT Exchange-Correlation Energy =     -18.0234024620268265
    Empirical Dispersion Energy =           0.0000000000000000
    VV10 Nonlocal Energy =                  0.0753894590523719
    Total Energy =                       -343.1010458993482644

Computation Completed


Properties will be evaluated at   0.000000,   0.000000,   0.000000 [a0]

Properties computed using the SCF density matrix

  Nuclear Dipole Moment: [e a0]
     X:    -0.0032      Y:    -2.0213      Z:     0.0000

  Electronic Dipole Moment: [e a0]
     X:     0.0045      Y:     1.7434      Z:     0.0000

  Dipole Moment: [e a0]
     X:     0.0014      Y:    -0.2779      Z:     0.0000     Total:     0.2779

  Dipole Moment: [D]
     X:     0.0034      Y:    -0.7064      Z:     0.0000     Total:     0.7064


*** tstop() called on bp1-compute00090.data.bp.acrc.priv at Tue Apr 27 17:40:42 2021
Module time:
	user time   =      71.55 seconds =       1.19 minutes
	system time =       2.58 seconds =       0.04 minutes
	total time  =          3 seconds =       0.05 minutes
Total time:
	user time   =     220.55 seconds =       3.68 minutes
	system time =       8.90 seconds =       0.15 minutes
	total time  =          9 seconds =       0.15 minutes

  //>>>>>>>>>>>>>>>>>>>>>>>>>>>>>>>>>>>//
  //    Loading displacement 4 of 9    //
  //<<<<<<<<<<<<<<<<<<<<<<<<<<<<<<<<<<<//

*** tstart() called on bp1-compute00090.data.bp.acrc.priv
*** at Tue Apr 27 17:40:42 2021

   => Loading Basis Set <=

    Name: CC-PV(T+D)Z
    Role: ORBITAL
    Keyword: BASIS
    atoms 1   entry P          line   712 file /work/zw18965/.conda/envs/p4env/share/psi4/basis/cc-pv_tpd_z.gbs 
    atoms 2-4 entry H          line    32 file /work/zw18965/.conda/envs/p4env/share/psi4/basis/cc-pv_tpd_z.gbs 


         ---------------------------------------------------------
                                   SCF
               by Justin Turney, Rob Parrish, Andy Simmonett
                          and Daniel G. A. Smith
                              RKS Reference
                       24 Threads, 137329 MiB Core
         ---------------------------------------------------------

  ==> Geometry <==

    Molecular point group: cs
    Full point group: C3v

    Geometry (in Angstrom), charge = 0, multiplicity = 1:

       Center              X                  Y                   Z               Mass       
    ------------   -----------------  -----------------  -----------------  -----------------
         P            0.000000000001     0.067842945456     0.000000000000    30.973761998420
         H            0.595171596587    -0.695011924562     1.030867444611     1.007825032230
         H            0.595171596587    -0.695011924562    -1.030867444611     1.007825032230
         H           -1.190343193220    -0.695011924562     0.000000000000     1.007825032230

  Running in cs symmetry.

  Rotational constants: A =      4.50133  B =      4.50133  C =      3.93501 [cm^-1]
  Rotational constants: A = 134946.49342  B = 134946.49341  C = 117968.59793 [MHz]
  Nuclear repulsion =   17.613095820028434

  Charge       = 0
  Multiplicity = 1
  Electrons    = 18
  Nalpha       = 9
  Nbeta        = 9

  ==> Algorithm <==

  SCF Algorithm Type is DF.
  DIIS enabled.
  MOM disabled.
  Fractional occupation disabled.
  Guess Type is SAD.
  Energy threshold   = 1.00e-08
  Density threshold  = 1.00e-08
  Integral threshold = 0.00e+00

  ==> Primary Basis <==

  Basis Set: CC-PV(T+D)Z
    Blend: CC-PV(T+D)Z
    Number of shells: 31
    Number of basis function: 81
    Number of Cartesian functions: 90
    Spherical Harmonics?: true
    Max angular momentum: 3

  ==> DFT Potential <==

   => Composite Functional: WB97X-V <= 

    wB97X-V Hyb-GGA Exchange-Correlation Functional

    N. Mardirossian and M. Head-Gordon, Phys. Chem. Chem. Phys. 16, 9904 (2014)

    Deriv               =              1
    GGA                 =           TRUE
    Meta                =          FALSE

    Exchange Hybrid     =           TRUE
    MP2 Hybrid          =          FALSE

   => Exchange-Correlation Functionals <=

    1.0000   wB97X-V range-separated functional

   => Exact (HF) Exchange <=

    0.8330            HF,LR [omega = 0.3000]
    0.1670               HF 

   => VV10 Non-Local Parameters <=

    VV10 B              =     6.0000E+00
    VV10 C              =     1.0000E-02

   => Molecular Quadrature <=

    Radial Scheme          =       TREUTLER
    Pruning Scheme         =           FLAT
    Nuclear Scheme         =       TREUTLER

    BS radius alpha        =              1
    Pruning alpha          =              1
    Radial Points          =             75
    Spherical Points       =            302
    Total Points           =          89235
    Total Blocks           =            727
    Max Points             =            256
    Max Functions          =             81

   => Loading Basis Set <=

    Name: (CC-PV(T+D)Z AUX)
    Role: JKFIT
    Keyword: DF_BASIS_SCF
    atoms 1   entry P          line   537 file /work/zw18965/.conda/envs/p4env/share/psi4/basis/cc-pvtz-jkfit.gbs 
    atoms 2-4 entry H          line    51 file /work/zw18965/.conda/envs/p4env/share/psi4/basis/cc-pvtz-jkfit.gbs 

  ==> Pre-Iterations <==

   -------------------------------------------------------
    Irrep   Nso     Nmo     Nalpha   Nbeta   Ndocc  Nsocc
   -------------------------------------------------------
     A'        50      50       0       0       0       0
     A"        31      31       0       0       0       0
   -------------------------------------------------------
    Total      81      81       9       9       9       0
   -------------------------------------------------------

  ==> Integral Setup <==

  ==> DiskDFJK: Density-Fitted J/K Matrices <==

    J tasked:                  Yes
    K tasked:                  Yes
    wK tasked:                 Yes
    Omega:               3.000E-01
    OpenMP threads:             24
    Integrals threads:          24
    Memory [MiB]:           102795
    Algorithm:                Core
    Integral Cache:           NONE
    Schwarz Cutoff:          1E-12
    Fitting Condition:       1E-10

   => Auxiliary Basis Set <=

  Basis Set: (CC-PV(T+D)Z AUX)
    Blend: CC-PVTZ-JKFIT
    Number of shells: 67
    Number of basis function: 211
    Number of Cartesian functions: 250
    Spherical Harmonics?: true
    Max angular momentum: 4

  Cached 100.0% of DFT collocation blocks in 0.196 [GiB].

  Minimum eigenvalue in the overlap matrix is 2.7623455890E-03.
  Using Symmetric Orthogonalization.

  SCF Guess: Superposition of Atomic Densities via on-the-fly atomic UHF.

  ==> Iterations <==

                           Total Energy        Delta E     RMS |[F,P]|

   @DF-RKS iter SAD:  -342.75884962481382   -3.42759e+02   0.00000e+00 
   @DF-RKS iter   1:  -343.07088338986750   -3.12034e-01   4.15499e-03 DIIS
   @DF-RKS iter   2:  -343.09542992211885   -2.45465e-02   2.08171e-03 DIIS
   @DF-RKS iter   3:  -343.10076701936111   -5.33710e-03   2.09923e-04 DIIS
   @DF-RKS iter   4:  -343.10103953062480   -2.72511e-04   3.23881e-05 DIIS
   @DF-RKS iter   5:  -343.10104657830595   -7.04768e-06   6.44167e-06 DIIS
   @DF-RKS iter   6:  -343.10104671373034   -1.35424e-07   7.97723e-07 DIIS
   @DF-RKS iter   7:  -343.10104671624578   -2.51543e-09   2.22714e-07 DIIS
   @DF-RKS iter   8:  -343.10104671636623   -1.20451e-10   3.40151e-08 DIIS
   @DF-RKS iter   9:  -343.10104671637271   -6.48015e-12   4.05414e-09 DIIS
  Energy and wave function converged.


  ==> Post-Iterations <==

    Orbital Energies [Eh]
    ---------------------

    Doubly Occupied:                                                      

       1Ap   -77.091692     2Ap    -6.656347     3Ap    -4.810326  
       1App   -4.810326     4Ap    -4.805810     5Ap    -0.772772  
       6Ap    -0.488884     2App   -0.488884     7Ap    -0.374415  

    Virtual:                                                              

       8Ap     0.111107     3App    0.111107     9Ap     0.113672  
      10Ap     0.271324     4App    0.271324    11Ap     0.334189  
       5App    0.338816    12Ap     0.338816    13Ap     0.360861  
      14Ap     0.441441     6App    0.441442    15Ap     0.492557  
      16Ap     0.583884    17Ap     0.687995     7App    0.687996  
       8App    0.849750    18Ap     0.895900     9App    0.895901  
      19Ap     1.012845    10App    1.012847    20Ap     1.139359  
      21Ap     1.206002    11App    1.206003    22Ap     1.291877  
      23Ap     1.311328    12App    1.311331    24Ap     1.397152  
      25Ap     1.453451    13App    1.599702    26Ap     1.599702  
      14App    1.674554    27Ap     1.753952    15App    1.753953  
      28Ap     1.821174    16App    1.835415    29Ap     1.835416  
      30Ap     2.154311    31Ap     2.457926    17App    2.457927  
      32Ap     2.694560    33Ap     2.782095    18App    2.782096  
      34Ap     3.295741    19App    3.295742    20App    3.305727  
      35Ap     3.352810    21App    3.352811    36Ap     3.600302  
      37Ap     3.654582    22App    3.654585    38Ap     3.682025  
      23App    3.725806    39Ap     3.782560    40Ap     3.793065  
      24App    3.793066    25App    4.024959    41Ap     4.035823  
      26App    4.035825    42Ap     4.130579    27App    4.130581  
      43Ap     4.251304    44Ap     4.303070    45Ap     4.309552  
      28App    4.309555    46Ap     4.713900    29App    4.713902  
      47Ap     5.855092    30App    6.010041    48Ap     6.010045  
      49Ap     6.112493    50Ap     6.919949    31App    6.919964  

    Final Occupation by Irrep:
             Ap   App 
    DOCC [     7,    2 ]

  @DF-RKS Final Energy:  -343.10104671637271

   => Energetics <=

    Nuclear Repulsion Energy =             17.6130958200284340
    One-Electron Energy =                -508.6227456811234333
    Two-Electron Energy =                 165.8571431976135955
    DFT Exchange-Correlation Energy =     -18.0239302272855326
    Empirical Dispersion Energy =           0.0000000000000000
    VV10 Nonlocal Energy =                  0.0753901743942457
    Total Energy =                       -343.1010467163726503

Computation Completed


Properties will be evaluated at   0.000000,   0.000000,   0.000000 [a0]

Properties computed using the SCF density matrix

  Nuclear Dipole Moment: [e a0]
     X:    -0.0000      Y:    -2.0171      Z:     0.0000

  Electronic Dipole Moment: [e a0]
     X:    -0.0000      Y:     1.7381      Z:     0.0000

  Dipole Moment: [e a0]
     X:    -0.0000      Y:    -0.2790      Z:     0.0000     Total:     0.2790

  Dipole Moment: [D]
     X:    -0.0000      Y:    -0.7090      Z:     0.0000     Total:     0.7090


*** tstop() called on bp1-compute00090.data.bp.acrc.priv at Tue Apr 27 17:40:46 2021
Module time:
	user time   =      72.03 seconds =       1.20 minutes
	system time =       2.34 seconds =       0.04 minutes
	total time  =          4 seconds =       0.07 minutes
Total time:
	user time   =     292.73 seconds =       4.88 minutes
	system time =      11.24 seconds =       0.19 minutes
	total time  =         13 seconds =       0.22 minutes

  //>>>>>>>>>>>>>>>>>>>>>>>>>>>>>>>>>>>//
  //    Loading displacement 5 of 9    //
  //<<<<<<<<<<<<<<<<<<<<<<<<<<<<<<<<<<<//

*** tstart() called on bp1-compute00090.data.bp.acrc.priv
*** at Tue Apr 27 17:40:46 2021

   => Loading Basis Set <=

    Name: CC-PV(T+D)Z
    Role: ORBITAL
    Keyword: BASIS
    atoms 1   entry P          line   712 file /work/zw18965/.conda/envs/p4env/share/psi4/basis/cc-pv_tpd_z.gbs 
    atoms 2-4 entry H          line    32 file /work/zw18965/.conda/envs/p4env/share/psi4/basis/cc-pv_tpd_z.gbs 


         ---------------------------------------------------------
                                   SCF
               by Justin Turney, Rob Parrish, Andy Simmonett
                          and Daniel G. A. Smith
                              RKS Reference
                       24 Threads, 137329 MiB Core
         ---------------------------------------------------------

  ==> Geometry <==

    Molecular point group: cs
    Full point group: C3v

    Geometry (in Angstrom), charge = 0, multiplicity = 1:

       Center              X                  Y                   Z               Mass       
    ------------   -----------------  -----------------  -----------------  -----------------
         P            0.000000000001     0.068126499300     0.000000000000    30.973761998420
         H            0.595171596587    -0.697916770482     1.030867444611     1.007825032230
         H            0.595171596587    -0.697916770482    -1.030867444611     1.007825032230
         H           -1.190343193220    -0.697916770482     0.000000000000     1.007825032230

  Running in cs symmetry.

  Rotational constants: A =      4.48525  B =      4.48525  C =      3.93501 [cm^-1]
  Rotational constants: A = 134464.36840  B = 134464.36839  C = 117968.59793 [MHz]
  Nuclear repulsion =   17.592595224261025

  Charge       = 0
  Multiplicity = 1
  Electrons    = 18
  Nalpha       = 9
  Nbeta        = 9

  ==> Algorithm <==

  SCF Algorithm Type is DF.
  DIIS enabled.
  MOM disabled.
  Fractional occupation disabled.
  Guess Type is SAD.
  Energy threshold   = 1.00e-08
  Density threshold  = 1.00e-08
  Integral threshold = 0.00e+00

  ==> Primary Basis <==

  Basis Set: CC-PV(T+D)Z
    Blend: CC-PV(T+D)Z
    Number of shells: 31
    Number of basis function: 81
    Number of Cartesian functions: 90
    Spherical Harmonics?: true
    Max angular momentum: 3

  ==> DFT Potential <==

   => Composite Functional: WB97X-V <= 

    wB97X-V Hyb-GGA Exchange-Correlation Functional

    N. Mardirossian and M. Head-Gordon, Phys. Chem. Chem. Phys. 16, 9904 (2014)

    Deriv               =              1
    GGA                 =           TRUE
    Meta                =          FALSE

    Exchange Hybrid     =           TRUE
    MP2 Hybrid          =          FALSE

   => Exchange-Correlation Functionals <=

    1.0000   wB97X-V range-separated functional

   => Exact (HF) Exchange <=

    0.8330            HF,LR [omega = 0.3000]
    0.1670               HF 

   => VV10 Non-Local Parameters <=

    VV10 B              =     6.0000E+00
    VV10 C              =     1.0000E-02

   => Molecular Quadrature <=

    Radial Scheme          =       TREUTLER
    Pruning Scheme         =           FLAT
    Nuclear Scheme         =       TREUTLER

    BS radius alpha        =              1
    Pruning alpha          =              1
    Radial Points          =             75
    Spherical Points       =            302
    Total Points           =          89235
    Total Blocks           =            728
    Max Points             =            256
    Max Functions          =             81

   => Loading Basis Set <=

    Name: (CC-PV(T+D)Z AUX)
    Role: JKFIT
    Keyword: DF_BASIS_SCF
    atoms 1   entry P          line   537 file /work/zw18965/.conda/envs/p4env/share/psi4/basis/cc-pvtz-jkfit.gbs 
    atoms 2-4 entry H          line    51 file /work/zw18965/.conda/envs/p4env/share/psi4/basis/cc-pvtz-jkfit.gbs 

  ==> Pre-Iterations <==

   -------------------------------------------------------
    Irrep   Nso     Nmo     Nalpha   Nbeta   Ndocc  Nsocc
   -------------------------------------------------------
     A'        50      50       0       0       0       0
     A"        31      31       0       0       0       0
   -------------------------------------------------------
    Total      81      81       9       9       9       0
   -------------------------------------------------------

  ==> Integral Setup <==

  ==> DiskDFJK: Density-Fitted J/K Matrices <==

    J tasked:                  Yes
    K tasked:                  Yes
    wK tasked:                 Yes
    Omega:               3.000E-01
    OpenMP threads:             24
    Integrals threads:          24
    Memory [MiB]:           102795
    Algorithm:                Core
    Integral Cache:           NONE
    Schwarz Cutoff:          1E-12
    Fitting Condition:       1E-10

   => Auxiliary Basis Set <=

  Basis Set: (CC-PV(T+D)Z AUX)
    Blend: CC-PVTZ-JKFIT
    Number of shells: 67
    Number of basis function: 211
    Number of Cartesian functions: 250
    Spherical Harmonics?: true
    Max angular momentum: 4

  Cached 100.0% of DFT collocation blocks in 0.196 [GiB].

  Minimum eigenvalue in the overlap matrix is 2.7824875069E-03.
  Using Symmetric Orthogonalization.

  SCF Guess: Superposition of Atomic Densities via on-the-fly atomic UHF.

  ==> Iterations <==

                           Total Energy        Delta E     RMS |[F,P]|

   @DF-RKS iter SAD:  -342.75702595780939   -3.42757e+02   0.00000e+00 
   @DF-RKS iter   1:  -343.07091404355396   -3.13888e-01   4.15121e-03 DIIS
   @DF-RKS iter   2:  -343.09541622318704   -2.45022e-02   2.08230e-03 DIIS
   @DF-RKS iter   3:  -343.10076762801395   -5.35140e-03   2.09657e-04 DIIS
   @DF-RKS iter   4:  -343.10103972099216   -2.72093e-04   3.23811e-05 DIIS
   @DF-RKS iter   5:  -343.10104676450294   -7.04351e-06   6.44511e-06 DIIS
   @DF-RKS iter   6:  -343.10104690009592   -1.35593e-07   8.06046e-07 DIIS
   @DF-RKS iter   7:  -343.10104690263461   -2.53868e-09   2.22699e-07 DIIS
   @DF-RKS iter   8:  -343.10104690275716   -1.22554e-10   3.41651e-08 DIIS
   @DF-RKS iter   9:  -343.10104690276376   -6.59384e-12   4.18637e-09 DIIS
  Energy and wave function converged.


  ==> Post-Iterations <==

    Orbital Energies [Eh]
    ---------------------

    Doubly Occupied:                                                      

       1Ap   -77.092101     2Ap    -6.656637     3Ap    -4.810618  
       1App   -4.810618     4Ap    -4.806112     5Ap    -0.772462  
       6Ap    -0.488354     2App   -0.488354     7Ap    -0.374832  

    Virtual:                                                              

       8Ap     0.110725     3App    0.110726     9Ap     0.113509  
      10Ap     0.271482     4App    0.271483    11Ap     0.334499  
       5App    0.338809    12Ap     0.338809    13Ap     0.360630  
      14Ap     0.441248     6App    0.441249    15Ap     0.491827  
      16Ap     0.584384    17Ap     0.687088     7App    0.687089  
       8App    0.850001    18Ap     0.895451     9App    0.895453  
      19Ap     1.012399    10App    1.012401    20Ap     1.138707  
      21Ap     1.205693    11App    1.205694    22Ap     1.292392  
      23Ap     1.311294    12App    1.311297    24Ap     1.396964  
      25Ap     1.452115    13App    1.598114    26Ap     1.598114  
      14App    1.673390    27Ap     1.753619    15App    1.753620  
      28Ap     1.821311    16App    1.835384    29Ap     1.835385  
      30Ap     2.154994    31Ap     2.457329    17App    2.457331  
      32Ap     2.694743    33Ap     2.782082    18App    2.782083  
      34Ap     3.296022    19App    3.296023    20App    3.306497  
      35Ap     3.351858    21App    3.351859    36Ap     3.597821  
      37Ap     3.652359    22App    3.652362    38Ap     3.679240  
      23App    3.722801    39Ap     3.781239    40Ap     3.792602  
      24App    3.792603    25App    4.025001    41Ap     4.034757  
      26App    4.034760    42Ap     4.129441    27App    4.129443  
      43Ap     4.249676    44Ap     4.303143    45Ap     4.307482  
      28App    4.307485    46Ap     4.710142    29App    4.710143  
      47Ap     5.854800    30App    6.007302    48Ap     6.007305  
      49Ap     6.101241    50Ap     6.917744    31App    6.917759  

    Final Occupation by Irrep:
             Ap   App 
    DOCC [     7,    2 ]

  @DF-RKS Final Energy:  -343.10104690276376

   => Energetics <=

    Nuclear Repulsion Energy =             17.5925952242610251
    One-Electron Energy =                -508.5811530060036603
    Two-Electron Energy =                 165.8349955348170113
    DFT Exchange-Correlation Energy =     -18.0228734079516144
    Empirical Dispersion Energy =           0.0000000000000000
    VV10 Nonlocal Energy =                  0.0753887521135298
    Total Energy =                       -343.1010469027636987

Computation Completed


Properties will be evaluated at   0.000000,   0.000000,   0.000000 [a0]

Properties computed using the SCF density matrix

  Nuclear Dipole Moment: [e a0]
     X:    -0.0000      Y:    -2.0255      Z:     0.0000

  Electronic Dipole Moment: [e a0]
     X:    -0.0000      Y:     1.7486      Z:     0.0000

  Dipole Moment: [e a0]
     X:    -0.0000      Y:    -0.2769      Z:     0.0000     Total:     0.2769

  Dipole Moment: [D]
     X:    -0.0000      Y:    -0.7038      Z:     0.0000     Total:     0.7038


*** tstop() called on bp1-compute00090.data.bp.acrc.priv at Tue Apr 27 17:40:49 2021
Module time:
	user time   =      72.50 seconds =       1.21 minutes
	system time =       2.27 seconds =       0.04 minutes
	total time  =          3 seconds =       0.05 minutes
Total time:
	user time   =     365.37 seconds =       6.09 minutes
	system time =      13.52 seconds =       0.23 minutes
	total time  =         16 seconds =       0.27 minutes

  //>>>>>>>>>>>>>>>>>>>>>>>>>>>>>>>>>>>//
  //    Loading displacement 6 of 9    //
  //<<<<<<<<<<<<<<<<<<<<<<<<<<<<<<<<<<<//

*** tstart() called on bp1-compute00090.data.bp.acrc.priv
*** at Tue Apr 27 17:40:49 2021

   => Loading Basis Set <=

    Name: CC-PV(T+D)Z
    Role: ORBITAL
    Keyword: BASIS
    atoms 1   entry P          line   712 file /work/zw18965/.conda/envs/p4env/share/psi4/basis/cc-pv_tpd_z.gbs 
    atoms 2-4 entry H          line    32 file /work/zw18965/.conda/envs/p4env/share/psi4/basis/cc-pv_tpd_z.gbs 


         ---------------------------------------------------------
                                   SCF
               by Justin Turney, Rob Parrish, Andy Simmonett
                          and Daniel G. A. Smith
                              RKS Reference
                       24 Threads, 137329 MiB Core
         ---------------------------------------------------------

  ==> Geometry <==

    Molecular point group: cs
    Full point group: Cs

    Geometry (in Angstrom), charge = 0, multiplicity = 1:

       Center              X                  Y                   Z               Mass       
    ------------   -----------------  -----------------  -----------------  -----------------
         P            0.000000000001     0.067984722378     0.000000000000    30.973761998420
         H            0.594095619703    -0.696464347522     1.030867444611     1.007825032230
         H            0.594095619703    -0.696464347522    -1.030867444611     1.007825032230
         H           -1.188191239451    -0.696464347522     0.000000000000     1.007825032230

  Running in cs symmetry.

  Rotational constants: A =      4.50257  B =      4.49328  C =      3.94213 [cm^-1]
  Rotational constants: A = 134983.64962  B = 134705.25086  C = 118182.05942 [MHz]
  Nuclear repulsion =   17.614322033411948

  Charge       = 0
  Multiplicity = 1
  Electrons    = 18
  Nalpha       = 9
  Nbeta        = 9

  ==> Algorithm <==

  SCF Algorithm Type is DF.
  DIIS enabled.
  MOM disabled.
  Fractional occupation disabled.
  Guess Type is SAD.
  Energy threshold   = 1.00e-08
  Density threshold  = 1.00e-08
  Integral threshold = 0.00e+00

  ==> Primary Basis <==

  Basis Set: CC-PV(T+D)Z
    Blend: CC-PV(T+D)Z
    Number of shells: 31
    Number of basis function: 81
    Number of Cartesian functions: 90
    Spherical Harmonics?: true
    Max angular momentum: 3

  ==> DFT Potential <==

   => Composite Functional: WB97X-V <= 

    wB97X-V Hyb-GGA Exchange-Correlation Functional

    N. Mardirossian and M. Head-Gordon, Phys. Chem. Chem. Phys. 16, 9904 (2014)

    Deriv               =              1
    GGA                 =           TRUE
    Meta                =          FALSE

    Exchange Hybrid     =           TRUE
    MP2 Hybrid          =          FALSE

   => Exchange-Correlation Functionals <=

    1.0000   wB97X-V range-separated functional

   => Exact (HF) Exchange <=

    0.8330            HF,LR [omega = 0.3000]
    0.1670               HF 

   => VV10 Non-Local Parameters <=

    VV10 B              =     6.0000E+00
    VV10 C              =     1.0000E-02

   => Molecular Quadrature <=

    Radial Scheme          =       TREUTLER
    Pruning Scheme         =           FLAT
    Nuclear Scheme         =       TREUTLER

    BS radius alpha        =              1
    Pruning alpha          =              1
    Radial Points          =             75
    Spherical Points       =            302
    Total Points           =          89235
    Total Blocks           =            726
    Max Points             =            256
    Max Functions          =             81

   => Loading Basis Set <=

    Name: (CC-PV(T+D)Z AUX)
    Role: JKFIT
    Keyword: DF_BASIS_SCF
    atoms 1   entry P          line   537 file /work/zw18965/.conda/envs/p4env/share/psi4/basis/cc-pvtz-jkfit.gbs 
    atoms 2-4 entry H          line    51 file /work/zw18965/.conda/envs/p4env/share/psi4/basis/cc-pvtz-jkfit.gbs 

  ==> Pre-Iterations <==

   -------------------------------------------------------
    Irrep   Nso     Nmo     Nalpha   Nbeta   Ndocc  Nsocc
   -------------------------------------------------------
     A'        50      50       0       0       0       0
     A"        31      31       0       0       0       0
   -------------------------------------------------------
    Total      81      81       9       9       9       0
   -------------------------------------------------------

  ==> Integral Setup <==

  ==> DiskDFJK: Density-Fitted J/K Matrices <==

    J tasked:                  Yes
    K tasked:                  Yes
    wK tasked:                 Yes
    Omega:               3.000E-01
    OpenMP threads:             24
    Integrals threads:          24
    Memory [MiB]:           102795
    Algorithm:                Core
    Integral Cache:           NONE
    Schwarz Cutoff:          1E-12
    Fitting Condition:       1E-10

   => Auxiliary Basis Set <=

  Basis Set: (CC-PV(T+D)Z AUX)
    Blend: CC-PVTZ-JKFIT
    Number of shells: 67
    Number of basis function: 211
    Number of Cartesian functions: 250
    Spherical Harmonics?: true
    Max angular momentum: 4

  Cached 100.0% of DFT collocation blocks in 0.196 [GiB].

  Minimum eigenvalue in the overlap matrix is 2.7576942232E-03.
  Using Symmetric Orthogonalization.

  SCF Guess: Superposition of Atomic Densities via on-the-fly atomic UHF.

  ==> Iterations <==

                           Total Energy        Delta E     RMS |[F,P]|

   @DF-RKS iter SAD:  -342.75912071131228   -3.42759e+02   0.00000e+00 
   @DF-RKS iter   1:  -343.07090377057875   -3.11783e-01   4.15442e-03 DIIS
   @DF-RKS iter   2:  -343.09542725053927   -2.45235e-02   2.08156e-03 DIIS
   @DF-RKS iter   3:  -343.10076421249124   -5.33696e-03   2.09745e-04 DIIS
   @DF-RKS iter   4:  -343.10103632778004   -2.72115e-04   3.24727e-05 DIIS
   @DF-RKS iter   5:  -343.10104339870384   -7.07092e-06   6.45340e-06 DIIS
   @DF-RKS iter   6:  -343.10104353424589   -1.35542e-07   8.14723e-07 DIIS
   @DF-RKS iter   7:  -343.10104353681976   -2.57387e-09   2.24675e-07 DIIS
   @DF-RKS iter   8:  -343.10104353694419   -1.24430e-10   3.41531e-08 DIIS
   @DF-RKS iter   9:  -343.10104353695033   -6.13909e-12   4.14788e-09 DIIS
  Energy and wave function converged.


  ==> Post-Iterations <==

    Orbital Energies [Eh]
    ---------------------

    Doubly Occupied:                                                      

       1Ap   -77.091680     2Ap    -6.656336     1App   -4.810314  
       3Ap    -4.810312     4Ap    -4.805802     5Ap    -0.772817  
       2App   -0.488737     6Ap    -0.488667     7Ap    -0.374683  

    Virtual:                                                              

       8Ap     0.111024     3App    0.111041     9Ap     0.113708  
       4App    0.271375    10Ap     0.271391    11Ap     0.334455  
       5App    0.338790    12Ap     0.338872    13Ap     0.360671  
       6App    0.441379    14Ap     0.441391    15Ap     0.492691  
      16Ap     0.584120    17Ap     0.687736     7App    0.687761  
       8App    0.850351     9App    0.895572    18Ap     0.896300  
      10App    1.012744    19Ap     1.013084    20Ap     1.139555  
      21Ap     1.205622    11App    1.206187    22Ap     1.292503  
      12App    1.310995    23Ap     1.311225    24Ap     1.397415  
      25Ap     1.452615    13App    1.599266    26Ap     1.599639  
      14App    1.674151    15App    1.754174    27Ap     1.754330  
      28Ap     1.821257    29Ap     1.835728    16App    1.836131  
      30Ap     2.154727    17App    2.457708    31Ap     2.458242  
      32Ap     2.694729    18App    2.782602    33Ap     2.782609  
      19App    3.295899    34Ap     3.296138    20App    3.306645  
      21App    3.351799    35Ap     3.352179    36Ap     3.599761  
      37Ap     3.653385    22App    3.654373    38Ap     3.683019  
      23App    3.724489    39Ap     3.783235    40Ap     3.793305  
      24App    3.793842    25App    4.026058    26App    4.035831  
      41Ap     4.036266    27App    4.130476    42Ap     4.131789  
      43Ap     4.252424    44Ap     4.303284    45Ap     4.309033  
      28App    4.309407    29App    4.712817    46Ap     4.714498  
      47Ap     5.858993    48Ap     6.009570    30App    6.010866  
      49Ap     6.108546    31App    6.919540    50Ap     6.921056  

    Final Occupation by Irrep:
             Ap   App 
    DOCC [     7,    2 ]

  @DF-RKS Final Energy:  -343.10104353695033

   => Energetics <=

    Nuclear Repulsion Energy =             17.6143220334119484
    One-Electron Energy =                -508.6253746295996052
    Two-Electron Energy =                 165.8585992992782110
    DFT Exchange-Correlation Energy =     -18.0239799443930657
    Empirical Dispersion Energy =           0.0000000000000000
    VV10 Nonlocal Energy =                  0.0753897043521602
    Total Energy =                       -343.1010435369503853

Computation Completed


Properties will be evaluated at   0.000000,   0.000000,   0.000000 [a0]

Properties computed using the SCF density matrix

  Nuclear Dipole Moment: [e a0]
     X:    -0.0000      Y:    -2.0213      Z:     0.0000

  Electronic Dipole Moment: [e a0]
     X:    -0.0002      Y:     1.7431      Z:     0.0000

  Dipole Moment: [e a0]
     X:    -0.0002      Y:    -0.2782      Z:     0.0000     Total:     0.2782

  Dipole Moment: [D]
     X:    -0.0006      Y:    -0.7071      Z:     0.0000     Total:     0.7071


*** tstop() called on bp1-compute00090.data.bp.acrc.priv at Tue Apr 27 17:40:52 2021
Module time:
	user time   =      71.11 seconds =       1.19 minutes
	system time =       2.23 seconds =       0.04 minutes
	total time  =          3 seconds =       0.05 minutes
Total time:
	user time   =     436.62 seconds =       7.28 minutes
	system time =      15.75 seconds =       0.26 minutes
	total time  =         19 seconds =       0.32 minutes

  //>>>>>>>>>>>>>>>>>>>>>>>>>>>>>>>>>>>//
  //    Loading displacement 7 of 9    //
  //<<<<<<<<<<<<<<<<<<<<<<<<<<<<<<<<<<<//

*** tstart() called on bp1-compute00090.data.bp.acrc.priv
*** at Tue Apr 27 17:40:52 2021

   => Loading Basis Set <=

    Name: CC-PV(T+D)Z
    Role: ORBITAL
    Keyword: BASIS
    atoms 1   entry P          line   712 file /work/zw18965/.conda/envs/p4env/share/psi4/basis/cc-pv_tpd_z.gbs 
    atoms 2-4 entry H          line    32 file /work/zw18965/.conda/envs/p4env/share/psi4/basis/cc-pv_tpd_z.gbs 


         ---------------------------------------------------------
                                   SCF
               by Justin Turney, Rob Parrish, Andy Simmonett
                          and Daniel G. A. Smith
                              RKS Reference
                       24 Threads, 137329 MiB Core
         ---------------------------------------------------------

  ==> Geometry <==

    Molecular point group: cs
    Full point group: Cs

    Geometry (in Angstrom), charge = 0, multiplicity = 1:

       Center              X                  Y                   Z               Mass       
    ------------   -----------------  -----------------  -----------------  -----------------
         P            0.000000000001     0.067984722378     0.000000000000    30.973761998420
         H            0.596247573472    -0.696464347522     1.030867444611     1.007825032230
         H            0.596247573472    -0.696464347522    -1.030867444611     1.007825032230
         H           -1.192495146989    -0.696464347522     0.000000000000     1.007825032230

  Running in cs symmetry.

  Rotational constants: A =      4.49328  B =      4.48402  C =      3.92790 [cm^-1]
  Rotational constants: A = 134705.25086  B = 134427.49749  C = 117755.52198 [MHz]
  Nuclear repulsion =   17.591384783026541

  Charge       = 0
  Multiplicity = 1
  Electrons    = 18
  Nalpha       = 9
  Nbeta        = 9

  ==> Algorithm <==

  SCF Algorithm Type is DF.
  DIIS enabled.
  MOM disabled.
  Fractional occupation disabled.
  Guess Type is SAD.
  Energy threshold   = 1.00e-08
  Density threshold  = 1.00e-08
  Integral threshold = 0.00e+00

  ==> Primary Basis <==

  Basis Set: CC-PV(T+D)Z
    Blend: CC-PV(T+D)Z
    Number of shells: 31
    Number of basis function: 81
    Number of Cartesian functions: 90
    Spherical Harmonics?: true
    Max angular momentum: 3

  ==> DFT Potential <==

   => Composite Functional: WB97X-V <= 

    wB97X-V Hyb-GGA Exchange-Correlation Functional

    N. Mardirossian and M. Head-Gordon, Phys. Chem. Chem. Phys. 16, 9904 (2014)

    Deriv               =              1
    GGA                 =           TRUE
    Meta                =          FALSE

    Exchange Hybrid     =           TRUE
    MP2 Hybrid          =          FALSE

   => Exchange-Correlation Functionals <=

    1.0000   wB97X-V range-separated functional

   => Exact (HF) Exchange <=

    0.8330            HF,LR [omega = 0.3000]
    0.1670               HF 

   => VV10 Non-Local Parameters <=

    VV10 B              =     6.0000E+00
    VV10 C              =     1.0000E-02

   => Molecular Quadrature <=

    Radial Scheme          =       TREUTLER
    Pruning Scheme         =           FLAT
    Nuclear Scheme         =       TREUTLER

    BS radius alpha        =              1
    Pruning alpha          =              1
    Radial Points          =             75
    Spherical Points       =            302
    Total Points           =          89235
    Total Blocks           =            726
    Max Points             =            256
    Max Functions          =             81

   => Loading Basis Set <=

    Name: (CC-PV(T+D)Z AUX)
    Role: JKFIT
    Keyword: DF_BASIS_SCF
    atoms 1   entry P          line   537 file /work/zw18965/.conda/envs/p4env/share/psi4/basis/cc-pvtz-jkfit.gbs 
    atoms 2-4 entry H          line    51 file /work/zw18965/.conda/envs/p4env/share/psi4/basis/cc-pvtz-jkfit.gbs 

  ==> Pre-Iterations <==

   -------------------------------------------------------
    Irrep   Nso     Nmo     Nalpha   Nbeta   Ndocc  Nsocc
   -------------------------------------------------------
     A'        50      50       0       0       0       0
     A"        31      31       0       0       0       0
   -------------------------------------------------------
    Total      81      81       9       9       9       0
   -------------------------------------------------------

  ==> Integral Setup <==

  ==> DiskDFJK: Density-Fitted J/K Matrices <==

    J tasked:                  Yes
    K tasked:                  Yes
    wK tasked:                 Yes
    Omega:               3.000E-01
    OpenMP threads:             24
    Integrals threads:          24
    Memory [MiB]:           102795
    Algorithm:                Core
    Integral Cache:           NONE
    Schwarz Cutoff:          1E-12
    Fitting Condition:       1E-10

   => Auxiliary Basis Set <=

  Basis Set: (CC-PV(T+D)Z AUX)
    Blend: CC-PVTZ-JKFIT
    Number of shells: 67
    Number of basis function: 211
    Number of Cartesian functions: 250
    Spherical Harmonics?: true
    Max angular momentum: 4

  Cached 100.0% of DFT collocation blocks in 0.196 [GiB].

  Minimum eigenvalue in the overlap matrix is 2.7870380808E-03.
  Using Symmetric Orthogonalization.

  SCF Guess: Superposition of Atomic Densities via on-the-fly atomic UHF.

  ==> Iterations <==

                           Total Energy        Delta E     RMS |[F,P]|

   @DF-RKS iter SAD:  -342.75675629780915   -3.42757e+02   0.00000e+00 
   @DF-RKS iter   1:  -343.07089197954656   -3.14136e-01   4.15180e-03 DIIS
   @DF-RKS iter   2:  -343.09541752831194   -2.45255e-02   2.08246e-03 DIIS
   @DF-RKS iter   3:  -343.10076908702490   -5.35156e-03   2.09836e-04 DIIS
   @DF-RKS iter   4:  -343.10104157673510   -2.72490e-04   3.22973e-05 DIIS
   @DF-RKS iter   5:  -343.10104859712749   -7.02039e-06   6.43395e-06 DIIS
   @DF-RKS iter   6:  -343.10104873262037   -1.35493e-07   7.89125e-07 DIIS
   @DF-RKS iter   7:  -343.10104873510295   -2.48258e-09   2.20608e-07 DIIS
   @DF-RKS iter   8:  -343.10104873522101   -1.18064e-10   3.40483e-08 DIIS
   @DF-RKS iter   9:  -343.10104873522766   -6.65068e-12   4.13328e-09 DIIS
  Energy and wave function converged.


  ==> Post-Iterations <==

    Orbital Energies [Eh]
    ---------------------

    Doubly Occupied:                                                      

       1Ap   -77.092112     2Ap    -6.656648     3Ap    -4.810632  
       1App   -4.810629     4Ap    -4.806120     5Ap    -0.772418  
       6Ap    -0.488570     2App   -0.488500     7Ap    -0.374564  

    Virtual:                                                              

       3App    0.110792     8Ap     0.110796     9Ap     0.113486  
      10Ap     0.271416     4App    0.271432    11Ap     0.334230  
      12Ap     0.338757     5App    0.338834    13Ap     0.360820  
      14Ap     0.441298     6App    0.441311    15Ap     0.491694  
      16Ap     0.584147     7App    0.687324    17Ap     0.687348  
       8App    0.849396    18Ap     0.895053     9App    0.895786  
      19Ap     1.012156    10App    1.012502    20Ap     1.138517  
      11App    1.205510    21Ap     1.206074    22Ap     1.291764  
      23Ap     1.311398    12App    1.311631    24Ap     1.396702  
      25Ap     1.452948    26Ap     1.598170    13App    1.598547  
      14App    1.673793    27Ap     1.753240    15App    1.753396  
      28Ap     1.821234    16App    1.834677    29Ap     1.835084  
      30Ap     2.154581    31Ap     2.457006    17App    2.457551  
      32Ap     2.694551    18App    2.781575    33Ap     2.781580  
      34Ap     3.295631    19App    3.295866    20App    3.305591  
      35Ap     3.352485    21App    3.352861    36Ap     3.598352  
      22App    3.652577    37Ap     3.653565    38Ap     3.678266  
      23App    3.724114    39Ap     3.780530    24App    3.791827  
      40Ap     3.792380    25App    4.023868    41Ap     4.034321  
      26App    4.034789    42Ap     4.128235    27App    4.129552  
      43Ap     4.248588    44Ap     4.302496    28App    4.307622  
      45Ap     4.308409    46Ap     4.709555    29App    4.711224  
      47Ap     5.850905    30App    6.006489    48Ap     6.007789  
      49Ap     6.105186    50Ap     6.916615    31App    6.918192  

    Final Occupation by Irrep:
             Ap   App 
    DOCC [     7,    2 ]

  @DF-RKS Final Energy:  -343.10104873522766

   => Energetics <=

    Nuclear Repulsion Energy =             17.5913847830265411
    One-Electron Energy =                -508.5785538892942554
    Two-Electron Energy =                 165.8335557583556863
    DFT Exchange-Correlation Energy =     -18.0228246122995515
    Empirical Dispersion Energy =           0.0000000000000000
    VV10 Nonlocal Energy =                  0.0753892249839616
    Total Energy =                       -343.1010487352276073

Computation Completed


Properties will be evaluated at   0.000000,   0.000000,   0.000000 [a0]

Properties computed using the SCF density matrix

  Nuclear Dipole Moment: [e a0]
     X:    -0.0000      Y:    -2.0213      Z:     0.0000

  Electronic Dipole Moment: [e a0]
     X:     0.0002      Y:     1.7436      Z:     0.0000

  Dipole Moment: [e a0]
     X:     0.0002      Y:    -0.2777      Z:     0.0000     Total:     0.2777

  Dipole Moment: [D]
     X:     0.0006      Y:    -0.7057      Z:     0.0000     Total:     0.7057


*** tstop() called on bp1-compute00090.data.bp.acrc.priv at Tue Apr 27 17:40:55 2021
Module time:
	user time   =      70.88 seconds =       1.18 minutes
	system time =       2.24 seconds =       0.04 minutes
	total time  =          3 seconds =       0.05 minutes
Total time:
	user time   =     507.63 seconds =       8.46 minutes
	system time =      17.99 seconds =       0.30 minutes
	total time  =         22 seconds =       0.37 minutes

  //>>>>>>>>>>>>>>>>>>>>>>>>>>>>>>>>>>>//
  //    Loading displacement 8 of 9    //
  //<<<<<<<<<<<<<<<<<<<<<<<<<<<<<<<<<<<//

*** tstart() called on bp1-compute00090.data.bp.acrc.priv
*** at Tue Apr 27 17:40:55 2021

   => Loading Basis Set <=

    Name: CC-PV(T+D)Z
    Role: ORBITAL
    Keyword: BASIS
    atoms 1   entry P          line   712 file /work/zw18965/.conda/envs/p4env/share/psi4/basis/cc-pv_tpd_z.gbs 
    atoms 2-4 entry H          line    32 file /work/zw18965/.conda/envs/p4env/share/psi4/basis/cc-pv_tpd_z.gbs 


         ---------------------------------------------------------
                                   SCF
               by Justin Turney, Rob Parrish, Andy Simmonett
                          and Daniel G. A. Smith
                              RKS Reference
                       24 Threads, 137329 MiB Core
         ---------------------------------------------------------

  ==> Geometry <==

    Molecular point group: cs
    Full point group: Cs

    Geometry (in Angstrom), charge = 0, multiplicity = 1:

       Center              X                  Y                   Z               Mass       
    ------------   -----------------  -----------------  -----------------  -----------------
         P            0.000000000001     0.067984722378     0.000000000000    30.973761998420
         H            0.595171596587    -0.696464347522     1.029003797980     1.007825032230
         H            0.595171596587    -0.696464347522    -1.029003797980     1.007825032230
         H           -1.190343193220    -0.696464347522     0.000000000000     1.007825032230

  Running in cs symmetry.

  Rotational constants: A =      4.50257  B =      4.49328  C =      3.94213 [cm^-1]
  Rotational constants: A = 134983.64961  B = 134705.25087  C = 118182.05942 [MHz]
  Nuclear repulsion =   17.614322028600746

  Charge       = 0
  Multiplicity = 1
  Electrons    = 18
  Nalpha       = 9
  Nbeta        = 9

  ==> Algorithm <==

  SCF Algorithm Type is DF.
  DIIS enabled.
  MOM disabled.
  Fractional occupation disabled.
  Guess Type is SAD.
  Energy threshold   = 1.00e-08
  Density threshold  = 1.00e-08
  Integral threshold = 0.00e+00

  ==> Primary Basis <==

  Basis Set: CC-PV(T+D)Z
    Blend: CC-PV(T+D)Z
    Number of shells: 31
    Number of basis function: 81
    Number of Cartesian functions: 90
    Spherical Harmonics?: true
    Max angular momentum: 3

  ==> DFT Potential <==

   => Composite Functional: WB97X-V <= 

    wB97X-V Hyb-GGA Exchange-Correlation Functional

    N. Mardirossian and M. Head-Gordon, Phys. Chem. Chem. Phys. 16, 9904 (2014)

    Deriv               =              1
    GGA                 =           TRUE
    Meta                =          FALSE

    Exchange Hybrid     =           TRUE
    MP2 Hybrid          =          FALSE

   => Exchange-Correlation Functionals <=

    1.0000   wB97X-V range-separated functional

   => Exact (HF) Exchange <=

    0.8330            HF,LR [omega = 0.3000]
    0.1670               HF 

   => VV10 Non-Local Parameters <=

    VV10 B              =     6.0000E+00
    VV10 C              =     1.0000E-02

   => Molecular Quadrature <=

    Radial Scheme          =       TREUTLER
    Pruning Scheme         =           FLAT
    Nuclear Scheme         =       TREUTLER

    BS radius alpha        =              1
    Pruning alpha          =              1
    Radial Points          =             75
    Spherical Points       =            302
    Total Points           =          89235
    Total Blocks           =            726
    Max Points             =            256
    Max Functions          =             81

   => Loading Basis Set <=

    Name: (CC-PV(T+D)Z AUX)
    Role: JKFIT
    Keyword: DF_BASIS_SCF
    atoms 1   entry P          line   537 file /work/zw18965/.conda/envs/p4env/share/psi4/basis/cc-pvtz-jkfit.gbs 
    atoms 2-4 entry H          line    51 file /work/zw18965/.conda/envs/p4env/share/psi4/basis/cc-pvtz-jkfit.gbs 

  ==> Pre-Iterations <==

   -------------------------------------------------------
    Irrep   Nso     Nmo     Nalpha   Nbeta   Ndocc  Nsocc
   -------------------------------------------------------
     A'        50      50       0       0       0       0
     A"        31      31       0       0       0       0
   -------------------------------------------------------
    Total      81      81       9       9       9       0
   -------------------------------------------------------

  ==> Integral Setup <==

  ==> DiskDFJK: Density-Fitted J/K Matrices <==

    J tasked:                  Yes
    K tasked:                  Yes
    wK tasked:                 Yes
    Omega:               3.000E-01
    OpenMP threads:             24
    Integrals threads:          24
    Memory [MiB]:           102795
    Algorithm:                Core
    Integral Cache:           NONE
    Schwarz Cutoff:          1E-12
    Fitting Condition:       1E-10

   => Auxiliary Basis Set <=

  Basis Set: (CC-PV(T+D)Z AUX)
    Blend: CC-PVTZ-JKFIT
    Number of shells: 67
    Number of basis function: 211
    Number of Cartesian functions: 250
    Spherical Harmonics?: true
    Max angular momentum: 4

  Cached 100.0% of DFT collocation blocks in 0.196 [GiB].

  Minimum eigenvalue in the overlap matrix is 2.7576947213E-03.
  Using Symmetric Orthogonalization.

  SCF Guess: Superposition of Atomic Densities via on-the-fly atomic UHF.

  ==> Iterations <==

                           Total Energy        Delta E     RMS |[F,P]|

   @DF-RKS iter SAD:  -342.75912071708302   -3.42759e+02   0.00000e+00 
   @DF-RKS iter   1:  -343.07090377963868   -3.11783e-01   4.15442e-03 DIIS
   @DF-RKS iter   2:  -343.09542726058834   -2.45235e-02   2.08156e-03 DIIS
   @DF-RKS iter   3:  -343.10076422441449   -5.33696e-03   2.09745e-04 DIIS
   @DF-RKS iter   4:  -343.10103633973551   -2.72115e-04   3.24727e-05 DIIS
   @DF-RKS iter   5:  -343.10104341065966   -7.07092e-06   6.45340e-06 DIIS
   @DF-RKS iter   6:  -343.10104354620222   -1.35543e-07   8.14722e-07 DIIS
   @DF-RKS iter   7:  -343.10104354877501   -2.57279e-09   2.24675e-07 DIIS
   @DF-RKS iter   8:  -343.10104354890018   -1.25169e-10   3.41537e-08 DIIS
   @DF-RKS iter   9:  -343.10104354890655   -6.36646e-12   4.14849e-09 DIIS
  Energy and wave function converged.


  ==> Post-Iterations <==

    Orbital Energies [Eh]
    ---------------------

    Doubly Occupied:                                                      

       1Ap   -77.091680     2Ap    -6.656336     3Ap    -4.810314  
       1App   -4.810311     4Ap    -4.805802     5Ap    -0.772817  
       6Ap    -0.488738     2App   -0.488667     7Ap    -0.374683  

    Virtual:                                                              

       3App    0.111030     8Ap     0.111034     9Ap     0.113708  
      10Ap     0.271374     4App    0.271391    11Ap     0.334455  
      12Ap     0.338792     5App    0.338870    13Ap     0.360671  
      14Ap     0.441378     6App    0.441391    15Ap     0.492691  
      16Ap     0.584120     7App    0.687736    17Ap     0.687761  
       8App    0.850351    18Ap     0.895569     9App    0.896303  
      19Ap     1.012739    10App    1.013089    20Ap     1.139555  
      11App    1.205623    21Ap     1.206186    22Ap     1.292503  
      23Ap     1.310992    12App    1.311228    24Ap     1.397415  
      25Ap     1.452615    26Ap     1.599268    13App    1.599637  
      14App    1.674151    27Ap     1.754172    15App    1.754332  
      28Ap     1.821257    16App    1.835727    29Ap     1.836132  
      30Ap     2.154727    31Ap     2.457707    17App    2.458243  
      32Ap     2.694729    33Ap     2.782601    18App    2.782610  
      34Ap     3.295897    19App    3.296140    20App    3.306645  
      35Ap     3.351796    21App    3.352182    36Ap     3.599761  
      22App    3.653385    37Ap     3.654373    38Ap     3.683019  
      23App    3.724489    39Ap     3.783235    24App    3.793296  
[...]

  //>>>>>>>>>>>>>>>>>>>>>>>>>>>>>>>>>>>//
  //   Loading displacement 25 of 25   //
  //<<<<<<<<<<<<<<<<<<<<<<<<<<<<<<<<<<<//

*** tstart() called on bp1-compute00090.data.bp.acrc.priv
*** at Tue Apr 27 17:43:13 2021

   => Loading Basis Set <=

    Name: CC-PV(T+D)Z
    Role: ORBITAL
    Keyword: BASIS
    atoms 1   entry P          line   712 file /work/zw18965/.conda/envs/p4env/share/psi4/basis/cc-pv_tpd_z.gbs 
    atoms 2-4 entry H          line    32 file /work/zw18965/.conda/envs/p4env/share/psi4/basis/cc-pv_tpd_z.gbs 


         ---------------------------------------------------------
                                   SCF
               by Justin Turney, Rob Parrish, Andy Simmonett
                          and Daniel G. A. Smith
                              RKS Reference
                       24 Threads, 137329 MiB Core
         ---------------------------------------------------------

  ==> Geometry <==

    Molecular point group: c1
    Full point group: C1

    Geometry (in Angstrom), charge = 0, multiplicity = 1:

       Center              X                  Y                   Z               Mass       
    ------------   -----------------  -----------------  -----------------  -----------------
         P            0.000000992158     0.067818759547    -0.000107326893    30.973761998420
         H            0.594977511105    -0.695980074229     1.033174830337     1.007825032230
         H            0.597613113515    -0.693544651127    -1.032497478087     1.007825032230
         H           -1.192621116888    -0.694767736188     0.002621154457     1.007825032230

  Running in c1 symmetry.

  Rotational constants: A =      4.49949  B =      4.48635  C =      3.91999 [cm^-1]
  Rotational constants: A = 134891.22116  B = 134497.26209  C = 117518.26290 [MHz]
  Nuclear repulsion =   17.590603190298811

  Charge       = 0
  Multiplicity = 1
  Electrons    = 18
  Nalpha       = 9
  Nbeta        = 9

  ==> Algorithm <==

  SCF Algorithm Type is DF.
  DIIS enabled.
  MOM disabled.
  Fractional occupation disabled.
  Guess Type is SAD.
  Energy threshold   = 1.00e-10
  Density threshold  = 1.00e-10
  Integral threshold = 0.00e+00

  ==> Primary Basis <==

  Basis Set: CC-PV(T+D)Z
    Blend: CC-PV(T+D)Z
    Number of shells: 31
    Number of basis function: 81
    Number of Cartesian functions: 90
    Spherical Harmonics?: true
    Max angular momentum: 3

  ==> DFT Potential <==

   => Composite Functional: WB97X-V <= 

    wB97X-V Hyb-GGA Exchange-Correlation Functional

    N. Mardirossian and M. Head-Gordon, Phys. Chem. Chem. Phys. 16, 9904 (2014)

    Deriv               =              1
    GGA                 =           TRUE
    Meta                =          FALSE

    Exchange Hybrid     =           TRUE
    MP2 Hybrid          =          FALSE

   => Exchange-Correlation Functionals <=

    1.0000   wB97X-V range-separated functional

   => Exact (HF) Exchange <=

    0.8330            HF,LR [omega = 0.3000]
    0.1670               HF 

   => VV10 Non-Local Parameters <=

    VV10 B              =     6.0000E+00
    VV10 C              =     1.0000E-02

   => Molecular Quadrature <=

    Radial Scheme          =       TREUTLER
    Pruning Scheme         =           FLAT
    Nuclear Scheme         =       TREUTLER

    BS radius alpha        =              1
    Pruning alpha          =              1
    Radial Points          =             75
    Spherical Points       =            302
    Total Points           =          89238
    Total Blocks           =            730
    Max Points             =            255
    Max Functions          =             81

   => Loading Basis Set <=

    Name: (CC-PV(T+D)Z AUX)
    Role: JKFIT
    Keyword: DF_BASIS_SCF
    atoms 1   entry P          line   537 file /work/zw18965/.conda/envs/p4env/share/psi4/basis/cc-pvtz-jkfit.gbs 
    atoms 2-4 entry H          line    51 file /work/zw18965/.conda/envs/p4env/share/psi4/basis/cc-pvtz-jkfit.gbs 

  ==> Pre-Iterations <==

   -------------------------------------------------------
    Irrep   Nso     Nmo     Nalpha   Nbeta   Ndocc  Nsocc
   -------------------------------------------------------
     A         81      81       0       0       0       0
   -------------------------------------------------------
    Total      81      81       9       9       9       0
   -------------------------------------------------------

  ==> Integral Setup <==

  ==> DiskDFJK: Density-Fitted J/K Matrices <==

    J tasked:                  Yes
    K tasked:                  Yes
    wK tasked:                 Yes
    Omega:               3.000E-01
    OpenMP threads:             24
    Integrals threads:          24
    Memory [MiB]:           102796
    Algorithm:                Core
    Integral Cache:           NONE
    Schwarz Cutoff:          1E-12
    Fitting Condition:       1E-10

   => Auxiliary Basis Set <=

  Basis Set: (CC-PV(T+D)Z AUX)
    Blend: CC-PVTZ-JKFIT
    Number of shells: 67
    Number of basis function: 211
    Number of Cartesian functions: 250
    Spherical Harmonics?: true
    Max angular momentum: 4

  Cached 100.0% of DFT collocation blocks in 0.196 [GiB].

  Minimum eigenvalue in the overlap matrix is 2.7916660851E-03.
  Using Symmetric Orthogonalization.

  SCF Guess: Superposition of Atomic Densities via on-the-fly atomic UHF.

  ==> Iterations <==

                           Total Energy        Delta E     RMS |[F,P]|

   @DF-RKS iter SAD:  -342.75650961269992   -3.42757e+02   0.00000e+00 
   @DF-RKS iter   1:  -343.07086574542245   -3.14356e-01   3.01601e-03 DIIS
   @DF-RKS iter   2:  -343.09541845857694   -2.45527e-02   1.51260e-03 DIIS
   @DF-RKS iter   3:  -343.10076983063971   -5.35137e-03   1.52555e-04 DIIS
   @DF-RKS iter   4:  -343.10104278185048   -2.72951e-04   2.33944e-05 DIIS
   @DF-RKS iter   5:  -343.10104977830986   -6.99646e-06   4.66601e-06 DIIS
   @DF-RKS iter   6:  -343.10104991379120   -1.35481e-07   5.61145e-07 DIIS
   @DF-RKS iter   7:  -343.10104991622558   -2.43438e-09   1.59077e-07 DIIS
   @DF-RKS iter   8:  -343.10104991634034   -1.14767e-10   2.48367e-08 DIIS
   @DF-RKS iter   9:  -343.10104991634660   -6.25278e-12   3.22045e-09 DIIS
   @DF-RKS iter  10:  -343.10104991634699   -3.97904e-13   6.00722e-10 DIIS
   @DF-RKS iter  11:  -343.10104991634671    2.84217e-13   2.11201e-10 DIIS
   @DF-RKS iter  12:  -343.10104991634654    1.70530e-13   5.13778e-11 DIIS
  Energy and wave function converged.


  ==> Post-Iterations <==

    Orbital Energies [Eh]
    ---------------------

    Doubly Occupied:                                                      

       1A    -77.092112     2A     -6.656650     3A     -4.810637  
       4A     -4.810634     5A     -4.806118     6A     -0.772379  
       7A     -0.489090     8A     -0.488413     9A     -0.374253  

    Virtual:                                                              

      10A      0.110667    11A      0.111108    12A      0.113450  
      13A      0.271246    14A      0.271462    15A      0.333909  
      16A      0.338687    17A      0.338881    18A      0.361036  
      19A      0.441298    20A      0.441447    21A      0.491571  
      22A      0.583869    23A      0.687232    24A      0.688041  
      25A      0.848715    26A      0.894879    27A      0.895893  
      28A      1.011759    29A      1.012787    30A      1.138308  
      31A      1.205694    32A      1.206113    33A      1.291051  
      34A      1.311726    35A      1.311794    36A      1.396427  
      37A      1.453913    38A      1.598263    39A      1.599083  
      40A      1.674283    41A      1.752600    42A      1.753378  
      43A      1.821142    44A      1.834164    45A      1.834472  
      46A      2.154101    47A      2.457100    48A      2.457370  
      49A      2.694336    50A      2.780859    51A      2.781166  
      52A      3.295059    53A      3.295817    54A      3.304573  
      55A      3.353178    56A      3.354038    57A      3.598970  
      58A      3.652906    59A      3.654926    60A      3.677251  
      61A      3.725686    62A      3.779794    63A      3.791145  
      64A      3.791956    65A      4.022626    66A      4.034233  
      67A      4.034447    68A      4.127924    69A      4.128700  
      70A      4.247376    71A      4.301522    72A      4.308324  
      73A      4.309261    74A      4.710344    75A      4.711215  
      76A      5.846568    77A      6.006271    78A      6.007703  
      79A      6.109978    80A      6.916629    81A      6.917529  

    Final Occupation by Irrep:
              A 
    DOCC [     9 ]

  @DF-RKS Final Energy:  -343.10104991634654

   => Energetics <=

    Nuclear Repulsion Energy =             17.5906031902988111
    One-Electron Energy =                -508.5768209791667687
    Two-Electron Energy =                 165.8325778743988224
    DFT Exchange-Correlation Energy =     -18.0227998702197141
    Empirical Dispersion Energy =           0.0000000000000000
    VV10 Nonlocal Energy =                  0.0753898683423340
    Total Energy =                       -343.1010499163465965

Computation Completed


Properties will be evaluated at   0.000000,   0.000000,   0.000000 [a0]

Properties computed using the SCF density matrix

  Nuclear Dipole Moment: [e a0]
     X:    -0.0000      Y:    -2.0164      Z:     0.0032

  Electronic Dipole Moment: [e a0]
     X:     0.0000      Y:     1.7378      Z:    -0.0042

  Dipole Moment: [e a0]
     X:     0.0000      Y:    -0.2786      Z:    -0.0010     Total:     0.2786

  Dipole Moment: [D]
     X:     0.0000      Y:    -0.7081      Z:    -0.0027     Total:     0.7081


*** tstop() called on bp1-compute00090.data.bp.acrc.priv at Tue Apr 27 17:43:17 2021
Module time:
	user time   =      82.64 seconds =       1.38 minutes
	system time =       2.27 seconds =       0.04 minutes
	total time  =          4 seconds =       0.07 minutes
Total time:
	user time   =    3778.94 seconds =      62.98 minutes
	system time =     111.96 seconds =       1.87 minutes
	total time  =        164 seconds =       2.73 minutes

         ----------------------------------------------------------
                                   FINDIF
                     R. A. King and Jonathon Misiewicz
         ---------------------------------------------------------

  Computing second-derivative from energies using projected, 
  symmetry-adapted, cartesian coordinates.

  25 energies passed in, including the reference geometry.
    Using 3-point formula.
    Energy without displacement: -343.1010504974
    Check energies below for precision!
    0: -1        :      -343.1010484354
    0: 1         :      -343.1010484332
    1: -1        :      -343.1010497390
    1: 1         :      -343.1010489910
    2: -1        :      -343.1010490177
    2: 1         :      -343.1010483621
    3: -1        :      -343.1010490167
    3: 1         :      -343.1010483633
    0: 1, 1: 1   :      -343.1010469340
    0: -1, 1: -1 :      -343.1010476699
    0: 1, 2: 1   :      -343.1010448172
    0: -1, 2: -1 :      -343.1010454315
    1: 1, 2: 1   :      -343.1010453913
    1: -1, 2: -1 :      -343.1010467747
    0: 1, 3: 1   :      -343.1010477985
    0: -1, 3: -1 :      -343.1010484592
    1: 1, 3: 1   :      -343.1010453920
    1: -1, 3: -1 :      -343.1010467735
    2: 1, 3: 1   :      -343.1010454420
    2: -1, 3: -1 :      -343.1010467429
    4: -1        :      -343.1010484276
    5: -1        :      -343.1010498765
    4: 1, 5: 1   :      -343.1010499162
    4: -1, 5: -1 :      -343.1010499163

-------------------------------------------------------------


  ==> Harmonic Vibrational Analysis <==

  non-mass-weighted Hessian:       Symmetric? True   Hermitian? True   Lin Dep Dim?  6 (0)
  projection of translations (True) and rotations (True) removed 6 degrees of freedom (6)
  total projector:                 Symmetric? True   Hermitian? True   Lin Dep Dim?  6 (6)
  mass-weighted Hessian:           Symmetric? True   Hermitian? True   Lin Dep Dim?  6 (0)
  pre-proj  low-frequency mode:    0.0000i [cm^-1]
  pre-proj  low-frequency mode:    0.0000i [cm^-1]
  pre-proj  low-frequency mode:    0.0000i [cm^-1]
  pre-proj  low-frequency mode:    0.0000i [cm^-1]
  pre-proj  low-frequency mode:    0.0000  [cm^-1]
  pre-proj  low-frequency mode:    0.0000  [cm^-1]
  pre-proj  all modes:['0.0000i' '0.0000i' '0.0000i' '0.0000i' '0.0000' '0.0000' '372.9024'
 '1023.4096' '1151.1947' '2355.6995' '2450.0001' '2454.0001']
  projected mass-weighted Hessian: Symmetric? True   Hermitian? True   Lin Dep Dim?  6 (6)
  post-proj low-frequency mode:    0.0000i [cm^-1] (TR)
  post-proj low-frequency mode:    0.0000i [cm^-1] (TR)
  post-proj low-frequency mode:    0.0000i [cm^-1] (TR)
  post-proj low-frequency mode:    0.0000  [cm^-1] (TR)
  post-proj low-frequency mode:    0.0000  [cm^-1] (TR)
  post-proj low-frequency mode:    0.0000  [cm^-1] (TR)
  post-proj  all modes:['0.0000i' '0.0000i' '0.0000i' '0.0000' '0.0000' '0.0000' '372.9024'
 '1023.4096' '1151.1947' '2355.6995' '2450.0001' '2454.0001']

  Vibration                       7                   8                   9           
  Freq [cm^-1]                 372.9024           1023.4096           1151.1947       
  Irrep                          App                  Ap                  Ap          
  Reduced mass [u]              1.0187              1.0752              1.0257        
  Force const [mDyne/A]         0.0835              0.6635              0.8009        
  Turning point v=0 [a0]        0.5630              0.3308              0.3193        
  RMS dev v=0 [a0 u^1/2]        0.4018              0.2425              0.2287        
  Char temp [K]                536.5236           1472.4586           1656.3128       
  ----------------------------------------------------------------------------------
      1   P                0.00  0.00 -0.02    0.00 -0.05 -0.00   -0.02 -0.00  0.00   
      2   H               -0.44 -0.22 -0.06    0.16  0.49  0.27    0.48 -0.16 -0.41   
      3   H                0.44  0.22 -0.06    0.16  0.49 -0.27    0.48 -0.16  0.41   
      4   H               -0.00  0.00  0.71   -0.31  0.49 -0.00   -0.22  0.32 -0.00   

  Vibration                       10                  11                  12          
  Freq [cm^-1]                2355.6995           2450.0001           2454.0001       
  Irrep                          App                  Ap                  Ap          
  Reduced mass [u]              1.0483              1.0320              1.0410        
  Force const [mDyne/A]         3.4275              3.6496              3.6936        
  Turning point v=0 [a0]        0.2208              0.2182              0.2171        
  RMS dev v=0 [a0 u^1/2]        0.1599              0.1568              0.1566        
  Char temp [K]               3389.3271           3525.0046           3530.7598       
  ----------------------------------------------------------------------------------
      1   P                0.00 -0.00 -0.04    0.00 -0.03  0.00   -0.03 -0.00 -0.00   
      2   H                0.24 -0.42  0.51   -0.25  0.29 -0.43    0.16 -0.22  0.30   
      3   H               -0.24  0.42  0.51   -0.25  0.29  0.43    0.16 -0.22 -0.30   
      4   H                0.00  0.00  0.10    0.49  0.29 -0.00    0.69  0.44  0.00   

  ==> Thermochemistry Components <==

  Entropy, S
    Electronic S            0.000 [cal/(mol K)]        0.000 [J/(mol K)]       0.00000000 [mEh/K] (multiplicity = 1)
    Translational S        36.502 [cal/(mol K)]      152.724 [J/(mol K)]       0.05816968 [mEh/K] (mol. weight = 33.9972 [u], P = 101325.00 [Pa])
    Rotational S           15.674 [cal/(mol K)]       65.580 [J/(mol K)]       0.02497829 [mEh/K] (symmetry no. = 1)
    Vibrational S           1.204 [cal/(mol K)]        5.038 [J/(mol K)]       0.00191892 [mEh/K]
  Total S                  53.380 [cal/(mol K)]      223.343 [J/(mol K)]       0.08506690 [mEh/K]
  Correction S              0.000 [cal/(mol K)]        0.000 [J/(mol K)]       0.00000000 [mEh/K]

  Constant volume heat capacity, Cv
    Electronic Cv           0.000 [cal/(mol K)]        0.000 [J/(mol K)]       0.00000000 [mEh/K]
    Translational Cv        2.981 [cal/(mol K)]       12.472 [J/(mol K)]       0.00475022 [mEh/K]
    Rotational Cv           2.981 [cal/(mol K)]       12.472 [J/(mol K)]       0.00475022 [mEh/K]
    Vibrational Cv          2.126 [cal/(mol K)]        8.895 [J/(mol K)]       0.00338806 [mEh/K]
  Total Cv                  8.088 [cal/(mol K)]       33.839 [J/(mol K)]       0.01288849 [mEh/K]
  Correction Cv             0.000 [cal/(mol K)]        0.000 [J/(mol K)]       0.00000000 [mEh/K]

  Constant pressure heat capacity, Cp
    Electronic Cp           0.000 [cal/(mol K)]        0.000 [J/(mol K)]       0.00000000 [mEh/K]
    Translational Cp        4.968 [cal/(mol K)]       20.786 [J/(mol K)]       0.00791703 [mEh/K]
    Rotational Cp           2.981 [cal/(mol K)]       12.472 [J/(mol K)]       0.00475022 [mEh/K]
    Vibrational Cp          2.126 [cal/(mol K)]        8.895 [J/(mol K)]       0.00338806 [mEh/K]
  Total Cp                 10.075 [cal/(mol K)]       42.153 [J/(mol K)]       0.01605530 [mEh/K]
  Correction Cp             0.000 [cal/(mol K)]        0.000 [J/(mol K)]       0.00000000 [mEh/K]

  ==> Thermochemistry Energy Analysis <==

  Raw electronic energy, E0
  Total E0, Electronic energy at well bottom at 0 [K]                 -343.10105050 [Eh]

  Zero-point energy, ZPE_vib = Sum_i nu_i / 2
    Electronic ZPE          0.000 [kcal/mol]        0.000 [kJ/mol]       0.00000000 [Eh]
    Translational ZPE       0.000 [kcal/mol]        0.000 [kJ/mol]       0.00000000 [Eh]
    Rotational ZPE          0.000 [kcal/mol]        0.000 [kJ/mol]       0.00000000 [Eh]
    Vibrational ZPE        14.020 [kcal/mol]       58.660 [kJ/mol]       0.02234246 [Eh]        4903.603 [cm^-1]
  Correction ZPE           14.020 [kcal/mol]       58.660 [kJ/mol]       0.02234246 [Eh]        4903.603 [cm^-1]
  Total ZPE, Electronic energy at 0 [K]                               -343.07870804 [Eh]

  Thermal Energy, E (includes ZPE)
    Electronic E            0.000 [kcal/mol]        0.000 [kJ/mol]       0.00000000 [Eh]
    Translational E         0.889 [kcal/mol]        3.718 [kJ/mol]       0.00141628 [Eh]
    Rotational E            0.889 [kcal/mol]        3.718 [kJ/mol]       0.00141628 [Eh]
    Vibrational E          14.265 [kcal/mol]       59.687 [kJ/mol]       0.02273343 [Eh]
  Correction E             16.043 [kcal/mol]       67.123 [kJ/mol]       0.02556598 [Eh]
  Total E, Electronic energy at  298.15 [K]                           -343.07548452 [Eh]

  Enthalpy, H_trans = E_trans + k_B * T
    Electronic H            0.000 [kcal/mol]        0.000 [kJ/mol]       0.00000000 [Eh]
    Translational H         1.481 [kcal/mol]        6.197 [kJ/mol]       0.00236046 [Eh]
    Rotational H            0.889 [kcal/mol]        3.718 [kJ/mol]       0.00141628 [Eh]
    Vibrational H          14.265 [kcal/mol]       59.687 [kJ/mol]       0.02273343 [Eh]
  Correction H             16.635 [kcal/mol]       69.602 [kJ/mol]       0.02651016 [Eh]
  Total H, Enthalpy at  298.15 [K]                                    -343.07454033 [Eh]

  Gibbs free energy, G = H - T * S
    Electronic G            0.000 [kcal/mol]        0.000 [kJ/mol]       0.00000000 [Eh]
    Translational G        -9.402 [kcal/mol]      -39.337 [kJ/mol]      -0.01498283 [Eh]
    Rotational G           -3.785 [kcal/mol]      -15.834 [kJ/mol]      -0.00603100 [Eh]
    Vibrational G          13.906 [kcal/mol]       58.184 [kJ/mol]       0.02216130 [Eh]
  Correction G              0.720 [kcal/mol]        3.013 [kJ/mol]       0.00114747 [Eh]
  Total G, Free enthalpy at  298.15 [K]                               -343.09990303 [Eh]

    Psi4 stopped on: Tuesday, 27 April 2021 05:43PM
    Psi4 wall time for execution: 0:02:44.49

*** Psi4 exiting successfully. Buy a developer a beer!
