
    -----------------------------------------------------------------------
          Psi4: An Open-Source Ab Initio Electronic Structure Package
                               Psi4 1.3.2 release

                         Git: Rev {HEAD} ecbda83 


    R. M. Parrish, L. A. Burns, D. G. A. Smith, A. C. Simmonett,
    A. E. DePrince III, E. G. Hohenstein, U. Bozkaya, A. Yu. Sokolov,
    R. Di Remigio, R. M. Richard, J. F. Gonthier, A. M. James,
    H. R. McAlexander, A. Kumar, M. Saitow, X. Wang, B. P. Pritchard,
    P. Verma, H. F. Schaefer III, K. Patkowski, R. A. King, E. F. Valeev,
    F. A. Evangelista, J. M. Turney, T. D. Crawford, and C. D. Sherrill,
    J. Chem. Theory Comput. 13(7) pp 3185--3197 (2017).
    (doi: 10.1021/acs.jctc.7b00174)


                         Additional Contributions by
    P. Kraus, H. Kruse, M. H. Lechner, M. C. Schieber, R. A. Shaw,
    A. Alenaizan, R. Galvelis, Z. L. Glick, S. Lehtola, and J. P. Misiewicz

    -----------------------------------------------------------------------


    Psi4 started on: Tuesday, 27 April 2021 05:41PM

    Process ID: 186553
    Host:       bp1-compute00116.data.bp.acrc.priv
    PSIDATADIR: /work/zw18965/.conda/envs/p4env/share/psi4
    Memory:     500.0 MiB
    Threads:    24
    
  ==> Input File <==

--------------------------------------------------------------------------
memory 144 GB

molecule {
0 3
S 0.0000000000 0.0000000000 0.0000000000
O 0.0000000000 0.0000000000 1.4862145500
}

set reference uks
set dynamic_level 1
set basis cc-pV(T+d)Z
 
optimize("wB97X-V")
frequencies("wB97X-V")
--------------------------------------------------------------------------

  Memory set to 134.110 GiB by Python driver.
gradient() will perform gradient computation by finite difference of analytic energies.

         ----------------------------------------------------------
                                   FINDIF
                     R. A. King and Jonathon Misiewicz
         ---------------------------------------------------------

  Using finite-differences of energies to determine gradients.
    Generating geometries for use with 3-point formula.
    Displacement size will be 5.00e-03.
    Number of atoms is 2.
    Number of symmetric SALCs is 1.
    Translations projected? 1. Rotations projected? 1.
    Number of geometries (including reference) is 3.

  //>>>>>>>>>>>>>>>>>>>>>>>>>>>>>>>>>>>//
  //    Loading displacement 1 of 3    //
  //<<<<<<<<<<<<<<<<<<<<<<<<<<<<<<<<<<<//

*** tstart() called on bp1-compute00116.data.bp.acrc.priv
*** at Tue Apr 27 17:41:44 2021

   => Loading Basis Set <=

    Name: CC-PV(T+D)Z
    Role: ORBITAL
    Keyword: BASIS
    atoms 1 entry S          line   788 file /work/zw18965/.conda/envs/p4env/share/psi4/basis/cc-pv_tpd_z.gbs 
    atoms 2 entry O          line   271 file /work/zw18965/.conda/envs/p4env/share/psi4/basis/cc-pv_tpd_z.gbs 


         ---------------------------------------------------------
                                   SCF
               by Justin Turney, Rob Parrish, Andy Simmonett
                          and Daniel G. A. Smith
                              UKS Reference
                       24 Threads, 137329 MiB Core
         ---------------------------------------------------------

  ==> Geometry <==

    Molecular point group: c2v
    Full point group: C_inf_v

    Geometry (in Angstrom), charge = 0, multiplicity = 3:

       Center              X                  Y                   Z               Mass       
    ------------   -----------------  -----------------  -----------------  -----------------
         S            0.000000000000     0.000000000000    -0.495588255967    31.972071174400
         O            0.000000000000     0.000000000000     0.990626294033    15.994914619570

  Running in c2v symmetry.

  Rotational constants: A = ************  B =      0.71585  C =      0.71585 [cm^-1]
  Rotational constants: A = ************  B =  21460.70147  C =  21460.70147 [MHz]
  Nuclear repulsion =   45.575306045658088

  Charge       = 0
  Multiplicity = 3
  Electrons    = 24
  Nalpha       = 13
  Nbeta        = 11

  ==> Algorithm <==

  SCF Algorithm Type is DF.
  DIIS enabled.
  MOM disabled.
  Fractional occupation disabled.
  Guess Type is SAD.
  Energy threshold   = 1.00e-08
  Density threshold  = 1.00e-08
  Integral threshold = 0.00e+00

  ==> Primary Basis <==

  Basis Set: CC-PV(T+D)Z
    Blend: CC-PV(T+D)Z
    Number of shells: 23
    Number of basis function: 69
    Number of Cartesian functions: 80
    Spherical Harmonics?: true
    Max angular momentum: 3

  ==> DFT Potential <==

   => Composite Functional: WB97X-V <= 

    wB97X-V Hyb-GGA Exchange-Correlation Functional

    N. Mardirossian and M. Head-Gordon, Phys. Chem. Chem. Phys. 16, 9904 (2014)

    Deriv               =              1
    GGA                 =           TRUE
    Meta                =          FALSE

    Exchange Hybrid     =           TRUE
    MP2 Hybrid          =          FALSE

   => Exchange-Correlation Functionals <=

    1.0000   wB97X-V range-separated functional

   => Exact (HF) Exchange <=

    0.8330            HF,LR [omega = 0.3000]
    0.1670               HF 

   => VV10 Non-Local Parameters <=

    VV10 B              =     6.0000E+00
    VV10 C              =     1.0000E-02

   => Molecular Quadrature <=

    Radial Scheme          =       TREUTLER
    Pruning Scheme         =           FLAT
    Nuclear Scheme         =       TREUTLER

    BS radius alpha        =              1
    Pruning alpha          =              1
    Radial Points          =             75
    Spherical Points       =            302
    Total Points           =          43136
    Total Blocks           =            392
    Max Points             =            256
    Max Functions          =             69

   => Loading Basis Set <=

    Name: (CC-PV(T+D)Z AUX)
    Role: JKFIT
    Keyword: DF_BASIS_SCF
    atoms 1 entry S          line   613 file /work/zw18965/.conda/envs/p4env/share/psi4/basis/cc-pvtz-jkfit.gbs 
    atoms 2 entry O          line   229 file /work/zw18965/.conda/envs/p4env/share/psi4/basis/cc-pvtz-jkfit.gbs 

  ==> Pre-Iterations <==

   -------------------------------------------------------
    Irrep   Nso     Nmo     Nalpha   Nbeta   Ndocc  Nsocc
   -------------------------------------------------------
     A1        30      30       0       0       0       0
     A2         7       7       0       0       0       0
     B1        16      16       0       0       0       0
     B2        16      16       0       0       0       0
   -------------------------------------------------------
    Total      69      69      13      11      11       2
   -------------------------------------------------------

  ==> Integral Setup <==

  ==> DiskDFJK: Density-Fitted J/K Matrices <==

    J tasked:                  Yes
    K tasked:                  Yes
    wK tasked:                 Yes
    Omega:               3.000E-01
    OpenMP threads:             24
    Integrals threads:          24
    Memory [MiB]:           102915
    Algorithm:                Core
    Integral Cache:           NONE
    Schwarz Cutoff:          1E-12
    Fitting Condition:       1E-10

   => Auxiliary Basis Set <=

  Basis Set: (CC-PV(T+D)Z AUX)
    Blend: CC-PVTZ-JKFIT
    Number of shells: 62
    Number of basis function: 200
    Number of Cartesian functions: 241
    Spherical Harmonics?: true
    Max angular momentum: 4

  Cached 100.0% of DFT collocation blocks in 0.080 [GiB].

  Minimum eigenvalue in the overlap matrix is 4.6685952605E-03.
  Using Symmetric Orthogonalization.

  SCF Guess: Superposition of Atomic Densities via on-the-fly atomic UHF.

  ==> Iterations <==

                           Total Energy        Delta E     RMS |[F,P]|

   @DF-UKS iter SAD:  -472.87081610685379   -4.72871e+02   0.00000e+00 
   @DF-UKS iter   1:  -473.24300527637394   -3.72189e-01   1.18462e-02 DIIS
   @DF-UKS iter   2:  -473.16358140690744    7.94239e-02   1.72426e-02 DIIS
   @DF-UKS iter   3:  -473.32005453073020   -1.56473e-01   1.33603e-03 DIIS
   @DF-UKS iter   4:  -473.32116743426201   -1.11290e-03   3.81444e-04 DIIS
   @DF-UKS iter   5:  -473.32136741628233   -1.99982e-04   1.09067e-04 DIIS
   @DF-UKS iter   6:  -473.32139251792711   -2.51016e-05   4.26909e-05 DIIS
   @DF-UKS iter   7:  -473.32139764544939   -5.12752e-06   1.77113e-05 DIIS
   @DF-UKS iter   8:  -473.32139819428517   -5.48836e-07   6.00810e-06 DIIS
   @DF-UKS iter   9:  -473.32139825069339   -5.64082e-08   7.96933e-07 DIIS
   @DF-UKS iter  10:  -473.32139825192769   -1.23430e-09   1.88596e-07 DIIS
   @DF-UKS iter  11:  -473.32139825201835   -9.06653e-11   8.01739e-08 DIIS
   @DF-UKS iter  12:  -473.32139825202700   -8.64020e-12   1.34172e-08 DIIS
   @DF-UKS iter  13:  -473.32139825202728   -2.84217e-13   5.43770e-09 DIIS
  Energy and wave function converged.


  ==> Post-Iterations <==

   @Spin Contamination Metric:   1.110911915E-02
   @S^2 Expected:                2.000000000E+00
   @S^2 Observed:                2.011109119E+00
   @S   Expected:                1.000000000E+00
   @S   Observed:                1.000000000E+00

    Orbital Energies [Eh]
    ---------------------

    Alpha Occupied:                                                       

       1A1   -88.979021     2A1   -19.287835     3A1    -8.130008  
       1B2    -6.085318     1B1    -6.085318     4A1    -6.084029  
       5A1    -1.219185     6A1    -0.809630     2B1    -0.570963  
       2B2    -0.570963     7A1    -0.562882     3B2    -0.363871  
       3B1    -0.363871  

    Alpha Virtual:                                                        

       8A1     0.097322     4B2     0.351331     4B1     0.351331  
       9A1     0.376440     1A2     0.384306    10A1     0.384306  
      11A1     0.401264     5B2     0.484942     5B1     0.484942  
      12A1     0.592922     6B1     0.737746     6B2     0.737746  
      13A1     0.881799    14A1     1.240884    15A1     1.408985  
       2A2     1.408985     7B2     1.479413     7B1     1.479413  
       3A2     1.498887    16A1     1.498888    17A1     1.558579  
       8B2     1.662694     8B1     1.662694     9B1     1.695723  
       9B2     1.695723     4A2     1.916612    18A1     1.916613  
      10B2     1.967895    10B1     1.967895    19A1     1.994089  
      20A1     2.253266    11B1     2.463018    11B2     2.463018  
      21A1     2.553755    22A1     3.600132    12B1     3.805142  
      12B2     3.805142    23A1     4.933551    13B1     5.177826  
      13B2     5.177826     5A2     5.247134    24A1     5.247142  
      14B1     5.346928    14B2     5.346928    25A1     5.467256  
       6A2     6.285087    26A1     6.285125    15B1     6.571627  
      15B2     6.571627    27A1     6.708746     7A2     6.708771  
      28A1     6.739405    16B2     6.990373    16B1     6.990373  
      29A1     7.470193    30A1     8.949034  

    Beta Occupied:                                                        

       1A1   -88.972742     2A1   -19.269129     3A1    -8.123897  
       4A1    -6.080324     1B2    -6.072256     1B1    -6.072256  
       5A1    -1.178138     6A1    -0.735987     7A1    -0.529080  
       2B2    -0.494055     2B1    -0.494055  

    Beta Virtual:                                                         

       3B2    -0.033081     3B1    -0.033081     8A1     0.115560  
       4B1     0.368459     4B2     0.368459     9A1     0.390331  
      10A1     0.414780     1A2     0.434733    11A1     0.434733  
       5B2     0.528408     5B1     0.528408    12A1     0.602583  
       6B2     0.761550     6B1     0.761550    13A1     0.904866  
      14A1     1.258031    15A1     1.444610     2A2     1.444611  
       7B2     1.498277     7B1     1.498277    16A1     1.530328  
       3A2     1.530329    17A1     1.578132     8B2     1.688138  
       8B1     1.688138     9B1     1.746442     9B2     1.746442  
      18A1     1.953666     4A2     1.953667    10B2     2.003270  
      10B1     2.003270    19A1     2.014642    20A1     2.268084  
      11B2     2.488548    11B1     2.488548    21A1     2.574025  
      22A1     3.619040    12B2     3.862890    12B1     3.862890  
      23A1     4.953439    13B1     5.224756    13B2     5.224756  
       5A2     5.279064    24A1     5.279072    14B2     5.371117  
      14B1     5.371117    25A1     5.488758     6A2     6.361047  
      26A1     6.361081    15B2     6.607571    15B1     6.607571  
      27A1     6.720385     7A2     6.720408    28A1     6.762120  
      16B2     7.007065    16B1     7.007065    29A1     7.493403  
      30A1     8.986222  

    Final Occupation by Irrep:
             A1    A2    B1    B2 
    DOCC [     7,    0,    2,    2 ]
    SOCC [     0,    0,    1,    1 ]

  @DF-UKS Final Energy:  -473.32139825202728

   => Energetics <=

    Nuclear Repulsion Energy =             45.5753060456580883
    One-Electron Energy =                -743.3401917941819192
    Two-Electron Energy =                 249.8223111980059912
    DFT Exchange-Correlation Energy =     -25.4796601858910492
    Empirical Dispersion Energy =           0.0000000000000000
    VV10 Nonlocal Energy =                  0.1008364843815890
    Total Energy =                       -473.3213982520272793

  UHF NO Occupations:
  HONO-2 :    2 B1 1.9979151
  HONO-1 :    3 B1 1.0000000
  HONO-0 :    3 B2 1.0000000
  LUNO+0 :    4 B1 0.0020849
  LUNO+1 :    4 B2 0.0020849
  LUNO+2 :    8 A1 0.0010704
  LUNO+3 :    9 A1 0.0002377


Computation Completed


Properties will be evaluated at   0.000000,   0.000000,   0.000000 [a0]

Properties computed using the SCF density matrix

  Nuclear Dipole Moment: [e a0]
     X:     0.0000      Y:     0.0000      Z:    -0.0083

  Electronic Dipole Moment: [e a0]
     X:     0.0000      Y:     0.0000      Z:    -0.6158

  Dipole Moment: [e a0]
     X:     0.0000      Y:     0.0000      Z:    -0.6241     Total:     0.6241

  Dipole Moment: [D]
     X:     0.0000      Y:     0.0000      Z:    -1.5863     Total:     1.5863


*** tstop() called on bp1-compute00116.data.bp.acrc.priv at Tue Apr 27 17:41:49 2021
Module time:
	user time   =     111.59 seconds =       1.86 minutes
	system time =       6.62 seconds =       0.11 minutes
	total time  =          5 seconds =       0.08 minutes
Total time:
	user time   =     111.59 seconds =       1.86 minutes
	system time =       6.62 seconds =       0.11 minutes
	total time  =          5 seconds =       0.08 minutes

  //>>>>>>>>>>>>>>>>>>>>>>>>>>>>>>>>>>>//
  //    Loading displacement 2 of 3    //
  //<<<<<<<<<<<<<<<<<<<<<<<<<<<<<<<<<<<//

*** tstart() called on bp1-compute00116.data.bp.acrc.priv
*** at Tue Apr 27 17:41:49 2021

   => Loading Basis Set <=

    Name: CC-PV(T+D)Z
    Role: ORBITAL
    Keyword: BASIS
    atoms 1 entry S          line   788 file /work/zw18965/.conda/envs/p4env/share/psi4/basis/cc-pv_tpd_z.gbs 
    atoms 2 entry O          line   271 file /work/zw18965/.conda/envs/p4env/share/psi4/basis/cc-pv_tpd_z.gbs 


         ---------------------------------------------------------
                                   SCF
               by Justin Turney, Rob Parrish, Andy Simmonett
                          and Daniel G. A. Smith
                              UKS Reference
                       24 Threads, 137329 MiB Core
         ---------------------------------------------------------

  ==> Geometry <==

    Molecular point group: c2v
    Full point group: C_inf_v

    Geometry (in Angstrom), charge = 0, multiplicity = 3:

       Center              X                  Y                   Z               Mass       
    ------------   -----------------  -----------------  -----------------  -----------------
         S            0.000000000000     0.000000000000    -0.495858468507    31.972071174400
         O            0.000000000000     0.000000000000     0.991166419115    15.994914619570

  Running in c2v symmetry.

  Rotational constants: A = ************  B =      0.71507  C =      0.71507 [cm^-1]
  Rotational constants: A = ************  B =  21437.31830  C =  21437.31830 [MHz]
  Nuclear repulsion =   45.550470291095749

  Charge       = 0
  Multiplicity = 3
  Electrons    = 24
  Nalpha       = 13
  Nbeta        = 11

  ==> Algorithm <==

  SCF Algorithm Type is DF.
  DIIS enabled.
  MOM disabled.
  Fractional occupation disabled.
  Guess Type is SAD.
  Energy threshold   = 1.00e-08
  Density threshold  = 1.00e-08
  Integral threshold = 0.00e+00

  ==> Primary Basis <==

  Basis Set: CC-PV(T+D)Z
    Blend: CC-PV(T+D)Z
    Number of shells: 23
    Number of basis function: 69
    Number of Cartesian functions: 80
    Spherical Harmonics?: true
    Max angular momentum: 3

  ==> DFT Potential <==

   => Composite Functional: WB97X-V <= 

    wB97X-V Hyb-GGA Exchange-Correlation Functional

    N. Mardirossian and M. Head-Gordon, Phys. Chem. Chem. Phys. 16, 9904 (2014)

    Deriv               =              1
    GGA                 =           TRUE
    Meta                =          FALSE

    Exchange Hybrid     =           TRUE
    MP2 Hybrid          =          FALSE

   => Exchange-Correlation Functionals <=

    1.0000   wB97X-V range-separated functional

   => Exact (HF) Exchange <=

    0.8330            HF,LR [omega = 0.3000]
    0.1670               HF 

   => VV10 Non-Local Parameters <=

    VV10 B              =     6.0000E+00
    VV10 C              =     1.0000E-02

   => Molecular Quadrature <=

    Radial Scheme          =       TREUTLER
    Pruning Scheme         =           FLAT
    Nuclear Scheme         =       TREUTLER

    BS radius alpha        =              1
    Pruning alpha          =              1
    Radial Points          =             75
    Spherical Points       =            302
    Total Points           =          43136
    Total Blocks           =            392
    Max Points             =            256
    Max Functions          =             69

   => Loading Basis Set <=

    Name: (CC-PV(T+D)Z AUX)
    Role: JKFIT
    Keyword: DF_BASIS_SCF
    atoms 1 entry S          line   613 file /work/zw18965/.conda/envs/p4env/share/psi4/basis/cc-pvtz-jkfit.gbs 
    atoms 2 entry O          line   229 file /work/zw18965/.conda/envs/p4env/share/psi4/basis/cc-pvtz-jkfit.gbs 

  ==> Pre-Iterations <==

   -------------------------------------------------------
    Irrep   Nso     Nmo     Nalpha   Nbeta   Ndocc  Nsocc
   -------------------------------------------------------
     A1        30      30       0       0       0       0
     A2         7       7       0       0       0       0
     B1        16      16       0       0       0       0
     B2        16      16       0       0       0       0
   -------------------------------------------------------
    Total      69      69      13      11      11       2
   -------------------------------------------------------

  ==> Integral Setup <==

  ==> DiskDFJK: Density-Fitted J/K Matrices <==

    J tasked:                  Yes
    K tasked:                  Yes
    wK tasked:                 Yes
    Omega:               3.000E-01
    OpenMP threads:             24
    Integrals threads:          24
    Memory [MiB]:           102915
    Algorithm:                Core
    Integral Cache:           NONE
    Schwarz Cutoff:          1E-12
    Fitting Condition:       1E-10

   => Auxiliary Basis Set <=

  Basis Set: (CC-PV(T+D)Z AUX)
    Blend: CC-PVTZ-JKFIT
    Number of shells: 62
    Number of basis function: 200
    Number of Cartesian functions: 241
    Spherical Harmonics?: true
    Max angular momentum: 4

  Cached 100.0% of DFT collocation blocks in 0.080 [GiB].

  Minimum eigenvalue in the overlap matrix is 4.6789698501E-03.
  Using Symmetric Orthogonalization.

  SCF Guess: Superposition of Atomic Densities via on-the-fly atomic UHF.

  ==> Iterations <==

                           Total Energy        Delta E     RMS |[F,P]|

   @DF-UKS iter SAD:  -472.86924415694801   -4.72869e+02   0.00000e+00 
   @DF-UKS iter   1:  -473.24295392107035   -3.73710e-01   1.18462e-02 DIIS
   @DF-UKS iter   2:  -473.16315655273644    7.97974e-02   1.72613e-02 DIIS
   @DF-UKS iter   3:  -473.32003873375561   -1.56882e-01   1.33623e-03 DIIS
   @DF-UKS iter   4:  -473.32115266544997   -1.11393e-03   3.82323e-04 DIIS
   @DF-UKS iter   5:  -473.32135347853591   -2.00813e-04   1.09511e-04 DIIS
   @DF-UKS iter   6:  -473.32137879192766   -2.53134e-05   4.29214e-05 DIIS
   @DF-UKS iter   7:  -473.32138397915145   -5.18722e-06   1.78051e-05 DIIS
   @DF-UKS iter   8:  -473.32138453456145   -5.55410e-07   6.03409e-06 DIIS
   @DF-UKS iter   9:  -473.32138459140964   -5.68482e-08   7.98472e-07 DIIS
   @DF-UKS iter  10:  -473.32138459264758   -1.23794e-09   1.89038e-07 DIIS
   @DF-UKS iter  11:  -473.32138459273870   -9.11200e-11   8.05352e-08 DIIS
   @DF-UKS iter  12:  -473.32138459274756   -8.86757e-12   1.34686e-08 DIIS
   @DF-UKS iter  13:  -473.32138459274785   -2.84217e-13   5.46144e-09 DIIS
  Energy and wave function converged.


  ==> Post-Iterations <==

   @Spin Contamination Metric:   1.112384598E-02
   @S^2 Expected:                2.000000000E+00
   @S^2 Observed:                2.011123846E+00
   @S   Expected:                1.000000000E+00
   @S   Observed:                1.000000000E+00

    Orbital Energies [Eh]
    ---------------------

    Alpha Occupied:                                                       

       1A1   -88.979102     2A1   -19.287935     3A1    -8.130065  
       1B2    -6.085375     1B1    -6.085375     4A1    -6.084089  
       5A1    -1.218856     6A1    -0.809755     2B1    -0.570794  
       2B2    -0.570794     7A1    -0.562807     3B2    -0.364005  
       3B1    -0.364005  

    Alpha Virtual:                                                        

       8A1     0.097145     4B2     0.351341     4B1     0.351341  
       9A1     0.376452     1A2     0.384315    10A1     0.384315  
      11A1     0.401201     5B2     0.484735     5B1     0.484735  
      12A1     0.592728     6B1     0.737799     6B2     0.737799  
      13A1     0.881215    14A1     1.240904    15A1     1.409034  
       2A2     1.409035     7B2     1.479417     7B1     1.479417  
       3A2     1.498952    16A1     1.498953    17A1     1.558576  
       8B2     1.662112     8B1     1.662112     9B1     1.695726  
       9B2     1.695726     4A2     1.916220    18A1     1.916221  
      10B2     1.967866    10B1     1.967866    19A1     1.993704  
      20A1     2.253603    11B1     2.462601    11B2     2.462601  
      21A1     2.552810    22A1     3.599418    12B1     3.804749  
      12B2     3.804749    23A1     4.932345    13B2     5.177867  
      13B1     5.177867     5A2     5.246946    24A1     5.246954  
      14B1     5.346810    14B2     5.346810    25A1     5.465849  
       6A2     6.284923    26A1     6.284962    15B1     6.571325  
      15B2     6.571325    27A1     6.708691     7A2     6.708716  
      28A1     6.737843    16B2     6.989266    16B1     6.989266  
      29A1     7.472121    30A1     8.944388  

    Beta Occupied:                                                        

       1A1   -88.972822     2A1   -19.269218     3A1    -8.123954  
       4A1    -6.080385     1B2    -6.072314     1B1    -6.072314  
       5A1    -1.177764     6A1    -0.736118     7A1    -0.529020  
       2B2    -0.493828     2B1    -0.493828  

    Beta Virtual:                                                         

       3B2    -0.033216     3B1    -0.033216     8A1     0.115400  
       4B1     0.368462     4B2     0.368462     9A1     0.390333  
      10A1     0.414700     1A2     0.434734    11A1     0.434734  
       5B2     0.528189     5B1     0.528189    12A1     0.602410  
       6B2     0.761620     6B1     0.761620    13A1     0.904269  
      14A1     1.258066    15A1     1.444668     2A2     1.444669  
       7B2     1.498283     7B1     1.498283    16A1     1.530387  
       3A2     1.530388    17A1     1.578120     8B2     1.687540  
       8B1     1.687540     9B1     1.746435     9B2     1.746435  
      18A1     1.953272     4A2     1.953273    10B1     2.003238  
      10B2     2.003238    19A1     2.014248    20A1     2.268428  
      11B2     2.488127    11B1     2.488127    21A1     2.573079  
      22A1     3.618329    12B2     3.862537    12B1     3.862537  
      23A1     4.952250    13B2     5.224829    13B1     5.224829  
       5A2     5.278899    24A1     5.278907    14B2     5.371022  
      14B1     5.371022    25A1     5.487355     6A2     6.360930  
      26A1     6.360965    15B2     6.607295    15B1     6.607295  
      27A1     6.720329     7A2     6.720352    28A1     6.760572  
      16B2     7.005953    16B1     7.005953    29A1     7.495331  
      30A1     8.981614  

    Final Occupation by Irrep:
             A1    A2    B1    B2 
    DOCC [     7,    0,    2,    2 ]
    SOCC [     0,    0,    1,    1 ]

  @DF-UKS Final Energy:  -473.32138459274785

   => Energetics <=

    Nuclear Repulsion Energy =             45.5504702910957491
    One-Electron Energy =                -743.2910783117745268
    Two-Electron Energy =                 249.7975829877611318
    DFT Exchange-Correlation Energy =     -25.4791968672919538
    Empirical Dispersion Energy =           0.0000000000000000
    VV10 Nonlocal Energy =                  0.1008373074618441
    Total Energy =                       -473.3213845927477337

  UHF NO Occupations:
  HONO-2 :    2 B1 1.9979117
  HONO-1 :    3 B1 1.0000000
  HONO-0 :    3 B2 1.0000000
  LUNO+0 :    4 B1 0.0020883
  LUNO+1 :    4 B2 0.0020883
  LUNO+2 :    8 A1 0.0010706
  LUNO+3 :    9 A1 0.0002379


Computation Completed


Properties will be evaluated at   0.000000,   0.000000,   0.000000 [a0]

Properties computed using the SCF density matrix

  Nuclear Dipole Moment: [e a0]
     X:     0.0000      Y:     0.0000      Z:    -0.0083

  Electronic Dipole Moment: [e a0]
     X:     0.0000      Y:     0.0000      Z:    -0.6164

  Dipole Moment: [e a0]
     X:     0.0000      Y:     0.0000      Z:    -0.6247     Total:     0.6247

  Dipole Moment: [D]
     X:     0.0000      Y:     0.0000      Z:    -1.5879     Total:     1.5879


*** tstop() called on bp1-compute00116.data.bp.acrc.priv at Tue Apr 27 17:41:54 2021
Module time:
	user time   =     109.17 seconds =       1.82 minutes
	system time =       5.58 seconds =       0.09 minutes
	total time  =          5 seconds =       0.08 minutes
Total time:
	user time   =     220.93 seconds =       3.68 minutes
	system time =      12.21 seconds =       0.20 minutes
	total time  =         10 seconds =       0.17 minutes

  //>>>>>>>>>>>>>>>>>>>>>>>>>>>>>>>>>>>//
  //    Loading displacement 3 of 3    //
  //<<<<<<<<<<<<<<<<<<<<<<<<<<<<<<<<<<<//

*** tstart() called on bp1-compute00116.data.bp.acrc.priv
*** at Tue Apr 27 17:41:54 2021

   => Loading Basis Set <=

    Name: CC-PV(T+D)Z
    Role: ORBITAL
    Keyword: BASIS
    atoms 1 entry S          line   788 file /work/zw18965/.conda/envs/p4env/share/psi4/basis/cc-pv_tpd_z.gbs 
    atoms 2 entry O          line   271 file /work/zw18965/.conda/envs/p4env/share/psi4/basis/cc-pv_tpd_z.gbs 


         ---------------------------------------------------------
                                   SCF
               by Justin Turney, Rob Parrish, Andy Simmonett
                          and Daniel G. A. Smith
                              UKS Reference
                       24 Threads, 137329 MiB Core
         ---------------------------------------------------------

  ==> Geometry <==

    Molecular point group: c2v
    Full point group: C_inf_v

    Geometry (in Angstrom), charge = 0, multiplicity = 3:

       Center              X                  Y                   Z               Mass       
    ------------   -----------------  -----------------  -----------------  -----------------
         S            0.000000000000     0.000000000000    -0.495318043426    31.972071174400
         O            0.000000000000     0.000000000000     0.990086168951    15.994914619570

  Running in c2v symmetry.

  Rotational constants: A = ************  B =      0.71663  C =      0.71663 [cm^-1]
  Rotational constants: A = ************  B =  21484.12291  C =  21484.12291 [MHz]
  Nuclear repulsion =   45.600168897688086

  Charge       = 0
  Multiplicity = 3
  Electrons    = 24
  Nalpha       = 13
  Nbeta        = 11

  ==> Algorithm <==

  SCF Algorithm Type is DF.
  DIIS enabled.
  MOM disabled.
  Fractional occupation disabled.
  Guess Type is SAD.
  Energy threshold   = 1.00e-08
  Density threshold  = 1.00e-08
  Integral threshold = 0.00e+00

  ==> Primary Basis <==

  Basis Set: CC-PV(T+D)Z
    Blend: CC-PV(T+D)Z
    Number of shells: 23
    Number of basis function: 69
    Number of Cartesian functions: 80
    Spherical Harmonics?: true
    Max angular momentum: 3

  ==> DFT Potential <==

   => Composite Functional: WB97X-V <= 

    wB97X-V Hyb-GGA Exchange-Correlation Functional

    N. Mardirossian and M. Head-Gordon, Phys. Chem. Chem. Phys. 16, 9904 (2014)

    Deriv               =              1
    GGA                 =           TRUE
    Meta                =          FALSE

    Exchange Hybrid     =           TRUE
    MP2 Hybrid          =          FALSE

   => Exchange-Correlation Functionals <=

    1.0000   wB97X-V range-separated functional

   => Exact (HF) Exchange <=

    0.8330            HF,LR [omega = 0.3000]
    0.1670               HF 

   => VV10 Non-Local Parameters <=

    VV10 B              =     6.0000E+00
    VV10 C              =     1.0000E-02

   => Molecular Quadrature <=

    Radial Scheme          =       TREUTLER
    Pruning Scheme         =           FLAT
    Nuclear Scheme         =       TREUTLER

    BS radius alpha        =              1
    Pruning alpha          =              1
    Radial Points          =             75
    Spherical Points       =            302
    Total Points           =          43136
    Total Blocks           =            393
    Max Points             =            256
    Max Functions          =             69

   => Loading Basis Set <=

    Name: (CC-PV(T+D)Z AUX)
    Role: JKFIT
    Keyword: DF_BASIS_SCF
    atoms 1 entry S          line   613 file /work/zw18965/.conda/envs/p4env/share/psi4/basis/cc-pvtz-jkfit.gbs 
    atoms 2 entry O          line   229 file /work/zw18965/.conda/envs/p4env/share/psi4/basis/cc-pvtz-jkfit.gbs 

  ==> Pre-Iterations <==

   -------------------------------------------------------
    Irrep   Nso     Nmo     Nalpha   Nbeta   Ndocc  Nsocc
   -------------------------------------------------------
     A1        30      30       0       0       0       0
     A2         7       7       0       0       0       0
     B1        16      16       0       0       0       0
     B2        16      16       0       0       0       0
   -------------------------------------------------------
    Total      69      69      13      11      11       2
   -------------------------------------------------------

  ==> Integral Setup <==

  ==> DiskDFJK: Density-Fitted J/K Matrices <==

    J tasked:                  Yes
    K tasked:                  Yes
    wK tasked:                 Yes
    Omega:               3.000E-01
    OpenMP threads:             24
    Integrals threads:          24
    Memory [MiB]:           102915
    Algorithm:                Core
    Integral Cache:           NONE
    Schwarz Cutoff:          1E-12
    Fitting Condition:       1E-10

   => Auxiliary Basis Set <=

  Basis Set: (CC-PV(T+D)Z AUX)
    Blend: CC-PVTZ-JKFIT
    Number of shells: 62
    Number of basis function: 200
    Number of Cartesian functions: 241
    Spherical Harmonics?: true
    Max angular momentum: 4

  Cached 100.0% of DFT collocation blocks in 0.080 [GiB].

  Minimum eigenvalue in the overlap matrix is 4.6582437705E-03.
  Using Symmetric Orthogonalization.

  SCF Guess: Superposition of Atomic Densities via on-the-fly atomic UHF.

  ==> Iterations <==

                           Total Energy        Delta E     RMS |[F,P]|

   @DF-UKS iter SAD:  -472.87238959099261   -4.72872e+02   0.00000e+00 
   @DF-UKS iter   1:  -473.24305480693403   -3.70665e-01   1.18461e-02 DIIS
   @DF-UKS iter   2:  -473.16400272579830    7.90521e-02   1.72240e-02 DIIS
   @DF-UKS iter   3:  -473.32006896388981   -1.56066e-01   1.33584e-03 DIIS
   @DF-UKS iter   4:  -473.32118084185379   -1.11188e-03   3.80569e-04 DIIS
   @DF-UKS iter   5:  -473.32137999715411   -1.99155e-04   1.08625e-04 DIIS
   @DF-UKS iter   6:  -473.32140488876757   -2.48916e-05   4.24612e-05 DIIS
   @DF-UKS iter   7:  -473.32140995717884   -5.06841e-06   1.76178e-05 DIIS
   @DF-UKS iter   8:  -473.32141049950627   -5.42327e-07   5.98210e-06 DIIS
   @DF-UKS iter   9:  -473.32141055547538   -5.59691e-08   7.95391e-07 DIIS
   @DF-UKS iter  10:  -473.32141055670593   -1.23055e-09   1.88148e-07 DIIS
   @DF-UKS iter  11:  -473.32141055679580   -8.98694e-11   7.98124e-08 DIIS
   @DF-UKS iter  12:  -473.32141055680393   -8.12861e-12   1.33657e-08 DIIS
   @DF-UKS iter  13:  -473.32141055680478   -8.52651e-13   5.41394e-09 DIIS
  Energy and wave function converged.


  ==> Post-Iterations <==

   @Spin Contamination Metric:   1.109438713E-02
   @S^2 Expected:                2.000000000E+00
   @S^2 Observed:                2.011094387E+00
   @S   Expected:                1.000000000E+00
   @S   Observed:                1.000000000E+00

    Orbital Energies [Eh]
    ---------------------

    Alpha Occupied:                                                       

       1A1   -88.978941     2A1   -19.287736     3A1    -8.129951  
       1B2    -6.085261     1B1    -6.085261     4A1    -6.083969  
       5A1    -1.219515     6A1    -0.809506     2B1    -0.571133  
       2B2    -0.571133     7A1    -0.562957     3B2    -0.363738  
       3B1    -0.363738  

    Alpha Virtual:                                                        

       8A1     0.097498     4B2     0.351322     4B1     0.351322  
       9A1     0.376428     1A2     0.384297    10A1     0.384297  
      11A1     0.401328     5B2     0.485150     5B1     0.485150  
      12A1     0.593117     6B1     0.737693     6B2     0.737693  
      13A1     0.882384    14A1     1.240865    15A1     1.408936  
       2A2     1.408937     7B2     1.479410     7B1     1.479410  
       3A2     1.498821    16A1     1.498822    17A1     1.558582  
       8B2     1.663278     8B1     1.663278     9B1     1.695719  
       9B2     1.695719     4A2     1.917005    18A1     1.917006  
      10B2     1.967924    10B1     1.967924    19A1     1.994473  
      20A1     2.252932    11B1     2.463434    11B2     2.463434  
      21A1     2.554699    22A1     3.600849    12B1     3.805535  
      12B2     3.805535    23A1     4.934756    13B1     5.177786  
      13B2     5.177786     5A2     5.247322    24A1     5.247330  
      14B1     5.347047    14B2     5.347047    25A1     5.468671  
       6A2     6.285251    26A1     6.285289    15B1     6.571931  
      15B2     6.571931    27A1     6.708801     7A2     6.708826  
      28A1     6.740972    16B2     6.991480    16B1     6.991480  
      29A1     7.468252    30A1     8.953696  

    Beta Occupied:                                                        

       1A1   -88.972661     2A1   -19.269041     3A1    -8.123840  
       4A1    -6.080264     1B2    -6.072199     1B1    -6.072199  
       5A1    -1.178512     6A1    -0.735856     7A1    -0.529140  
       2B2    -0.494282     2B1    -0.494282  

    Beta Virtual:                                                         

       3B2    -0.032947     3B1    -0.032947     8A1     0.115718  
       4B1     0.368455     4B2     0.368455     9A1     0.390329  
      10A1     0.414861     1A2     0.434733    11A1     0.434733  
       5B2     0.528628     5B1     0.528628    12A1     0.602757  
       6B2     0.761480     6B1     0.761480    13A1     0.905464  
      14A1     1.257995    15A1     1.444552     2A2     1.444553  
       7B2     1.498271     7B1     1.498271    16A1     1.530269  
       3A2     1.530269    17A1     1.578145     8B2     1.688737  
       8B1     1.688737     9B1     1.746449     9B2     1.746449  
      18A1     1.954060     4A2     1.954061    10B1     2.003302  
      10B2     2.003302    19A1     2.015034    20A1     2.267744  
      11B2     2.488967    11B1     2.488967    21A1     2.574970  
      22A1     3.619754    12B2     3.863243    12B1     3.863243  
      23A1     4.954627    13B1     5.224683    13B2     5.224683  
       5A2     5.279229    24A1     5.279237    14B2     5.371212  
      14B1     5.371212    25A1     5.490169     6A2     6.361163  
      26A1     6.361198    15B2     6.607849    15B1     6.607849  
      27A1     6.720442     7A2     6.720465    28A1     6.763673  
      16B2     7.008177    16B1     7.008177    29A1     7.491463  
      30A1     8.990846  

    Final Occupation by Irrep:
             A1    A2    B1    B2 
    DOCC [     7,    0,    2,    2 ]
    SOCC [     0,    0,    1,    1 ]

  @DF-UKS Final Energy:  -473.32141055680478

   => Energetics <=

    Nuclear Repulsion Energy =             45.6001688976880857
    One-Electron Energy =                -743.3893552350973550
    Two-Electron Energy =                 249.8470644235043494
    DFT Exchange-Correlation Energy =     -25.4801243048333568
    Empirical Dispersion Energy =           0.0000000000000000
    VV10 Nonlocal Energy =                  0.1008356619335523
    Total Energy =                       -473.3214105568047785

  UHF NO Occupations:
  HONO-2 :    2 B1 1.9979185
  HONO-1 :    3 B2 1.0000000
  HONO-0 :    3 B1 1.0000000
  LUNO+0 :    4 B1 0.0020815
  LUNO+1 :    4 B2 0.0020815
  LUNO+2 :    8 A1 0.0010703
  LUNO+3 :    9 A1 0.0002375


Computation Completed


Properties will be evaluated at   0.000000,   0.000000,   0.000000 [a0]

Properties computed using the SCF density matrix

  Nuclear Dipole Moment: [e a0]
     X:     0.0000      Y:     0.0000      Z:    -0.0083

  Electronic Dipole Moment: [e a0]
     X:     0.0000      Y:     0.0000      Z:    -0.6152

  Dipole Moment: [e a0]
     X:     0.0000      Y:     0.0000      Z:    -0.6235     Total:     0.6235

  Dipole Moment: [D]
     X:     0.0000      Y:     0.0000      Z:    -1.5847     Total:     1.5847


*** tstop() called on bp1-compute00116.data.bp.acrc.priv at Tue Apr 27 17:41:59 2021
Module time:
	user time   =     109.16 seconds =       1.82 minutes
	system time =       5.28 seconds =       0.09 minutes
	total time  =          5 seconds =       0.08 minutes
Total time:
	user time   =     330.22 seconds =       5.50 minutes
	system time =      17.50 seconds =       0.29 minutes
	total time  =         15 seconds =       0.25 minutes

         ----------------------------------------------------------
                                   FINDIF
                     R. A. King and Jonathon Misiewicz
         ---------------------------------------------------------

  Computing gradient from energies.
    Using 3-point formula.
    Energy without displacement: -473.3213982520
    Check energies below for precision!
    Forces are for mass-weighted, symmetry-adapted cartesians (in au).

     Coord      Energy(-1)        Energy(+1)            Force
        0   -473.3213845927   -473.3214105568     -0.0025964057


-------------------------------------------------------------
  ## New Matrix (Symmetry 0) ##
  Irrep: 1 Size: 2 x 3

                 1                   2                   3

    1     0.00000000000000     0.00000000000000    -0.00847769302956
    2     0.00000000000000     0.00000000000000     0.00847769302956




			-----------------------------------------
			 OPTKING 2.0: for geometry optimizations 
			  - R.A. King,  Bethel University        
			-----------------------------------------
	At level 1: Red. Int., RFO, no backsteps, dynamic trust

	Internal coordinates to be generated automatically.
	Detected frag 1 with atoms:  1 2
	---Fragment 1 Bond Connectivity---
	 1 : 2
	 2 : 1

	---Fragment 1 Geometry and Gradient---
	 S           0.0000000000        0.0000000000       -0.9365260748
	 O           0.0000000000        0.0000000000        1.8720123884
	             0.0000000000        0.0000000000       -0.0084776930
	             0.0000000000        0.0000000000        0.0084776930

	Previous optimization step data not found.  Starting new optimization.

	---Fragment 1 Intrafragment Coordinates---
	 - Coordinate -           - BOHR/RAD -       - ANG/DEG -
	 R(1,2)           =         2.808538	       1.486215

	Current energy   :      -473.3213982520

	Generating empirical Hessian (Schlegel '84) for each fragment.
	Taking RFO optimization step.
	Going to follow RFO solution 1.
	Using RFO vector 1.
	Norm of target step-size    0.01041
	Projected energy change by RFO approximation:        -0.0000340651

	Back-transformation to cartesian coordinates...
	Successfully converged to displaced geometry.

	--- Internal Coordinate Step in ANG or DEG, aJ/ANG or AJ/DEG ---
	 ---------------------------------------------------------------------------
	   Coordinate                Previous        Force       Change         New 
	   ----------                --------       ------       ------       ------
	    1 R(1,2)          =      1.486215    -0.069845    -0.005509     1.480706
	 ---------------------------------------------------------------------------
	Successfully symmetrized geometry.

  ==> Convergence Check <==

  Measures of convergence in internal coordinates in au.
  Criteria marked as inactive (o), active & met (*), and active & unmet ( ).
  --------------------------------------------------------------------------------------------- ~
   Step     Total Energy     Delta E     MAX Force     RMS Force      MAX Disp      RMS Disp    ~
  --------------------------------------------------------------------------------------------- ~
    Convergence Criteria    1.00e-06 *    3.00e-04 *             o    1.20e-03 *             o  ~
  --------------------------------------------------------------------------------------------- ~
      1    -473.32139825   -4.73e+02      8.48e-03      8.48e-03 o    1.04e-02      1.04e-02 o  ~
  ---------------------------------------------------------------------------------------------

	Writing optimization data to binary file.
	Structure for next step:
	Cartesian Geometry (in Angstrom)
	    S     0.0000000000   0.0000000000  -0.4928338922
	    O     0.0000000000   0.0000000000   0.9878719283
			--------------------------
			 OPTKING Finished Execution 
			--------------------------

    Structure for next step:
    Molecular point group: c2v
    Full point group: C_inf_v

    Geometry (in Angstrom), charge = 0, multiplicity = 3:

    S            0.000000000000     0.000000000000    -0.493751334953
    O            0.000000000000     0.000000000000     0.986954491415

gradient() will perform gradient computation by finite difference of analytic energies.

         ----------------------------------------------------------
                                   FINDIF
                     R. A. King and Jonathon Misiewicz
         ---------------------------------------------------------

  Using finite-differences of energies to determine gradients.
    Generating geometries for use with 3-point formula.
    Displacement size will be 5.00e-03.
    Number of atoms is 2.
    Number of symmetric SALCs is 1.
    Translations projected? 1. Rotations projected? 1.
    Number of geometries (including reference) is 3.

  //>>>>>>>>>>>>>>>>>>>>>>>>>>>>>>>>>>>//
  //    Loading displacement 1 of 3    //
  //<<<<<<<<<<<<<<<<<<<<<<<<<<<<<<<<<<<//

*** tstart() called on bp1-compute00116.data.bp.acrc.priv
*** at Tue Apr 27 17:41:59 2021

   => Loading Basis Set <=

    Name: CC-PV(T+D)Z
    Role: ORBITAL
    Keyword: BASIS
    atoms 1 entry S          line   788 file /work/zw18965/.conda/envs/p4env/share/psi4/basis/cc-pv_tpd_z.gbs 
    atoms 2 entry O          line   271 file /work/zw18965/.conda/envs/p4env/share/psi4/basis/cc-pv_tpd_z.gbs 


         ---------------------------------------------------------
                                   SCF
               by Justin Turney, Rob Parrish, Andy Simmonett
                          and Daniel G. A. Smith
                              UKS Reference
                       24 Threads, 137329 MiB Core
         ---------------------------------------------------------

  ==> Geometry <==

    Molecular point group: c2v
    Full point group: C_inf_v

    Geometry (in Angstrom), charge = 0, multiplicity = 3:

       Center              X                  Y                   Z               Mass       
    ------------   -----------------  -----------------  -----------------  -----------------
         S            0.000000000000     0.000000000000    -0.493751334953    31.972071174400
         O            0.000000000000     0.000000000000     0.986954491415    15.994914619570

  Running in c2v symmetry.

  Rotational constants: A = ************  B =      0.72119  C =      0.72119 [cm^-1]
  Rotational constants: A = ************  B =  21620.68055  C =  21620.68055 [MHz]
  Nuclear repulsion =   45.744861511010072

  Charge       = 0
  Multiplicity = 3
  Electrons    = 24
  Nalpha       = 13
  Nbeta        = 11

  ==> Algorithm <==

  SCF Algorithm Type is DF.
  DIIS enabled.
  MOM disabled.
  Fractional occupation disabled.
  Guess Type is READ.
  Energy threshold   = 1.00e-08
  Density threshold  = 1.00e-08
  Integral threshold = 0.00e+00

  ==> Primary Basis <==

  Basis Set: CC-PV(T+D)Z
    Blend: CC-PV(T+D)Z
    Number of shells: 23
    Number of basis function: 69
    Number of Cartesian functions: 80
    Spherical Harmonics?: true
    Max angular momentum: 3

  ==> DFT Potential <==

   => Composite Functional: WB97X-V <= 

    wB97X-V Hyb-GGA Exchange-Correlation Functional

    N. Mardirossian and M. Head-Gordon, Phys. Chem. Chem. Phys. 16, 9904 (2014)

    Deriv               =              1
    GGA                 =           TRUE
    Meta                =          FALSE

    Exchange Hybrid     =           TRUE
    MP2 Hybrid          =          FALSE

   => Exchange-Correlation Functionals <=

    1.0000   wB97X-V range-separated functional

   => Exact (HF) Exchange <=

    0.8330            HF,LR [omega = 0.3000]
    0.1670               HF 

   => VV10 Non-Local Parameters <=

    VV10 B              =     6.0000E+00
    VV10 C              =     1.0000E-02

   => Molecular Quadrature <=

    Radial Scheme          =       TREUTLER
    Pruning Scheme         =           FLAT
    Nuclear Scheme         =       TREUTLER

    BS radius alpha        =              1
    Pruning alpha          =              1
    Radial Points          =             75
    Spherical Points       =            302
    Total Points           =          43136
    Total Blocks           =            391
    Max Points             =            256
    Max Functions          =             69

   => Loading Basis Set <=

    Name: (CC-PV(T+D)Z AUX)
    Role: JKFIT
    Keyword: DF_BASIS_SCF
    atoms 1 entry S          line   613 file /work/zw18965/.conda/envs/p4env/share/psi4/basis/cc-pvtz-jkfit.gbs 
    atoms 2 entry O          line   229 file /work/zw18965/.conda/envs/p4env/share/psi4/basis/cc-pvtz-jkfit.gbs 

   => Loading Basis Set <=

    Name: CC-PV(T+D)Z
    Role: ORBITAL
    Keyword: BASIS
    atoms 1 entry S          line   788 file /work/zw18965/.conda/envs/p4env/share/psi4/basis/cc-pv_tpd_z.gbs 
    atoms 2 entry O          line   271 file /work/zw18965/.conda/envs/p4env/share/psi4/basis/cc-pv_tpd_z.gbs 

  Reading orbitals from file 180, no projection.

  ==> Pre-Iterations <==

   -------------------------------------------------------
    Irrep   Nso     Nmo     Nalpha   Nbeta   Ndocc  Nsocc
   -------------------------------------------------------
     A1        30      30       0       0       0       0
     A2         7       7       0       0       0       0
     B1        16      16       0       0       0       0
     B2        16      16       0       0       0       0
   -------------------------------------------------------
    Total      69      69      13      11      11       2
   -------------------------------------------------------

  ==> Integral Setup <==

  ==> DiskDFJK: Density-Fitted J/K Matrices <==

    J tasked:                  Yes
    K tasked:                  Yes
    wK tasked:                 Yes
    Omega:               3.000E-01
    OpenMP threads:             24
    Integrals threads:          24
    Memory [MiB]:           102915
    Algorithm:                Core
    Integral Cache:           NONE
    Schwarz Cutoff:          1E-12
    Fitting Condition:       1E-10

   => Auxiliary Basis Set <=

  Basis Set: (CC-PV(T+D)Z AUX)
    Blend: CC-PVTZ-JKFIT
    Number of shells: 62
    Number of basis function: 200
    Number of Cartesian functions: 241
    Spherical Harmonics?: true
    Max angular momentum: 4

  Cached 100.0% of DFT collocation blocks in 0.080 [GiB].

  Minimum eigenvalue in the overlap matrix is 4.5986787584E-03.
  Using Symmetric Orthogonalization.

  SCF Guess: Orbitals guess was supplied from a previous computation.

  ==> Iterations <==

                           Total Energy        Delta E     RMS |[F,P]|

   @DF-UKS iter   0:  -473.32667353706245   -4.73327e+02   5.05438e-04 
   @DF-UKS iter   1:  -473.32144804728682    5.22549e-03   9.59607e-05 DIIS
   @DF-UKS iter   2:  -473.32144817525261   -1.27966e-07   1.16528e-04 DIIS
   @DF-UKS iter   3:  -473.32145461473471   -6.43948e-06   1.89050e-05 DIIS
   @DF-UKS iter   4:  -473.32145481057137   -1.95837e-07   7.48935e-06 DIIS
   @DF-UKS iter   5:  -473.32145486119919   -5.06278e-08   1.47975e-06 DIIS
   @DF-UKS iter   6:  -473.32145486777324   -6.57406e-09   6.47564e-07 DIIS
   @DF-UKS iter   7:  -473.32145486877363   -1.00039e-09   2.18764e-07 DIIS
   @DF-UKS iter   8:  -473.32145486887373   -1.00101e-10   3.77625e-08 DIIS
   @DF-UKS iter   9:  -473.32145486887794   -4.20641e-12   6.11111e-09 DIIS
  Energy and wave function converged.


  ==> Post-Iterations <==

   @Spin Contamination Metric:   1.100886540E-02
   @S^2 Expected:                2.000000000E+00
   @S^2 Observed:                2.011008865E+00
   @S   Expected:                1.000000000E+00
   @S   Observed:                1.000000000E+00

    Orbital Energies [Eh]
    ---------------------

    Alpha Occupied:                                                       

       1A1   -88.978469     2A1   -19.287159     3A1    -8.129621  
       1B1    -6.084925     1B2    -6.084925     4A1    -6.083621  
       5A1    -1.221438     6A1    -0.808779     2B2    -0.572121  
       2B1    -0.572121     7A1    -0.563389     3B2    -0.362963  
       3B1    -0.362963  

    Alpha Virtual:                                                        

       8A1     0.098515     4B2     0.351267     4B1     0.351267  
       9A1     0.376352     1A2     0.384244    10A1     0.384244  
      11A1     0.401703     5B2     0.486362     5B1     0.486362  
      12A1     0.594256     6B1     0.737381     6B2     0.737381  
      13A1     0.885810    14A1     1.240745    15A1     1.408655  
       2A2     1.408656     7B2     1.479390     7B1     1.479390  
       3A2     1.498442    16A1     1.498443    17A1     1.558610  
       8B2     1.666672     8B1     1.666672     9B1     1.695701  
       9B2     1.695701     4A2     1.919288    18A1     1.919289  
      10B2     1.968094    10B1     1.968094    19A1     1.996681  
      20A1     2.251066    11B2     2.465825    11B1     2.465825  
      21A1     2.560147    22A1     3.605050    12B1     3.807834  
      12B2     3.807834    23A1     4.941712    13B1     5.177545  
      13B2     5.177545     5A2     5.248417    24A1     5.248425  
      14B1     5.347759    14B2     5.347759    25A1     5.477012  
       6A2     6.286203    26A1     6.286241    15B2     6.573720  
      15B1     6.573720    27A1     6.709126     7A2     6.709150  
      28A1     6.750141    16B2     6.997906    16B1     6.997906  
      29A1     7.456749    30A1     8.981051  

    Beta Occupied:                                                        

       1A1   -88.972190     2A1   -19.268528     3A1    -8.123509  
       4A1    -6.079912     1B1    -6.071864     1B2    -6.071864  
       5A1    -1.180692     6A1    -0.735095     7A1    -0.529486  
       2B2    -0.495609     2B1    -0.495609  

    Beta Virtual:                                                         

       3B2    -0.032164     3B1    -0.032164     8A1     0.116633  
       4B2     0.368438     4B1     0.368438     9A1     0.390306  
      10A1     0.415333     1A2     0.434729    11A1     0.434729  
       5B2     0.529906     5B1     0.529906    12A1     0.603772  
       6B2     0.761069     6B1     0.761069    13A1     0.908963  
      14A1     1.257784    15A1     1.444220     2A2     1.444221  
       7B2     1.498239     7B1     1.498239    16A1     1.529929  
       3A2     1.529929    17A1     1.578226     8B2     1.692222  
       8B1     1.692222     9B1     1.746492     9B2     1.746492  
      18A1     1.956349     4A2     1.956350    10B2     2.003489  
      10B1     2.003489    19A1     2.017288    20A1     2.265847  
      11B2     2.491378    11B1     2.491378    21A1     2.580422  
      22A1     3.623937    12B2     3.865308    12B1     3.865308  
      23A1     4.961486    13B1     5.224254    13B2     5.224254  
       5A2     5.280190    24A1     5.280198    14B2     5.371788  
      14B1     5.371788    25A1     5.498488     6A2     6.361841  
      26A1     6.361875    15B2     6.609488    15B1     6.609488  
      27A1     6.720776     7A2     6.720798    28A1     6.772764  
      16B2     7.014625    16B1     7.014625    29A1     7.479953  
      30A1     9.017989  

    Final Occupation by Irrep:
             A1    A2    B1    B2 
    DOCC [     7,    0,    2,    2 ]
    SOCC [     0,    0,    1,    1 ]

  @DF-UKS Final Energy:  -473.32145486887794

   => Energetics <=

    Nuclear Repulsion Energy =             45.7448615110100718
    One-Electron Energy =                -743.6753955927090374
    Two-Electron Energy =                 249.9910794398643645
    DFT Exchange-Correlation Energy =     -25.4828311328275845
    Empirical Dispersion Energy =           0.0000000000000000
    VV10 Nonlocal Energy =                  0.1008309057842526
    Total Energy =                       -473.3214548688778791

  UHF NO Occupations:
  HONO-2 :    2 B1 1.9979381
  HONO-1 :    3 B2 1.0000000
  HONO-0 :    3 B1 1.0000000
  LUNO+0 :    4 B1 0.0020619
  LUNO+1 :    4 B2 0.0020619
  LUNO+2 :    8 A1 0.0010693
  LUNO+3 :    9 A1 0.0002362


Computation Completed


Properties will be evaluated at   0.000000,   0.000000,   0.000000 [a0]

Properties computed using the SCF density matrix

  Nuclear Dipole Moment: [e a0]
     X:     0.0000      Y:     0.0000      Z:    -0.0083

  Electronic Dipole Moment: [e a0]
     X:     0.0000      Y:     0.0000      Z:    -0.6115

  Dipole Moment: [e a0]
     X:     0.0000      Y:     0.0000      Z:    -0.6197     Total:     0.6197

  Dipole Moment: [D]
     X:     0.0000      Y:     0.0000      Z:    -1.5752     Total:     1.5752


*** tstop() called on bp1-compute00116.data.bp.acrc.priv at Tue Apr 27 17:42:02 2021
Module time:
	user time   =      77.33 seconds =       1.29 minutes
	system time =       3.80 seconds =       0.06 minutes
	total time  =          3 seconds =       0.05 minutes
Total time:
	user time   =     407.90 seconds =       6.80 minutes
	system time =      21.32 seconds =       0.36 minutes
	total time  =         18 seconds =       0.30 minutes

  //>>>>>>>>>>>>>>>>>>>>>>>>>>>>>>>>>>>//
  //    Loading displacement 2 of 3    //
  //<<<<<<<<<<<<<<<<<<<<<<<<<<<<<<<<<<<//

*** tstart() called on bp1-compute00116.data.bp.acrc.priv
*** at Tue Apr 27 17:42:02 2021

   => Loading Basis Set <=

    Name: CC-PV(T+D)Z
    Role: ORBITAL
    Keyword: BASIS
    atoms 1 entry S          line   788 file /work/zw18965/.conda/envs/p4env/share/psi4/basis/cc-pv_tpd_z.gbs 
    atoms 2 entry O          line   271 file /work/zw18965/.conda/envs/p4env/share/psi4/basis/cc-pv_tpd_z.gbs 


         ---------------------------------------------------------
                                   SCF
               by Justin Turney, Rob Parrish, Andy Simmonett
                          and Daniel G. A. Smith
                              UKS Reference
                       24 Threads, 137329 MiB Core
         ---------------------------------------------------------

  ==> Geometry <==

    Molecular point group: c2v
    Full point group: C_inf_v

    Geometry (in Angstrom), charge = 0, multiplicity = 3:

       Center              X                  Y                   Z               Mass       
    ------------   -----------------  -----------------  -----------------  -----------------
         S            0.000000000000     0.000000000000    -0.494021547494    31.972071174400
         O            0.000000000000     0.000000000000     0.987494616497    15.994914619570

  Running in c2v symmetry.

  Rotational constants: A = ************  B =      0.72040  C =      0.72040 [cm^-1]
  Rotational constants: A = ************  B =  21597.03551  C =  21597.03551 [MHz]
  Nuclear repulsion =   45.719840668706283

  Charge       = 0
  Multiplicity = 3
  Electrons    = 24
  Nalpha       = 13
  Nbeta        = 11

  ==> Algorithm <==

  SCF Algorithm Type is DF.
  DIIS enabled.
  MOM disabled.
  Fractional occupation disabled.
  Guess Type is READ.
  Energy threshold   = 1.00e-08
  Density threshold  = 1.00e-08
  Integral threshold = 0.00e+00

  ==> Primary Basis <==

  Basis Set: CC-PV(T+D)Z
    Blend: CC-PV(T+D)Z
    Number of shells: 23
    Number of basis function: 69
    Number of Cartesian functions: 80
    Spherical Harmonics?: true
    Max angular momentum: 3

  ==> DFT Potential <==

   => Composite Functional: WB97X-V <= 

    wB97X-V Hyb-GGA Exchange-Correlation Functional

    N. Mardirossian and M. Head-Gordon, Phys. Chem. Chem. Phys. 16, 9904 (2014)

    Deriv               =              1
    GGA                 =           TRUE
    Meta                =          FALSE

    Exchange Hybrid     =           TRUE
    MP2 Hybrid          =          FALSE

   => Exchange-Correlation Functionals <=

    1.0000   wB97X-V range-separated functional

   => Exact (HF) Exchange <=

    0.8330            HF,LR [omega = 0.3000]
    0.1670               HF 

   => VV10 Non-Local Parameters <=

    VV10 B              =     6.0000E+00
    VV10 C              =     1.0000E-02

   => Molecular Quadrature <=

    Radial Scheme          =       TREUTLER
    Pruning Scheme         =           FLAT
    Nuclear Scheme         =       TREUTLER

    BS radius alpha        =              1
    Pruning alpha          =              1
    Radial Points          =             75
    Spherical Points       =            302
    Total Points           =          43136
    Total Blocks           =            391
    Max Points             =            256
    Max Functions          =             69

   => Loading Basis Set <=

    Name: (CC-PV(T+D)Z AUX)
    Role: JKFIT
    Keyword: DF_BASIS_SCF
    atoms 1 entry S          line   613 file /work/zw18965/.conda/envs/p4env/share/psi4/basis/cc-pvtz-jkfit.gbs 
    atoms 2 entry O          line   229 file /work/zw18965/.conda/envs/p4env/share/psi4/basis/cc-pvtz-jkfit.gbs 

   => Loading Basis Set <=

    Name: CC-PV(T+D)Z
    Role: ORBITAL
    Keyword: BASIS
    atoms 1 entry S          line   788 file /work/zw18965/.conda/envs/p4env/share/psi4/basis/cc-pv_tpd_z.gbs 
    atoms 2 entry O          line   271 file /work/zw18965/.conda/envs/p4env/share/psi4/basis/cc-pv_tpd_z.gbs 

  Reading orbitals from file 180, no projection.

  ==> Pre-Iterations <==

   -------------------------------------------------------
    Irrep   Nso     Nmo     Nalpha   Nbeta   Ndocc  Nsocc
   -------------------------------------------------------
     A1        30      30       0       0       0       0
     A2         7       7       0       0       0       0
     B1        16      16       0       0       0       0
     B2        16      16       0       0       0       0
   -------------------------------------------------------
    Total      69      69      13      11      11       2
   -------------------------------------------------------

  ==> Integral Setup <==

  ==> DiskDFJK: Density-Fitted J/K Matrices <==

    J tasked:                  Yes
    K tasked:                  Yes
    wK tasked:                 Yes
    Omega:               3.000E-01
    OpenMP threads:             24
    Integrals threads:          24
    Memory [MiB]:           102915
    Algorithm:                Core
    Integral Cache:           NONE
    Schwarz Cutoff:          1E-12
    Fitting Condition:       1E-10

   => Auxiliary Basis Set <=

  Basis Set: (CC-PV(T+D)Z AUX)
    Blend: CC-PVTZ-JKFIT
    Number of shells: 62
    Number of basis function: 200
    Number of Cartesian functions: 241
    Spherical Harmonics?: true
    Max angular momentum: 4

  Cached 100.0% of DFT collocation blocks in 0.080 [GiB].

  Minimum eigenvalue in the overlap matrix is 4.6088969689E-03.
  Using Symmetric Orthogonalization.

  SCF Guess: Orbitals guess was supplied from a previous computation.

  ==> Iterations <==

                           Total Energy        Delta E     RMS |[F,P]|

   @DF-UKS iter   0:  -473.32068311434068   -4.73321e+02   7.47327e-05 
   @DF-UKS iter   1:  -473.32145039769438   -7.67283e-04   1.41964e-05 DIIS
   @DF-UKS iter   2:  -473.32145039858074   -8.86359e-10   1.73481e-05 DIIS
   @DF-UKS iter   3:  -473.32145054159020   -1.43009e-07   2.77229e-06 DIIS
   @DF-UKS iter   4:  -473.32145054580286   -4.21267e-09   1.10463e-06 DIIS
   @DF-UKS iter   5:  -473.32145054690528   -1.10242e-09   2.18334e-07 DIIS
   @DF-UKS iter   6:  -473.32145054704836   -1.43075e-10   9.54783e-08 DIIS
   @DF-UKS iter   7:  -473.32145054706979   -2.14300e-11   3.23643e-08 DIIS
   @DF-UKS iter   8:  -473.32145054707235   -2.55795e-12   5.59675e-09 DIIS
  Energy and wave function converged.


  ==> Post-Iterations <==

   @Spin Contamination Metric:   1.102362601E-02
   @S^2 Expected:                2.000000000E+00
   @S^2 Observed:                2.011023626E+00
   @S   Expected:                1.000000000E+00
   @S   Observed:                1.000000000E+00

    Orbital Energies [Eh]
    ---------------------

    Alpha Occupied:                                                       

       1A1   -88.978550     2A1   -19.287259     3A1    -8.129678  
       1B1    -6.084983     1B2    -6.084983     4A1    -6.083681  
       5A1    -1.221105     6A1    -0.808905     2B2    -0.571950  
       2B1    -0.571950     7A1    -0.563315     3B1    -0.363097  
       3B2    -0.363097  

    Alpha Virtual:                                                        

       8A1     0.098340     4B2     0.351276     4B1     0.351276  
       9A1     0.376366     1A2     0.384253    10A1     0.384253  
      11A1     0.401638     5B2     0.486152     5B1     0.486152  
      12A1     0.594059     6B1     0.737436     6B2     0.737436  
      13A1     0.885216    14A1     1.240767    15A1     1.408703  
       2A2     1.408704     7B2     1.479393     7B1     1.479393  
       3A2     1.498507    16A1     1.498508    17A1     1.558604  
       8B1     1.666085     8B2     1.666085     9B2     1.695704  
       9B1     1.695704     4A2     1.918894    18A1     1.918895  
      10B2     1.968064    10B1     1.968064    19A1     1.996303  
      20A1     2.251379    11B2     2.465415    11B1     2.465415  
      21A1     2.559210    22A1     3.604319    12B1     3.807435  
      12B2     3.807435    23A1     4.940515    13B2     5.177587  
      13B1     5.177587     5A2     5.248228    24A1     5.248236  
      14B1     5.347634    14B2     5.347634    25A1     5.475557  
       6A2     6.286039    26A1     6.286077    15B1     6.573408  
      15B2     6.573408    27A1     6.709069     7A2     6.709094  
      28A1     6.748549    16B1     6.996797    16B2     6.996797  
      29A1     7.458763    30A1     8.976294  

    Beta Occupied:                                                        

       1A1   -88.972272     2A1   -19.268616     3A1    -8.123566  
       4A1    -6.079973     1B1    -6.071922     1B2    -6.071922  
       5A1    -1.180315     6A1    -0.735226     7A1    -0.529426  
       2B2    -0.495379     2B1    -0.495379  

    Beta Virtual:                                                         

       3B1    -0.032299     3B2    -0.032299     8A1     0.116476  
       4B2     0.368441     4B1     0.368441     9A1     0.390311  
      10A1     0.415251     1A2     0.434730    11A1     0.434730  
       5B2     0.529685     5B1     0.529685    12A1     0.603596  
       6B1     0.761141     6B2     0.761141    13A1     0.908356  
      14A1     1.257821    15A1     1.444277     2A2     1.444278  
       7B2     1.498244     7B1     1.498244    16A1     1.529987  
       3A2     1.529988    17A1     1.578211     8B1     1.691619  
       8B2     1.691619     9B1     1.746484     9B2     1.746484  
      18A1     1.955953     4A2     1.955954    10B2     2.003457  
      10B1     2.003457    19A1     2.016902    20A1     2.266165  
      11B2     2.490965    11B1     2.490965    21A1     2.579485  
      22A1     3.623210    12B1     3.864950    12B2     3.864950  
      23A1     4.960306    13B2     5.224328    13B1     5.224328  
       5A2     5.280024    24A1     5.280032    14B1     5.371686  
      14B2     5.371686    25A1     5.497036     6A2     6.361724  
      26A1     6.361758    15B2     6.609202    15B1     6.609202  
      27A1     6.720717     7A2     6.720740    28A1     6.771185  
      16B1     7.013513    16B2     7.013513    29A1     7.481969  
      30A1     9.013268  

    Final Occupation by Irrep:
             A1    A2    B1    B2 
    DOCC [     7,    0,    2,    2 ]
    SOCC [     0,    0,    1,    1 ]

  @DF-UKS Final Energy:  -473.32145054707235

   => Energetics <=

    Nuclear Repulsion Energy =             45.7198406687062828
    One-Electron Energy =                -743.6259418544836990
    Two-Electron Energy =                 249.9661812945899158
    DFT Exchange-Correlation Energy =     -25.4823623805500041
    Empirical Dispersion Energy =           0.0000000000000000
    VV10 Nonlocal Energy =                  0.1008317246652028
    Total Energy =                       -473.3214505470722884

  UHF NO Occupations:
  HONO-2 :    2 B1 1.9979347
  HONO-1 :    3 B2 1.0000000
  HONO-0 :    3 B1 1.0000000
  LUNO+0 :    4 B1 0.0020653
  LUNO+1 :    4 B2 0.0020653
  LUNO+2 :    8 A1 0.0010694
  LUNO+3 :    9 A1 0.0002364


Computation Completed


Properties will be evaluated at   0.000000,   0.000000,   0.000000 [a0]

Properties computed using the SCF density matrix

  Nuclear Dipole Moment: [e a0]
     X:     0.0000      Y:     0.0000      Z:    -0.0083

  Electronic Dipole Moment: [e a0]
     X:     0.0000      Y:     0.0000      Z:    -0.6121

  Dipole Moment: [e a0]
     X:     0.0000      Y:     0.0000      Z:    -0.6204     Total:     0.6204

  Dipole Moment: [D]
     X:     0.0000      Y:     0.0000      Z:    -1.5769     Total:     1.5769


*** tstop() called on bp1-compute00116.data.bp.acrc.priv at Tue Apr 27 17:42:06 2021
Module time:
	user time   =      75.08 seconds =       1.25 minutes
	system time =       3.62 seconds =       0.06 minutes
	total time  =          4 seconds =       0.07 minutes
Total time:
	user time   =     483.11 seconds =       8.05 minutes
	system time =      24.95 seconds =       0.42 minutes
	total time  =         22 seconds =       0.37 minutes

  //>>>>>>>>>>>>>>>>>>>>>>>>>>>>>>>>>>>//
  //    Loading displacement 3 of 3    //
  //<<<<<<<<<<<<<<<<<<<<<<<<<<<<<<<<<<<//

*** tstart() called on bp1-compute00116.data.bp.acrc.priv
*** at Tue Apr 27 17:42:06 2021

   => Loading Basis Set <=

    Name: CC-PV(T+D)Z
    Role: ORBITAL
    Keyword: BASIS
    atoms 1 entry S          line   788 file /work/zw18965/.conda/envs/p4env/share/psi4/basis/cc-pv_tpd_z.gbs 
    atoms 2 entry O          line   271 file /work/zw18965/.conda/envs/p4env/share/psi4/basis/cc-pv_tpd_z.gbs 


         ---------------------------------------------------------
                                   SCF
               by Justin Turney, Rob Parrish, Andy Simmonett
                          and Daniel G. A. Smith
                              UKS Reference
                       24 Threads, 137329 MiB Core
         ---------------------------------------------------------

  ==> Geometry <==

    Molecular point group: c2v
    Full point group: C_inf_v

    Geometry (in Angstrom), charge = 0, multiplicity = 3:

       Center              X                  Y                   Z               Mass       
    ------------   -----------------  -----------------  -----------------  -----------------
         S            0.000000000000     0.000000000000    -0.493481122413    31.972071174400
         O            0.000000000000     0.000000000000     0.986414366333    15.994914619570

  Running in c2v symmetry.

  Rotational constants: A = ************  B =      0.72198  C =      0.72198 [cm^-1]
  Rotational constants: A = ************  B =  21644.36445  C =  21644.36445 [MHz]
  Nuclear repulsion =   45.769909754343210

  Charge       = 0
  Multiplicity = 3
  Electrons    = 24
  Nalpha       = 13
  Nbeta        = 11

  ==> Algorithm <==

  SCF Algorithm Type is DF.
  DIIS enabled.
  MOM disabled.
  Fractional occupation disabled.
  Guess Type is READ.
  Energy threshold   = 1.00e-08
  Density threshold  = 1.00e-08
  Integral threshold = 0.00e+00

  ==> Primary Basis <==

  Basis Set: CC-PV(T+D)Z
    Blend: CC-PV(T+D)Z
    Number of shells: 23
    Number of basis function: 69
    Number of Cartesian functions: 80
    Spherical Harmonics?: true
    Max angular momentum: 3

  ==> DFT Potential <==

   => Composite Functional: WB97X-V <= 

    wB97X-V Hyb-GGA Exchange-Correlation Functional

    N. Mardirossian and M. Head-Gordon, Phys. Chem. Chem. Phys. 16, 9904 (2014)

    Deriv               =              1
    GGA                 =           TRUE
    Meta                =          FALSE

    Exchange Hybrid     =           TRUE
    MP2 Hybrid          =          FALSE

   => Exchange-Correlation Functionals <=

    1.0000   wB97X-V range-separated functional

   => Exact (HF) Exchange <=

    0.8330            HF,LR [omega = 0.3000]
    0.1670               HF 

   => VV10 Non-Local Parameters <=

    VV10 B              =     6.0000E+00
    VV10 C              =     1.0000E-02

   => Molecular Quadrature <=

    Radial Scheme          =       TREUTLER
    Pruning Scheme         =           FLAT
    Nuclear Scheme         =       TREUTLER

    BS radius alpha        =              1
    Pruning alpha          =              1
    Radial Points          =             75
    Spherical Points       =            302
    Total Points           =          43136
    Total Blocks           =            391
    Max Points             =            256
    Max Functions          =             69

   => Loading Basis Set <=

    Name: (CC-PV(T+D)Z AUX)
    Role: JKFIT
    Keyword: DF_BASIS_SCF
    atoms 1 entry S          line   613 file /work/zw18965/.conda/envs/p4env/share/psi4/basis/cc-pvtz-jkfit.gbs 
    atoms 2 entry O          line   229 file /work/zw18965/.conda/envs/p4env/share/psi4/basis/cc-pvtz-jkfit.gbs 

   => Loading Basis Set <=

    Name: CC-PV(T+D)Z
    Role: ORBITAL
    Keyword: BASIS
    atoms 1 entry S          line   788 file /work/zw18965/.conda/envs/p4env/share/psi4/basis/cc-pv_tpd_z.gbs 
    atoms 2 entry O          line   271 file /work/zw18965/.conda/envs/p4env/share/psi4/basis/cc-pv_tpd_z.gbs 

  Reading orbitals from file 180, no projection.

  ==> Pre-Iterations <==

   -------------------------------------------------------
    Irrep   Nso     Nmo     Nalpha   Nbeta   Ndocc  Nsocc
   -------------------------------------------------------
     A1        30      30       0       0       0       0
     A2         7       7       0       0       0       0
     B1        16      16       0       0       0       0
     B2        16      16       0       0       0       0
   -------------------------------------------------------
    Total      69      69      13      11      11       2
   -------------------------------------------------------

  ==> Integral Setup <==

  ==> DiskDFJK: Density-Fitted J/K Matrices <==

    J tasked:                  Yes
    K tasked:                  Yes
    wK tasked:                 Yes
    Omega:               3.000E-01
    OpenMP threads:             24
    Integrals threads:          24
    Memory [MiB]:           102915
    Algorithm:                Core
    Integral Cache:           NONE
    Schwarz Cutoff:          1E-12
    Fitting Condition:       1E-10

   => Auxiliary Basis Set <=

  Basis Set: (CC-PV(T+D)Z AUX)
    Blend: CC-PVTZ-JKFIT
    Number of shells: 62
    Number of basis function: 200
    Number of Cartesian functions: 241
    Spherical Harmonics?: true
    Max angular momentum: 4

  Cached 100.0% of DFT collocation blocks in 0.080 [GiB].

  Minimum eigenvalue in the overlap matrix is 4.5884834208E-03.
  Using Symmetric Orthogonalization.

  SCF Guess: Orbitals guess was supplied from a previous computation.

  ==> Iterations <==

                           Total Energy        Delta E     RMS |[F,P]|

   @DF-UKS iter   0:  -473.32222653957803   -4.73322e+02   7.48912e-05 
   @DF-UKS iter   1:  -473.32145764242188    7.68897e-04   1.41826e-05 DIIS
   @DF-UKS iter   2:  -473.32145764403896   -1.61708e-09   1.72981e-05 DIIS
   @DF-UKS iter   3:  -473.32145778609589   -1.42057e-07   2.76562e-06 DIIS
   @DF-UKS iter   4:  -473.32145779028940   -4.19351e-09   1.10403e-06 DIIS
   @DF-UKS iter   5:  -473.32145779139142   -1.10202e-09   2.18118e-07 DIIS
   @DF-UKS iter   6:  -473.32145779153404   -1.42620e-10   9.53120e-08 DIIS
   @DF-UKS iter   7:  -473.32145779155593   -2.18847e-11   3.22638e-08 DIIS
   @DF-UKS iter   8:  -473.32145779155826   -2.33058e-12   5.55914e-09 DIIS
  Energy and wave function converged.


  ==> Post-Iterations <==

   @Spin Contamination Metric:   1.099409988E-02
   @S^2 Expected:                2.000000000E+00
   @S^2 Observed:                2.010994100E+00
   @S   Expected:                1.000000000E+00
   @S   Observed:                1.000000000E+00

    Orbital Energies [Eh]
    ---------------------

    Alpha Occupied:                                                       

       1A1   -88.978386     2A1   -19.287059     3A1    -8.129564  
       1B1    -6.084867     1B2    -6.084867     4A1    -6.083561  
       5A1    -1.221771     6A1    -0.808653     2B1    -0.572293  
       2B2    -0.572293     7A1    -0.563464     3B1    -0.362829  
       3B2    -0.362829  

    Alpha Virtual:                                                        

       8A1     0.098689     4B2     0.351257     4B1     0.351257  
       9A1     0.376337     1A2     0.384235    10A1     0.384235  
      11A1     0.401768     5B1     0.486573     5B2     0.486573  
      12A1     0.594454     6B2     0.737327     6B1     0.737327  
      13A1     0.886406    14A1     1.240724    15A1     1.408607  
       2A2     1.408608     7B1     1.479387     7B2     1.479387  
       3A2     1.498377    16A1     1.498378    17A1     1.558617  
       8B1     1.667259     8B2     1.667259     9B1     1.695698  
       9B2     1.695698     4A2     1.919683    18A1     1.919684  
      10B2     1.968123    10B1     1.968123    19A1     1.997058  
      20A1     2.250758    11B2     2.466234    11B1     2.466234  
      21A1     2.561083    22A1     3.605782    12B2     3.808233  
      12B1     3.808233    23A1     4.942907    13B1     5.177503  
      13B2     5.177503     5A2     5.248607    24A1     5.248615  
      14B1     5.347885    14B2     5.347885    25A1     5.478475  
       6A2     6.286368    26A1     6.286405    15B1     6.574033  
      15B2     6.574033    27A1     6.709183     7A2     6.709208  
      28A1     6.751737    16B2     6.999014    16B1     6.999014  
      29A1     7.454723    30A1     8.985826  

    Beta Occupied:                                                        

       1A1   -88.972109     2A1   -19.268439     3A1    -8.123452  
       4A1    -6.079851     1B1    -6.071806     1B2    -6.071806  
       5A1    -1.181070     6A1    -0.734963     7A1    -0.529546  
       2B1    -0.495839     2B2    -0.495839  

    Beta Virtual:                                                         

       3B2    -0.032029     3B1    -0.032029     8A1     0.116789  
       4B2     0.368435     4B1     0.368435     9A1     0.390300  
      10A1     0.415415     1A2     0.434729    11A1     0.434729  
       5B1     0.530128     5B2     0.530128    12A1     0.603949  
       6B2     0.760998     6B1     0.760998    13A1     0.909571  
      14A1     1.257746    15A1     1.444163     2A2     1.444164  
       7B1     1.498234     7B2     1.498234    16A1     1.529870  
       3A2     1.529871    17A1     1.578242     8B1     1.692825  
       8B2     1.692825     9B1     1.746499     9B2     1.746499  
      18A1     1.956744     4A2     1.956745    10B2     2.003522  
      10B1     2.003522    19A1     2.017672    20A1     2.265533  
      11B2     2.491789    11B1     2.491789    21A1     2.581357  
      22A1     3.624667    12B2     3.865667    12B1     3.865667  
      23A1     4.962665    13B1     5.224179    13B2     5.224179  
       5A2     5.280357    24A1     5.280365    14B1     5.371891  
      14B2     5.371891    25A1     5.499947     6A2     6.361958  
      26A1     6.361992    15B1     6.609776    15B2     6.609776  
      27A1     6.720835     7A2     6.720856    28A1     6.774347  
      16B2     7.015737    16B1     7.015737    29A1     7.477924  
      30A1     9.022728  

    Final Occupation by Irrep:
             A1    A2    B1    B2 
    DOCC [     7,    0,    2,    2 ]
    SOCC [     0,    0,    1,    1 ]

  @DF-UKS Final Energy:  -473.32145779155826

   => Energetics <=

    Nuclear Repulsion Energy =             45.7699097543432103
    One-Electron Energy =                -743.7249005326701763
    Two-Electron Energy =                 250.0160036442019873
    DFT Exchange-Correlation Energy =     -25.4833007450587381
    Empirical Dispersion Energy =           0.0000000000000000
    VV10 Nonlocal Energy =                  0.1008300876254586
    Total Energy =                       -473.3214577915582595

  UHF NO Occupations:
  HONO-2 :    2 B1 1.9979415
  HONO-1 :    3 B1 1.0000000
  HONO-0 :    3 B2 1.0000000
  LUNO+0 :    4 B1 0.0020585
  LUNO+1 :    4 B2 0.0020585
  LUNO+2 :    8 A1 0.0010691
  LUNO+3 :    9 A1 0.0002360


Computation Completed


Properties will be evaluated at   0.000000,   0.000000,   0.000000 [a0]

Properties computed using the SCF density matrix

  Nuclear Dipole Moment: [e a0]
     X:     0.0000      Y:     0.0000      Z:    -0.0083

  Electronic Dipole Moment: [e a0]
     X:     0.0000      Y:     0.0000      Z:    -0.6108

  Dipole Moment: [e a0]
     X:     0.0000      Y:     0.0000      Z:    -0.6191     Total:     0.6191

  Dipole Moment: [D]
     X:     0.0000      Y:     0.0000      Z:    -1.5736     Total:     1.5736


*** tstop() called on bp1-compute00116.data.bp.acrc.priv at Tue Apr 27 17:42:09 2021
Module time:
	user time   =      72.15 seconds =       1.20 minutes
	system time =       3.35 seconds =       0.06 minutes
	total time  =          3 seconds =       0.05 minutes
Total time:
[...]

  Dipole Moment: [D]
     X:     0.0000      Y:     0.0000      Z:    -1.5725     Total:     1.5725


*** tstop() called on bp1-compute00116.data.bp.acrc.priv at Tue Apr 27 17:42:44 2021
Module time:
	user time   =     124.13 seconds =       2.07 minutes
	system time =       5.90 seconds =       0.10 minutes
	total time  =          5 seconds =       0.08 minutes
Total time:
	user time   =    1353.63 seconds =      22.56 minutes
	system time =      66.55 seconds =       1.11 minutes
	total time  =         60 seconds =       1.00 minutes

  //>>>>>>>>>>>>>>>>>>>>>>>>>>>>>>>>>>>//
  //    Loading displacement 3 of 3    //
  //<<<<<<<<<<<<<<<<<<<<<<<<<<<<<<<<<<<//

*** tstart() called on bp1-compute00116.data.bp.acrc.priv
*** at Tue Apr 27 17:42:44 2021

   => Loading Basis Set <=

    Name: CC-PV(T+D)Z
    Role: ORBITAL
    Keyword: BASIS
    atoms 1 entry S          line   788 file /work/zw18965/.conda/envs/p4env/share/psi4/basis/cc-pv_tpd_z.gbs 
    atoms 2 entry O          line   271 file /work/zw18965/.conda/envs/p4env/share/psi4/basis/cc-pv_tpd_z.gbs 


         ---------------------------------------------------------
                                   SCF
               by Justin Turney, Rob Parrish, Andy Simmonett
                          and Daniel G. A. Smith
                              UKS Reference
                       24 Threads, 137329 MiB Core
         ---------------------------------------------------------

  ==> Geometry <==

    Molecular point group: c2v
    Full point group: C_inf_v

    Geometry (in Angstrom), charge = 0, multiplicity = 3:

       Center              X                  Y                   Z               Mass       
    ------------   -----------------  -----------------  -----------------  -----------------
         S            0.000000000000     0.000000000000    -0.492770244348    31.972071174400
         O            0.000000000000     0.000000000000     0.984993399442    15.994914619570

  Running in c2v symmetry.

  Rotational constants: A = ************  B =      0.72406  C =      0.72406 [cm^-1]
  Rotational constants: A = ************  B =  21706.85850  C =  21706.85850 [MHz]
  Nuclear repulsion =   45.835938142369010

  Charge       = 0
  Multiplicity = 3
  Electrons    = 24
  Nalpha       = 13
  Nbeta        = 11

  ==> Algorithm <==

  SCF Algorithm Type is DF.
  DIIS enabled.
  MOM disabled.
  Fractional occupation disabled.
  Guess Type is SAD.
  Energy threshold   = 1.00e-10
  Density threshold  = 1.00e-10
  Integral threshold = 0.00e+00

  ==> Primary Basis <==

  Basis Set: CC-PV(T+D)Z
    Blend: CC-PV(T+D)Z
    Number of shells: 23
    Number of basis function: 69
    Number of Cartesian functions: 80
    Spherical Harmonics?: true
    Max angular momentum: 3

  ==> DFT Potential <==

   => Composite Functional: WB97X-V <= 

    wB97X-V Hyb-GGA Exchange-Correlation Functional

    N. Mardirossian and M. Head-Gordon, Phys. Chem. Chem. Phys. 16, 9904 (2014)

    Deriv               =              1
    GGA                 =           TRUE
    Meta                =          FALSE

    Exchange Hybrid     =           TRUE
    MP2 Hybrid          =          FALSE

   => Exchange-Correlation Functionals <=

    1.0000   wB97X-V range-separated functional

   => Exact (HF) Exchange <=

    0.8330            HF,LR [omega = 0.3000]
    0.1670               HF 

   => VV10 Non-Local Parameters <=

    VV10 B              =     6.0000E+00
    VV10 C              =     1.0000E-02

   => Molecular Quadrature <=

    Radial Scheme          =       TREUTLER
    Pruning Scheme         =           FLAT
    Nuclear Scheme         =       TREUTLER

    BS radius alpha        =              1
    Pruning alpha          =              1
    Radial Points          =             75
    Spherical Points       =            302
    Total Points           =          43136
    Total Blocks           =            391
    Max Points             =            256
    Max Functions          =             69

   => Loading Basis Set <=

    Name: (CC-PV(T+D)Z AUX)
    Role: JKFIT
    Keyword: DF_BASIS_SCF
    atoms 1 entry S          line   613 file /work/zw18965/.conda/envs/p4env/share/psi4/basis/cc-pvtz-jkfit.gbs 
    atoms 2 entry O          line   229 file /work/zw18965/.conda/envs/p4env/share/psi4/basis/cc-pvtz-jkfit.gbs 

  ==> Pre-Iterations <==

   -------------------------------------------------------
    Irrep   Nso     Nmo     Nalpha   Nbeta   Ndocc  Nsocc
   -------------------------------------------------------
     A1        30      30       0       0       0       0
     A2         7       7       0       0       0       0
     B1        16      16       0       0       0       0
     B2        16      16       0       0       0       0
   -------------------------------------------------------
    Total      69      69      13      11      11       2
   -------------------------------------------------------

  ==> Integral Setup <==

  ==> DiskDFJK: Density-Fitted J/K Matrices <==

    J tasked:                  Yes
    K tasked:                  Yes
    wK tasked:                 Yes
    Omega:               3.000E-01
    OpenMP threads:             24
    Integrals threads:          24
    Memory [MiB]:           102915
    Algorithm:                Core
    Integral Cache:           NONE
    Schwarz Cutoff:          1E-12
    Fitting Condition:       1E-10

   => Auxiliary Basis Set <=

  Basis Set: (CC-PV(T+D)Z AUX)
    Blend: CC-PVTZ-JKFIT
    Number of shells: 62
    Number of basis function: 200
    Number of Cartesian functions: 241
    Spherical Harmonics?: true
    Max angular momentum: 4

  Cached 100.0% of DFT collocation blocks in 0.080 [GiB].

  Minimum eigenvalue in the overlap matrix is 4.5617704060E-03.
  Using Symmetric Orthogonalization.

  SCF Guess: Superposition of Atomic Densities via on-the-fly atomic UHF.

  ==> Iterations <==

                           Total Energy        Delta E     RMS |[F,P]|

   @DF-UKS iter SAD:  -472.88733403194135   -4.72887e+02   0.00000e+00 
   @DF-UKS iter   1:  -473.24343650939358   -3.56102e-01   1.18473e-02 DIIS
   @DF-UKS iter   2:  -473.16781547361967    7.56210e-02   1.70513e-02 DIIS
   @DF-UKS iter   3:  -473.32013688655479   -1.52321e-01   1.33402e-03 DIIS
   @DF-UKS iter   4:  -473.32123915442446   -1.10227e-03   3.72436e-04 DIIS
   @DF-UKS iter   5:  -473.32143068840594   -1.91534e-04   1.04522e-04 DIIS
   @DF-UKS iter   6:  -473.32145367409407   -2.29857e-05   4.03210e-05 DIIS
   @DF-UKS iter   7:  -473.32145821179728   -4.53770e-06   1.67422e-05 DIIS
   @DF-UKS iter   8:  -473.32145869564226   -4.83845e-07   5.73559e-06 DIIS
   @DF-UKS iter   9:  -473.32145874750591   -5.18637e-08   7.80748e-07 DIIS
   @DF-UKS iter  10:  -473.32145874869639   -1.19047e-09   1.83724e-07 DIIS
   @DF-UKS iter  11:  -473.32145874878171   -8.53220e-11   7.64012e-08 DIIS
   @DF-UKS iter  12:  -473.32145874878938   -7.67386e-12   1.28756e-08 DIIS
   @DF-UKS iter  13:  -473.32145874878972   -3.41061e-13   5.18996e-09 DIIS
   @DF-UKS iter  14:  -473.32145874879018   -4.54747e-13   5.70985e-10 DIIS
   @DF-UKS iter  15:  -473.32145874879006    1.13687e-13   1.06645e-10 DIIS
   @DF-UKS iter  16:  -473.32145874879012   -5.68434e-14   2.41065e-11 DIIS
  Energy and wave function converged.


  ==> Post-Iterations <==

   @Spin Contamination Metric:   1.095522638E-02
   @S^2 Expected:                2.000000000E+00
   @S^2 Observed:                2.010955226E+00
   @S   Expected:                1.000000000E+00
   @S   Observed:                1.000000000E+00

    Orbital Energies [Eh]
    ---------------------

    Alpha Occupied:                                                       

       1A1   -88.978170     2A1   -19.286797     3A1    -8.129413  
       1B1    -6.084713     1B2    -6.084713     4A1    -6.083402  
       5A1    -1.222651     6A1    -0.808322     2B2    -0.572747  
       2B1    -0.572747     7A1    -0.563660     3B1    -0.362476  
       3B2    -0.362476  

    Alpha Virtual:                                                        

       8A1     0.099145     4B1     0.351232     4B2     0.351232  
       9A1     0.376297     1A2     0.384211    10A1     0.384211  
      11A1     0.401939     5B1     0.487128     5B2     0.487128  
      12A1     0.594977     6B2     0.737182     6B1     0.737182  
      13A1     0.887981    14A1     1.240666    15A1     1.408482  
       2A2     1.408483     7B1     1.479380     7B2     1.479380  
       3A2     1.498206    16A1     1.498207    17A1     1.558637  
       8B1     1.668806     8B2     1.668806     9B1     1.695689  
       9B2     1.695689     4A2     1.920723    18A1     1.920724  
      10B1     1.968202    10B2     1.968202    19A1     1.998044  
      20A1     2.249964    11B2     2.467303    11B1     2.467303  
      21A1     2.563537    22A1     3.607721    12B2     3.809288  
      12B1     3.809288    23A1     4.946044    13B2     5.177391  
      13B1     5.177391     5A2     5.249106    24A1     5.249114  
      14B2     5.348223    14B1     5.348223    25A1     5.482358  
       6A2     6.286801    26A1     6.286839    15B2     6.574864  
      15B1     6.574864    27A1     6.709335     7A2     6.709359  
      28A1     6.755958    16B1     7.001931    16B2     7.001931  
      29A1     7.449332    30A1     8.998464  

    Beta Occupied:                                                        

       1A1   -88.971893     2A1   -19.268206     3A1    -8.123300  
       4A1    -6.079691     1B1    -6.071653     1B2    -6.071653  
       5A1    -1.182067     6A1    -0.734617     7A1    -0.529703  
       2B1    -0.496446     2B2    -0.496446  

    Beta Virtual:                                                         

       3B1    -0.031673     3B2    -0.031673     8A1     0.117200  
       4B2     0.368428     4B1     0.368428     9A1     0.390283  
      10A1     0.415631     1A2     0.434727    11A1     0.434727  
       5B1     0.530713     5B2     0.530713    12A1     0.604417  
       6B1     0.760809     6B2     0.760809    13A1     0.911179  
      14A1     1.257647    15A1     1.444014     2A2     1.444015  
       7B1     1.498221     7B2     1.498221    16A1     1.529718  
       3A2     1.529719    17A1     1.578287     8B1     1.694413  
       8B2     1.694413     9B1     1.746518     9B2     1.746518  
      18A1     1.957787     4A2     1.957788    10B2     2.003608  
      10B1     2.003608    19A1     2.018678    20A1     2.264728  
      11B1     2.492867    11B2     2.492867    21A1     2.583812  
      22A1     3.626597    12B1     3.866615    12B2     3.866615  
      23A1     4.965759    13B1     5.223981    13B2     5.223981  
       5A2     5.280795    24A1     5.280803    14B1     5.372168  
      14B2     5.372168    25A1     5.503819     6A2     6.362266  
      26A1     6.362300    15B1     6.610540    15B2     6.610540  
      27A1     6.720991     7A2     6.721012    28A1     6.778533  
      16B1     7.018662    16B2     7.018662    29A1     7.472525  
      30A1     9.035274  

    Final Occupation by Irrep:
             A1    A2    B1    B2 
    DOCC [     7,    0,    2,    2 ]
    SOCC [     0,    0,    1,    1 ]

  @DF-UKS Final Energy:  -473.32145874879012

   => Energetics <=

    Nuclear Repulsion Energy =             45.8359381423690095
    One-Electron Energy =                -743.8553807213259006
    Two-Electron Energy =                 250.0816959721983892
    DFT Exchange-Correlation Energy =     -25.4845400802868127
    Empirical Dispersion Energy =           0.0000000000000000
    VV10 Nonlocal Energy =                  0.1008279382551847
    Total Energy =                       -473.3214587487900644

  UHF NO Occupations:
  HONO-2 :    2 B2 1.9979505
  HONO-1 :    3 B1 1.0000000
  HONO-0 :    3 B2 1.0000000
  LUNO+0 :    4 B2 0.0020495
  LUNO+1 :    4 B1 0.0020495
  LUNO+2 :    8 A1 0.0010687
  LUNO+3 :    9 A1 0.0002354


Computation Completed


Properties will be evaluated at   0.000000,   0.000000,   0.000000 [a0]

Properties computed using the SCF density matrix

  Nuclear Dipole Moment: [e a0]
     X:     0.0000      Y:     0.0000      Z:    -0.0083

  Electronic Dipole Moment: [e a0]
     X:     0.0000      Y:     0.0000      Z:    -0.6091

  Dipole Moment: [e a0]
     X:     0.0000      Y:     0.0000      Z:    -0.6174     Total:     0.6174

  Dipole Moment: [D]
     X:     0.0000      Y:     0.0000      Z:    -1.5692     Total:     1.5692


*** tstop() called on bp1-compute00116.data.bp.acrc.priv at Tue Apr 27 17:42:49 2021
Module time:
	user time   =     123.60 seconds =       2.06 minutes
	system time =       5.78 seconds =       0.10 minutes
	total time  =          5 seconds =       0.08 minutes
Total time:
	user time   =    1477.36 seconds =      24.62 minutes
	system time =      72.34 seconds =       1.21 minutes
	total time  =         65 seconds =       1.08 minutes

         ----------------------------------------------------------
                                   FINDIF
                     R. A. King and Jonathon Misiewicz
         ---------------------------------------------------------

  Computing second-derivative from energies using projected, 
  symmetry-adapted, cartesian coordinates.

  3 energies passed in, including the reference geometry.
    Using 3-point formula.
    Energy without displacement: -473.3214595389
    Check energies below for precision!
    0: -1 :      -473.3214589125
    0: 1  :      -473.3214587488

-------------------------------------------------------------


  ==> Harmonic Vibrational Analysis <==

  non-mass-weighted Hessian:       Symmetric? True   Hermitian? True   Lin Dep Dim?  5 (0)
  projection of translations (True) and rotations (True) removed 5 degrees of freedom (5)
  total projector:                 Symmetric? True   Hermitian? True   Lin Dep Dim?  5 (5)
  mass-weighted Hessian:           Symmetric? True   Hermitian? True   Lin Dep Dim?  5 (0)
  pre-proj  low-frequency mode:    0.0000i [cm^-1]
  pre-proj  low-frequency mode:    0.0000  [cm^-1]
  pre-proj  low-frequency mode:    0.0000  [cm^-1]
  pre-proj  low-frequency mode:    0.0000  [cm^-1]
  pre-proj  low-frequency mode:    0.0000  [cm^-1]
  pre-proj  all modes:['0.0000i' '0.0000' '0.0000' '0.0000' '0.0000' '1223.6189']
  projected mass-weighted Hessian: Symmetric? True   Hermitian? True   Lin Dep Dim?  5 (5)
  post-proj low-frequency mode:    0.0000i [cm^-1] (TR)
  post-proj low-frequency mode:    0.0000  [cm^-1] (TR)
  post-proj low-frequency mode:    0.0000  [cm^-1] (TR)
  post-proj low-frequency mode:    0.0000  [cm^-1] (TR)
  post-proj low-frequency mode:    0.0000  [cm^-1] (TR)
  post-proj  all modes:['0.0000i' '0.0000' '0.0000' '0.0000' '0.0000' '1223.6189']

  Vibration                       6           
  Freq [cm^-1]                1223.6189       
  Irrep                           A1          
  Reduced mass [u]             19.1932        
  Force const [mDyne/A]        16.9313        
  Turning point v=0 [a0]        0.0716        
  RMS dev v=0 [a0 u^1/2]        0.2218        
  Char temp [K]               1760.5152       
  ----------------------------------------------------------------------------------
      1   S                0.00  0.00 -0.45   
      2   O                0.00  0.00  0.89   

  ==> Thermochemistry Components <==

  Entropy, S
    Electronic S            2.183 [cal/(mol K)]        9.134 [J/(mol K)]       0.00347910 [mEh/K] (multiplicity = 3)
    Translational S        37.528 [cal/(mol K)]      157.018 [J/(mol K)]       0.05980487 [mEh/K] (mol. weight = 47.9670 [u], P = 101325.00 [Pa])
    Rotational S           13.230 [cal/(mol K)]       55.356 [J/(mol K)]       0.02108392 [mEh/K] (symmetry no. = 1)
    Vibrational S           0.038 [cal/(mol K)]        0.157 [J/(mol K)]       0.00005977 [mEh/K]
  Total S                  52.979 [cal/(mol K)]      221.665 [J/(mol K)]       0.08442765 [mEh/K]
  Correction S              0.000 [cal/(mol K)]        0.000 [J/(mol K)]       0.00000000 [mEh/K]

  Constant volume heat capacity, Cv
    Electronic Cv           0.000 [cal/(mol K)]        0.000 [J/(mol K)]       0.00000000 [mEh/K]
    Translational Cv        2.981 [cal/(mol K)]       12.472 [J/(mol K)]       0.00475022 [mEh/K]
    Rotational Cv           1.987 [cal/(mol K)]        8.314 [J/(mol K)]       0.00316681 [mEh/K]
    Vibrational Cv          0.190 [cal/(mol K)]        0.795 [J/(mol K)]       0.00030268 [mEh/K]
  Total Cv                  5.158 [cal/(mol K)]       21.581 [J/(mol K)]       0.00821971 [mEh/K]
  Correction Cv             0.000 [cal/(mol K)]        0.000 [J/(mol K)]       0.00000000 [mEh/K]

  Constant pressure heat capacity, Cp
    Electronic Cp           0.000 [cal/(mol K)]        0.000 [J/(mol K)]       0.00000000 [mEh/K]
    Translational Cp        4.968 [cal/(mol K)]       20.786 [J/(mol K)]       0.00791703 [mEh/K]
    Rotational Cp           1.987 [cal/(mol K)]        8.314 [J/(mol K)]       0.00316681 [mEh/K]
    Vibrational Cp          0.190 [cal/(mol K)]        0.795 [J/(mol K)]       0.00030268 [mEh/K]
  Total Cp                  7.145 [cal/(mol K)]       29.895 [J/(mol K)]       0.01138652 [mEh/K]
  Correction Cp             0.000 [cal/(mol K)]        0.000 [J/(mol K)]       0.00000000 [mEh/K]

  ==> Thermochemistry Energy Analysis <==

  Raw electronic energy, E0
  Total E0, Electronic energy at well bottom at 0 [K]                 -473.32145954 [Eh]

  Zero-point energy, ZPE_vib = Sum_i nu_i / 2
    Electronic ZPE          0.000 [kcal/mol]        0.000 [kJ/mol]       0.00000000 [Eh]
    Translational ZPE       0.000 [kcal/mol]        0.000 [kJ/mol]       0.00000000 [Eh]
    Rotational ZPE          0.000 [kcal/mol]        0.000 [kJ/mol]       0.00000000 [Eh]
    Vibrational ZPE         1.749 [kcal/mol]        7.319 [kJ/mol]       0.00278761 [Eh]         611.809 [cm^-1]
  Correction ZPE            1.749 [kcal/mol]        7.319 [kJ/mol]       0.00278761 [Eh]         611.809 [cm^-1]
  Total ZPE, Electronic energy at 0 [K]                               -473.31867193 [Eh]

  Thermal Energy, E (includes ZPE)
    Electronic E            0.000 [kcal/mol]        0.000 [kJ/mol]       0.00000000 [Eh]
    Translational E         0.889 [kcal/mol]        3.718 [kJ/mol]       0.00141628 [Eh]
    Rotational E            0.592 [kcal/mol]        2.479 [kJ/mol]       0.00094418 [Eh]
    Vibrational E           1.759 [kcal/mol]        7.359 [kJ/mol]       0.00280285 [Eh]
  Correction E              3.240 [kcal/mol]       13.556 [kJ/mol]       0.00516331 [Eh]
  Total E, Electronic energy at  298.15 [K]                           -473.31629623 [Eh]

  Enthalpy, H_trans = E_trans + k_B * T
    Electronic H            0.000 [kcal/mol]        0.000 [kJ/mol]       0.00000000 [Eh]
    Translational H         1.481 [kcal/mol]        6.197 [kJ/mol]       0.00236046 [Eh]
    Rotational H            0.592 [kcal/mol]        2.479 [kJ/mol]       0.00094418 [Eh]
    Vibrational H           1.759 [kcal/mol]        7.359 [kJ/mol]       0.00280285 [Eh]
  Correction H              3.833 [kcal/mol]       16.035 [kJ/mol]       0.00610750 [Eh]
  Total H, Enthalpy at  298.15 [K]                                    -473.31535204 [Eh]

  Gibbs free energy, G = H - T * S
    Electronic G           -0.651 [kcal/mol]       -2.723 [kJ/mol]      -0.00103729 [Eh]
    Translational G        -9.708 [kcal/mol]      -40.617 [kJ/mol]      -0.01547036 [Eh]
    Rotational G           -3.352 [kcal/mol]      -14.025 [kJ/mol]      -0.00534199 [Eh]
    Vibrational G           1.748 [kcal/mol]        7.312 [kJ/mol]       0.00278503 [Eh]
  Correction G            -11.963 [kcal/mol]      -50.054 [kJ/mol]      -0.01906461 [Eh]
  Total G, Free enthalpy at  298.15 [K]                               -473.34052415 [Eh]

    Psi4 stopped on: Tuesday, 27 April 2021 05:42PM
    Psi4 wall time for execution: 0:01:05.58

*** Psi4 exiting successfully. Buy a developer a beer!
