
    -----------------------------------------------------------------------
          Psi4: An Open-Source Ab Initio Electronic Structure Package
                               Psi4 1.3.2 release

                         Git: Rev {HEAD} ecbda83 


    R. M. Parrish, L. A. Burns, D. G. A. Smith, A. C. Simmonett,
    A. E. DePrince III, E. G. Hohenstein, U. Bozkaya, A. Yu. Sokolov,
    R. Di Remigio, R. M. Richard, J. F. Gonthier, A. M. James,
    H. R. McAlexander, A. Kumar, M. Saitow, X. Wang, B. P. Pritchard,
    P. Verma, H. F. Schaefer III, K. Patkowski, R. A. King, E. F. Valeev,
    F. A. Evangelista, J. M. Turney, T. D. Crawford, and C. D. Sherrill,
    J. Chem. Theory Comput. 13(7) pp 3185--3197 (2017).
    (doi: 10.1021/acs.jctc.7b00174)


                         Additional Contributions by
    P. Kraus, H. Kruse, M. H. Lechner, M. C. Schieber, R. A. Shaw,
    A. Alenaizan, R. Galvelis, Z. L. Glick, S. Lehtola, and J. P. Misiewicz

    -----------------------------------------------------------------------


    Psi4 started on: Tuesday, 27 April 2021 05:48PM

    Process ID: 196735
    Host:       bp1-compute00105.data.bp.acrc.priv
    PSIDATADIR: /work/zw18965/.conda/envs/p4env/share/psi4
    Memory:     500.0 MiB
    Threads:    24
    
  ==> Input File <==

--------------------------------------------------------------------------
memory 144 GB

molecule {
0 1
B 0.0000000000 0.0000000000 0.0000000000
H 0.0000000000 0.0000000000 1.1899000000
H 1.0304836280 0.0000000000 -0.5949500000
H -1.0304836280 -0.0000000000 -0.5949500000
}

set dynamic_level 1
set basis aug-cc-pV(D+d)Z
 
optimize("wB97X-V")
frequencies("wB97X-V")
--------------------------------------------------------------------------

  Memory set to 134.110 GiB by Python driver.
gradient() will perform gradient computation by finite difference of analytic energies.

         ----------------------------------------------------------
                                   FINDIF
                     R. A. King and Jonathon Misiewicz
         ---------------------------------------------------------

  Using finite-differences of energies to determine gradients.
    Generating geometries for use with 3-point formula.
    Displacement size will be 5.00e-03.
    Number of atoms is 4.
    Number of symmetric SALCs is 3.
    Translations projected? 1. Rotations projected? 1.
    Number of geometries (including reference) is 7.

  //>>>>>>>>>>>>>>>>>>>>>>>>>>>>>>>>>>>//
  //    Loading displacement 1 of 7    //
  //<<<<<<<<<<<<<<<<<<<<<<<<<<<<<<<<<<<//

*** tstart() called on bp1-compute00105.data.bp.acrc.priv
*** at Tue Apr 27 17:48:46 2021

   => Loading Basis Set <=

    Name: AUG-CC-PV(D+D)Z
    Role: ORBITAL
    Keyword: BASIS
    atoms 1   entry B          line   162 file /work/zw18965/.conda/envs/p4env/share/psi4/basis/aug-cc-pv_dpd_z.gbs 
    atoms 2-4 entry H          line    56 file /work/zw18965/.conda/envs/p4env/share/psi4/basis/aug-cc-pv_dpd_z.gbs 


         ---------------------------------------------------------
                                   SCF
               by Justin Turney, Rob Parrish, Andy Simmonett
                          and Daniel G. A. Smith
                              RKS Reference
                       24 Threads, 137329 MiB Core
         ---------------------------------------------------------

  ==> Geometry <==

    Molecular point group: c2v
    Full point group: D3h

    Geometry (in Angstrom), charge = 0, multiplicity = 1:

       Center              X                  Y                   Z               Mass       
    ------------   -----------------  -----------------  -----------------  -----------------
         B            0.000000000000     0.000000000000     0.000000000000    11.009305360000
         H            0.000000000000     0.000000000000     1.189900000000     1.007825032230
         H            1.030483628000     0.000000000000    -0.594950000000     1.007825032230
         H           -1.030483628000    -0.000000000000    -0.594950000000     1.007825032230

  Running in c2v symmetry.

  Rotational constants: A =      7.87588  B =      7.87588  C =      3.93794 [cm^-1]
  Rotational constants: A = 236112.98414  B = 236112.98413  C = 118056.49207 [MHz]
  Nuclear repulsion =    7.441146293788980

  Charge       = 0
  Multiplicity = 1
  Electrons    = 8
  Nalpha       = 4
  Nbeta        = 4

  ==> Algorithm <==

  SCF Algorithm Type is DF.
  DIIS enabled.
  MOM disabled.
  Fractional occupation disabled.
  Guess Type is SAD.
  Energy threshold   = 1.00e-08
  Density threshold  = 1.00e-08
  Integral threshold = 0.00e+00

  ==> Primary Basis <==

  Basis Set: AUG-CC-PV(D+D)Z
    Blend: AUG-CC-PV(D+D)Z
    Number of shells: 24
    Number of basis function: 50
    Number of Cartesian functions: 52
    Spherical Harmonics?: true
    Max angular momentum: 2

  ==> DFT Potential <==

   => Composite Functional: WB97X-V <= 

    wB97X-V Hyb-GGA Exchange-Correlation Functional

    N. Mardirossian and M. Head-Gordon, Phys. Chem. Chem. Phys. 16, 9904 (2014)

    Deriv               =              1
    GGA                 =           TRUE
    Meta                =          FALSE

    Exchange Hybrid     =           TRUE
    MP2 Hybrid          =          FALSE

   => Exchange-Correlation Functionals <=

    1.0000   wB97X-V range-separated functional

   => Exact (HF) Exchange <=

    0.8330            HF,LR [omega = 0.3000]
    0.1670               HF 

   => VV10 Non-Local Parameters <=

    VV10 B              =     6.0000E+00
    VV10 C              =     1.0000E-02

   => Molecular Quadrature <=

    Radial Scheme          =       TREUTLER
    Pruning Scheme         =           FLAT
    Nuclear Scheme         =       TREUTLER

    BS radius alpha        =              1
    Pruning alpha          =              1
    Radial Points          =             75
    Spherical Points       =            302
    Total Points           =          90600
    Total Blocks           =            759
    Max Points             =            256
    Max Functions          =             50

   => Loading Basis Set <=

    Name: (AUG-CC-PV(D+D)Z AUX)
    Role: JKFIT
    Keyword: DF_BASIS_SCF
    atoms 1   entry B          line    96 file /work/zw18965/.conda/envs/p4env/share/psi4/basis/aug-cc-pvdz-jkfit.gbs 
    atoms 2-4 entry H          line    70 file /work/zw18965/.conda/envs/p4env/share/psi4/basis/aug-cc-pvdz-jkfit.gbs 

  ==> Pre-Iterations <==

   -------------------------------------------------------
    Irrep   Nso     Nmo     Nalpha   Nbeta   Ndocc  Nsocc
   -------------------------------------------------------
     A1        23      23       0       0       0       0
     A2         4       4       0       0       0       0
     B1        14      14       0       0       0       0
     B2         9       9       0       0       0       0
   -------------------------------------------------------
    Total      50      50       4       4       4       0
   -------------------------------------------------------

  ==> Integral Setup <==

  ==> DiskDFJK: Density-Fitted J/K Matrices <==

    J tasked:                  Yes
    K tasked:                  Yes
    wK tasked:                 Yes
    Omega:               3.000E-01
    OpenMP threads:             24
    Integrals threads:          24
    Memory [MiB]:           102862
    Algorithm:                Core
    Integral Cache:           NONE
    Schwarz Cutoff:          1E-12
    Fitting Condition:       1E-10

   => Auxiliary Basis Set <=

  Basis Set: (AUG-CC-PV(D+D)Z AUX)
    Blend: AUG-CC-PVDZ-JKFIT
    Number of shells: 64
    Number of basis function: 182
    Number of Cartesian functions: 206
    Spherical Harmonics?: true
    Max angular momentum: 3

  Cached 100.0% of DFT collocation blocks in 0.131 [GiB].

  Minimum eigenvalue in the overlap matrix is 1.5210861919E-04.
  Using Symmetric Orthogonalization.

  SCF Guess: Superposition of Atomic Densities via on-the-fly atomic UHF.

  ==> Iterations <==

                           Total Energy        Delta E     RMS |[F,P]|

   @DF-RKS iter SAD:   -25.90128697329147   -2.59013e+01   0.00000e+00 
   @DF-RKS iter   1:   -26.58321603065915   -6.81929e-01   4.37083e-03 DIIS
   @DF-RKS iter   2:   -26.59455824960718   -1.13422e-02   1.22737e-03 DIIS
   @DF-RKS iter   3:   -26.59545786441944   -8.99615e-04   1.72178e-04 DIIS
   @DF-RKS iter   4:   -26.59549758633365   -3.97219e-05   2.33610e-05 DIIS
   @DF-RKS iter   5:   -26.59549846812146   -8.81788e-07   2.32065e-06 DIIS
   @DF-RKS iter   6:   -26.59549847563213   -7.51067e-09   1.25928e-07 DIIS
   @DF-RKS iter   7:   -26.59549847565022   -1.80940e-11   1.35049e-08 DIIS
   @DF-RKS iter   8:   -26.59549847565046   -2.34479e-13   1.34655e-09 DIIS
  Energy and wave function converged.


  ==> Post-Iterations <==

    Orbital Energies [Eh]
    ---------------------

    Doubly Occupied:                                                      

       1A1    -6.875976     2A1    -0.638054     3A1    -0.458594  
       1B1    -0.458593  

    Virtual:                                                              

       1B2     0.005645     4A1     0.045560     5A1     0.057413  
       2B1     0.057421     2B2     0.087586     3B1     0.107830  
       6A1     0.107863     7A1     0.138959     8A1     0.223678  
       4B1     0.226701     9A1     0.226707     3B2     0.246855  
       1A2     0.246857     5B1     0.332986    10A1     0.332989  
      11A1     0.370996    12A1     0.420227     6B1     0.420231  
       4B2     0.452160     7B1     0.468842    13A1     0.484847  
       5B2     0.493996     2A2     0.493997     6B2     0.531406  
       8B1     0.556151    14A1     0.556153     9B1     0.808479  
      15A1     0.808481    16A1     0.837245     7B2     0.976644  
       3A2     0.976645    17A1     1.035464    18A1     1.046859  
      10B1     1.046865    19A1     1.314469    20A1     1.518753  
      11B1     1.518755    12B1     1.667710     8B2     1.848681  
       9B2     1.972845     4A2     1.972847    13B1     2.234713  
      21A1     2.234713    22A1     2.411568    14B1     2.456414  
      23A1     2.456414  

    Final Occupation by Irrep:
             A1    A2    B1    B2 
    DOCC [     3,    0,    1,    0 ]

  @DF-RKS Final Energy:   -26.59549847565046

   => Energetics <=

    Nuclear Repulsion Energy =              7.4411462937889796
    One-Electron Energy =                 -49.0686530409654011
    Two-Electron Energy =                  18.3159059694962032
    DFT Exchange-Correlation Energy =      -3.3177693422261902
    Empirical Dispersion Energy =           0.0000000000000000
    VV10 Nonlocal Energy =                  0.0338716442559443
    Total Energy =                        -26.5954984756504587

Computation Completed


Properties will be evaluated at   0.000000,   0.000000,   0.000000 [a0]

Properties computed using the SCF density matrix

  Nuclear Dipole Moment: [e a0]
     X:     0.0000      Y:     0.0000      Z:    -0.0000

  Electronic Dipole Moment: [e a0]
     X:     0.0000      Y:     0.0000      Z:     0.0000

  Dipole Moment: [e a0]
     X:     0.0000      Y:     0.0000      Z:     0.0000     Total:     0.0000

  Dipole Moment: [D]
     X:     0.0000      Y:     0.0000      Z:     0.0000     Total:     0.0000


*** tstop() called on bp1-compute00105.data.bp.acrc.priv at Tue Apr 27 17:48:49 2021
Module time:
	user time   =      66.85 seconds =       1.11 minutes
	system time =       2.71 seconds =       0.05 minutes
	total time  =          3 seconds =       0.05 minutes
Total time:
	user time   =      66.85 seconds =       1.11 minutes
	system time =       2.71 seconds =       0.05 minutes
	total time  =          3 seconds =       0.05 minutes

  //>>>>>>>>>>>>>>>>>>>>>>>>>>>>>>>>>>>//
  //    Loading displacement 2 of 7    //
  //<<<<<<<<<<<<<<<<<<<<<<<<<<<<<<<<<<<//

*** tstart() called on bp1-compute00105.data.bp.acrc.priv
*** at Tue Apr 27 17:48:49 2021

   => Loading Basis Set <=

    Name: AUG-CC-PV(D+D)Z
    Role: ORBITAL
    Keyword: BASIS
    atoms 1   entry B          line   162 file /work/zw18965/.conda/envs/p4env/share/psi4/basis/aug-cc-pv_dpd_z.gbs 
    atoms 2-4 entry H          line    56 file /work/zw18965/.conda/envs/p4env/share/psi4/basis/aug-cc-pv_dpd_z.gbs 


         ---------------------------------------------------------
                                   SCF
               by Justin Turney, Rob Parrish, Andy Simmonett
                          and Daniel G. A. Smith
                              RKS Reference
                       24 Threads, 137329 MiB Core
         ---------------------------------------------------------

  ==> Geometry <==

    Molecular point group: c2v
    Full point group: C2v

    Geometry (in Angstrom), charge = 0, multiplicity = 1:

       Center              X                  Y                   Z               Mass       
    ------------   -----------------  -----------------  -----------------  -----------------
         B            0.000000000000     0.000000000000    -0.000370145531    11.009305360000
         H            0.000000000000     0.000000000000     1.191247801802     1.007825032230
         H            1.030483628000     0.000000000000    -0.593602198198     1.007825032230
         H           -1.030483628000    -0.000000000000    -0.593602198198     1.007825032230

  Running in c2v symmetry.

  Rotational constants: A =      7.87588  B =      7.87586  C =      3.93793 [cm^-1]
  Rotational constants: A = 236112.98413  B = 236112.21188  C = 118056.29900 [MHz]
  Nuclear repulsion =    7.441149757572817

  Charge       = 0
  Multiplicity = 1
  Electrons    = 8
  Nalpha       = 4
  Nbeta        = 4

  ==> Algorithm <==

  SCF Algorithm Type is DF.
  DIIS enabled.
  MOM disabled.
  Fractional occupation disabled.
  Guess Type is SAD.
  Energy threshold   = 1.00e-08
  Density threshold  = 1.00e-08
  Integral threshold = 0.00e+00

  ==> Primary Basis <==

  Basis Set: AUG-CC-PV(D+D)Z
    Blend: AUG-CC-PV(D+D)Z
    Number of shells: 24
    Number of basis function: 50
    Number of Cartesian functions: 52
    Spherical Harmonics?: true
    Max angular momentum: 2

  ==> DFT Potential <==

   => Composite Functional: WB97X-V <= 

    wB97X-V Hyb-GGA Exchange-Correlation Functional

    N. Mardirossian and M. Head-Gordon, Phys. Chem. Chem. Phys. 16, 9904 (2014)

    Deriv               =              1
    GGA                 =           TRUE
    Meta                =          FALSE

    Exchange Hybrid     =           TRUE
    MP2 Hybrid          =          FALSE

   => Exchange-Correlation Functionals <=

    1.0000   wB97X-V range-separated functional

   => Exact (HF) Exchange <=

    0.8330            HF,LR [omega = 0.3000]
    0.1670               HF 

   => VV10 Non-Local Parameters <=

    VV10 B              =     6.0000E+00
    VV10 C              =     1.0000E-02

   => Molecular Quadrature <=

    Radial Scheme          =       TREUTLER
    Pruning Scheme         =           FLAT
    Nuclear Scheme         =       TREUTLER

    BS radius alpha        =              1
    Pruning alpha          =              1
    Radial Points          =             75
    Spherical Points       =            302
    Total Points           =          90600
    Total Blocks           =            759
    Max Points             =            256
    Max Functions          =             50

   => Loading Basis Set <=

    Name: (AUG-CC-PV(D+D)Z AUX)
    Role: JKFIT
    Keyword: DF_BASIS_SCF
    atoms 1   entry B          line    96 file /work/zw18965/.conda/envs/p4env/share/psi4/basis/aug-cc-pvdz-jkfit.gbs 
    atoms 2-4 entry H          line    70 file /work/zw18965/.conda/envs/p4env/share/psi4/basis/aug-cc-pvdz-jkfit.gbs 

  ==> Pre-Iterations <==

   -------------------------------------------------------
    Irrep   Nso     Nmo     Nalpha   Nbeta   Ndocc  Nsocc
   -------------------------------------------------------
     A1        23      23       0       0       0       0
     A2         4       4       0       0       0       0
     B1        14      14       0       0       0       0
     B2         9       9       0       0       0       0
   -------------------------------------------------------
    Total      50      50       4       4       4       0
   -------------------------------------------------------

  ==> Integral Setup <==

  ==> DiskDFJK: Density-Fitted J/K Matrices <==

    J tasked:                  Yes
    K tasked:                  Yes
    wK tasked:                 Yes
    Omega:               3.000E-01
    OpenMP threads:             24
    Integrals threads:          24
    Memory [MiB]:           102862
    Algorithm:                Core
    Integral Cache:           NONE
    Schwarz Cutoff:          1E-12
    Fitting Condition:       1E-10

   => Auxiliary Basis Set <=

  Basis Set: (AUG-CC-PV(D+D)Z AUX)
    Blend: AUG-CC-PVDZ-JKFIT
    Number of shells: 64
    Number of basis function: 182
    Number of Cartesian functions: 206
    Spherical Harmonics?: true
    Max angular momentum: 3

  Cached 100.0% of DFT collocation blocks in 0.131 [GiB].

  Minimum eigenvalue in the overlap matrix is 1.5210757384E-04.
  Using Symmetric Orthogonalization.

  SCF Guess: Superposition of Atomic Densities via on-the-fly atomic UHF.

  ==> Iterations <==

                           Total Energy        Delta E     RMS |[F,P]|

   @DF-RKS iter SAD:   -25.90128530409390   -2.59013e+01   0.00000e+00 
   @DF-RKS iter   1:   -26.58321362044668   -6.81928e-01   4.37085e-03 DIIS
   @DF-RKS iter   2:   -26.59455595069307   -1.13423e-02   1.22738e-03 DIIS
   @DF-RKS iter   3:   -26.59545558252659   -8.99632e-04   1.72180e-04 DIIS
   @DF-RKS iter   4:   -26.59549530556238   -3.97230e-05   2.33610e-05 DIIS
   @DF-RKS iter   5:   -26.59549618717947   -8.81617e-07   2.32121e-06 DIIS
   @DF-RKS iter   6:   -26.59549619469904   -7.51957e-09   1.26067e-07 DIIS
   @DF-RKS iter   7:   -26.59549619471698   -1.79377e-11   1.35281e-08 DIIS
   @DF-RKS iter   8:   -26.59549619471717   -1.88294e-13   1.35126e-09 DIIS
  Energy and wave function converged.


  ==> Post-Iterations <==

    Orbital Energies [Eh]
    ---------------------

    Doubly Occupied:                                                      

       1A1    -6.875977     2A1    -0.638054     1B1    -0.458938  
       3A1    -0.458248  

    Virtual:                                                              

       1B2     0.005644     4A1     0.045556     2B1     0.057392  
       5A1     0.057441     2B2     0.087585     6A1     0.107805  
       3B1     0.107878     7A1     0.138958     8A1     0.223677  
       9A1     0.226607     4B1     0.226800     1A2     0.246811  
       3B2     0.246900    10A1     0.332958     5B1     0.333012  
      11A1     0.370996    12A1     0.420079     6B1     0.420380  
       4B2     0.452159     7B1     0.468843    13A1     0.484847  
       5B2     0.493838     2A2     0.494155     6B2     0.531408  
      14A1     0.556126     8B1     0.556176    15A1     0.808011  
       9B1     0.808910    16A1     0.837288     7B2     0.976474  
       3A2     0.976816    17A1     1.035462    10B1     1.046626  
      18A1     1.047099    19A1     1.314462    11B1     1.518688  
      20A1     1.518821    12B1     1.667715     8B2     1.848681  
       9B2     1.972045     4A2     1.973647    21A1     2.234229  
      13B1     2.235193    22A1     2.411437    23A1     2.455383  
      14B1     2.457596  

    Final Occupation by Irrep:
             A1    A2    B1    B2 
    DOCC [     3,    0,    1,    0 ]

  @DF-RKS Final Energy:   -26.59549619471717

   => Energetics <=

    Nuclear Repulsion Energy =              7.4411497575728172
    One-Electron Energy =                 -49.0686537741710183
    Two-Electron Energy =                  18.3159056813580570
    DFT Exchange-Correlation Energy =      -3.3177694970096367
    Empirical Dispersion Energy =           0.0000000000000000
    VV10 Nonlocal Energy =                  0.0338716375326142
    Total Energy =                        -26.5954961947171675

Computation Completed


Properties will be evaluated at   0.000000,   0.000000,   0.000000 [a0]

Properties computed using the SCF density matrix

  Nuclear Dipole Moment: [e a0]
     X:     0.0000      Y:     0.0000      Z:     0.0041

  Electronic Dipole Moment: [e a0]
     X:     0.0000      Y:     0.0000      Z:    -0.0059

  Dipole Moment: [e a0]
     X:     0.0000      Y:     0.0000      Z:    -0.0017     Total:     0.0017

  Dipole Moment: [D]
     X:     0.0000      Y:     0.0000      Z:    -0.0044     Total:     0.0044


*** tstop() called on bp1-compute00105.data.bp.acrc.priv at Tue Apr 27 17:48:52 2021
Module time:
	user time   =      62.83 seconds =       1.05 minutes
	system time =       2.14 seconds =       0.04 minutes
	total time  =          3 seconds =       0.05 minutes
Total time:
	user time   =     129.81 seconds =       2.16 minutes
	system time =       4.86 seconds =       0.08 minutes
	total time  =          6 seconds =       0.10 minutes

  //>>>>>>>>>>>>>>>>>>>>>>>>>>>>>>>>>>>//
  //    Loading displacement 3 of 7    //
  //<<<<<<<<<<<<<<<<<<<<<<<<<<<<<<<<<<<//

*** tstart() called on bp1-compute00105.data.bp.acrc.priv
*** at Tue Apr 27 17:48:52 2021

   => Loading Basis Set <=

    Name: AUG-CC-PV(D+D)Z
    Role: ORBITAL
    Keyword: BASIS
    atoms 1   entry B          line   162 file /work/zw18965/.conda/envs/p4env/share/psi4/basis/aug-cc-pv_dpd_z.gbs 
    atoms 2-4 entry H          line    56 file /work/zw18965/.conda/envs/p4env/share/psi4/basis/aug-cc-pv_dpd_z.gbs 


         ---------------------------------------------------------
                                   SCF
               by Justin Turney, Rob Parrish, Andy Simmonett
                          and Daniel G. A. Smith
                              RKS Reference
                       24 Threads, 137329 MiB Core
         ---------------------------------------------------------

  ==> Geometry <==

    Molecular point group: c2v
    Full point group: C2v

    Geometry (in Angstrom), charge = 0, multiplicity = 1:

       Center              X                  Y                   Z               Mass       
    ------------   -----------------  -----------------  -----------------  -----------------
         B            0.000000000000     0.000000000000     0.000370145531    11.009305360000
         H            0.000000000000     0.000000000000     1.188552198198     1.007825032230
         H            1.030483628000     0.000000000000    -0.596297801802     1.007825032230
         H           -1.030483628000    -0.000000000000    -0.596297801802     1.007825032230

  Running in c2v symmetry.

  Rotational constants: A =      7.87588  B =      7.87586  C =      3.93793 [cm^-1]
  Rotational constants: A = 236112.98413  B = 236112.21188  C = 118056.29900 [MHz]
  Nuclear repulsion =    7.441149782668525

  Charge       = 0
  Multiplicity = 1
  Electrons    = 8
  Nalpha       = 4
  Nbeta        = 4

  ==> Algorithm <==

  SCF Algorithm Type is DF.
  DIIS enabled.
  MOM disabled.
  Fractional occupation disabled.
  Guess Type is SAD.
  Energy threshold   = 1.00e-08
  Density threshold  = 1.00e-08
  Integral threshold = 0.00e+00

  ==> Primary Basis <==

  Basis Set: AUG-CC-PV(D+D)Z
    Blend: AUG-CC-PV(D+D)Z
    Number of shells: 24
    Number of basis function: 50
    Number of Cartesian functions: 52
    Spherical Harmonics?: true
    Max angular momentum: 2

  ==> DFT Potential <==

   => Composite Functional: WB97X-V <= 

    wB97X-V Hyb-GGA Exchange-Correlation Functional

    N. Mardirossian and M. Head-Gordon, Phys. Chem. Chem. Phys. 16, 9904 (2014)

    Deriv               =              1
    GGA                 =           TRUE
    Meta                =          FALSE

    Exchange Hybrid     =           TRUE
    MP2 Hybrid          =          FALSE

   => Exchange-Correlation Functionals <=

    1.0000   wB97X-V range-separated functional

   => Exact (HF) Exchange <=

    0.8330            HF,LR [omega = 0.3000]
    0.1670               HF 

   => VV10 Non-Local Parameters <=

    VV10 B              =     6.0000E+00
    VV10 C              =     1.0000E-02

   => Molecular Quadrature <=

    Radial Scheme          =       TREUTLER
    Pruning Scheme         =           FLAT
    Nuclear Scheme         =       TREUTLER

    BS radius alpha        =              1
    Pruning alpha          =              1
    Radial Points          =             75
    Spherical Points       =            302
    Total Points           =          90600
    Total Blocks           =            756
    Max Points             =            256
    Max Functions          =             50

   => Loading Basis Set <=

    Name: (AUG-CC-PV(D+D)Z AUX)
    Role: JKFIT
    Keyword: DF_BASIS_SCF
    atoms 1   entry B          line    96 file /work/zw18965/.conda/envs/p4env/share/psi4/basis/aug-cc-pvdz-jkfit.gbs 
    atoms 2-4 entry H          line    70 file /work/zw18965/.conda/envs/p4env/share/psi4/basis/aug-cc-pvdz-jkfit.gbs 

  ==> Pre-Iterations <==

   -------------------------------------------------------
    Irrep   Nso     Nmo     Nalpha   Nbeta   Ndocc  Nsocc
   -------------------------------------------------------
     A1        23      23       0       0       0       0
     A2         4       4       0       0       0       0
     B1        14      14       0       0       0       0
     B2         9       9       0       0       0       0
   -------------------------------------------------------
    Total      50      50       4       4       4       0
   -------------------------------------------------------

  ==> Integral Setup <==

  ==> DiskDFJK: Density-Fitted J/K Matrices <==

    J tasked:                  Yes
    K tasked:                  Yes
    wK tasked:                 Yes
    Omega:               3.000E-01
    OpenMP threads:             24
    Integrals threads:          24
    Memory [MiB]:           102862
    Algorithm:                Core
    Integral Cache:           NONE
    Schwarz Cutoff:          1E-12
    Fitting Condition:       1E-10

   => Auxiliary Basis Set <=

  Basis Set: (AUG-CC-PV(D+D)Z AUX)
    Blend: AUG-CC-PVDZ-JKFIT
    Number of shells: 64
    Number of basis function: 182
    Number of Cartesian functions: 206
    Spherical Harmonics?: true
    Max angular momentum: 3

  Cached 100.0% of DFT collocation blocks in 0.131 [GiB].

  Minimum eigenvalue in the overlap matrix is 1.5210757992E-04.
  Using Symmetric Orthogonalization.

  SCF Guess: Superposition of Atomic Densities via on-the-fly atomic UHF.

  ==> Iterations <==

                           Total Energy        Delta E     RMS |[F,P]|

   @DF-RKS iter SAD:   -25.90128527907417   -2.59013e+01   0.00000e+00 
   @DF-RKS iter   1:   -26.58321360464373   -6.81928e-01   4.37085e-03 DIIS
   @DF-RKS iter   2:   -26.59455593888012   -1.13423e-02   1.22738e-03 DIIS
   @DF-RKS iter   3:   -26.59545557125182   -8.99632e-04   1.72180e-04 DIIS
   @DF-RKS iter   4:   -26.59549529390577   -3.97227e-05   2.33617e-05 DIIS
   @DF-RKS iter   5:   -26.59549617577373   -8.81868e-07   2.31986e-06 DIIS
   @DF-RKS iter   6:   -26.59549618327839   -7.50466e-09   1.26009e-07 DIIS
   @DF-RKS iter   7:   -26.59549618329686   -1.84706e-11   1.35178e-08 DIIS
   @DF-RKS iter   8:   -26.59549618329716   -2.94875e-13   1.34939e-09 DIIS
  Energy and wave function converged.


  ==> Post-Iterations <==

    Orbital Energies [Eh]
    ---------------------

    Doubly Occupied:                                                      

       1A1    -6.875977     2A1    -0.638054     3A1    -0.458939  
       1B1    -0.458247  

    Virtual:                                                              

       1B2     0.005645     4A1     0.045563     5A1     0.057386  
       2B1     0.057451     2B2     0.087587     3B1     0.107782  
       6A1     0.107922     7A1     0.138958     8A1     0.223677  
       4B1     0.226601     9A1     0.226806     3B2     0.246809  
       1A2     0.246902     5B1     0.332961    10A1     0.333019  
      11A1     0.370995     6B1     0.420080    12A1     0.420378  
       4B2     0.452159     7B1     0.468843    13A1     0.484847  
       2A2     0.493839     5B2     0.494154     6B2     0.531408  
       8B1     0.556125    14A1     0.556178     9B1     0.808050  
      15A1     0.808872    16A1     0.837289     3A2     0.976475  
       7B2     0.976815    17A1     1.035462    18A1     1.046618  
      10B1     1.047107    19A1     1.314463    20A1     1.518699  
      11B1     1.518809    12B1     1.667715     8B2     1.848681  
       4A2     1.972048     9B2     1.973645    13B1     2.234232  
      21A1     2.235190    22A1     2.411444    14B1     2.455241  
      23A1     2.457732  

    Final Occupation by Irrep:
             A1    A2    B1    B2 
    DOCC [     3,    0,    1,    0 ]

  @DF-RKS Final Energy:   -26.59549618329716

   => Energetics <=

    Nuclear Repulsion Energy =              7.4411497826685249
    One-Electron Energy =                 -49.0686539218571625
    Two-Electron Energy =                  18.3159058404932154
    DFT Exchange-Correlation Energy =      -3.3177695357201680
    Empirical Dispersion Energy =           0.0000000000000000
    VV10 Nonlocal Energy =                  0.0338716511184310
    Total Energy =                        -26.5954961832971577

Computation Completed


Properties will be evaluated at   0.000000,   0.000000,   0.000000 [a0]

Properties computed using the SCF density matrix

  Nuclear Dipole Moment: [e a0]
     X:     0.0000      Y:     0.0000      Z:    -0.0041

  Electronic Dipole Moment: [e a0]
     X:     0.0000      Y:     0.0000      Z:     0.0059

  Dipole Moment: [e a0]
     X:     0.0000      Y:     0.0000      Z:     0.0017     Total:     0.0017

  Dipole Moment: [D]
     X:     0.0000      Y:     0.0000      Z:     0.0044     Total:     0.0044


*** tstop() called on bp1-compute00105.data.bp.acrc.priv at Tue Apr 27 17:48:55 2021
Module time:
	user time   =      61.16 seconds =       1.02 minutes
	system time =       1.77 seconds =       0.03 minutes
	total time  =          3 seconds =       0.05 minutes
Total time:
	user time   =     191.11 seconds =       3.19 minutes
	system time =       6.64 seconds =       0.11 minutes
	total time  =          9 seconds =       0.15 minutes

  //>>>>>>>>>>>>>>>>>>>>>>>>>>>>>>>>>>>//
  //    Loading displacement 4 of 7    //
  //<<<<<<<<<<<<<<<<<<<<<<<<<<<<<<<<<<<//

*** tstart() called on bp1-compute00105.data.bp.acrc.priv
*** at Tue Apr 27 17:48:55 2021

   => Loading Basis Set <=

    Name: AUG-CC-PV(D+D)Z
    Role: ORBITAL
    Keyword: BASIS
    atoms 1   entry B          line   162 file /work/zw18965/.conda/envs/p4env/share/psi4/basis/aug-cc-pv_dpd_z.gbs 
    atoms 2-4 entry H          line    56 file /work/zw18965/.conda/envs/p4env/share/psi4/basis/aug-cc-pv_dpd_z.gbs 


         ---------------------------------------------------------
                                   SCF
               by Justin Turney, Rob Parrish, Andy Simmonett
                          and Daniel G. A. Smith
                              RKS Reference
                       24 Threads, 137329 MiB Core
         ---------------------------------------------------------

  ==> Geometry <==

    Molecular point group: c2v
    Full point group: C2v

    Geometry (in Angstrom), charge = 0, multiplicity = 1:

       Center              X                  Y                   Z               Mass       
    ------------   -----------------  -----------------  -----------------  -----------------
         B            0.000000000000     0.000000000000     0.000000000000    11.009305360000
         H            0.000000000000     0.000000000000     1.187748046231     1.007825032230
         H            1.030483628000     0.000000000000    -0.593874023116     1.007825032230
         H           -1.030483628000    -0.000000000000    -0.593874023116     1.007825032230

  Running in c2v symmetry.

  Rotational constants: A =      7.90445  B =      7.87588  C =      3.94507 [cm^-1]
  Rotational constants: A = 236969.33498  B = 236112.98413  C = 118270.19225 [MHz]
  Nuclear repulsion =    7.447882629671120

  Charge       = 0
  Multiplicity = 1
  Electrons    = 8
  Nalpha       = 4
  Nbeta        = 4

  ==> Algorithm <==

  SCF Algorithm Type is DF.
  DIIS enabled.
  MOM disabled.
  Fractional occupation disabled.
  Guess Type is SAD.
  Energy threshold   = 1.00e-08
  Density threshold  = 1.00e-08
  Integral threshold = 0.00e+00

  ==> Primary Basis <==

  Basis Set: AUG-CC-PV(D+D)Z
    Blend: AUG-CC-PV(D+D)Z
    Number of shells: 24
    Number of basis function: 50
    Number of Cartesian functions: 52
    Spherical Harmonics?: true
    Max angular momentum: 2

  ==> DFT Potential <==

   => Composite Functional: WB97X-V <= 

    wB97X-V Hyb-GGA Exchange-Correlation Functional

    N. Mardirossian and M. Head-Gordon, Phys. Chem. Chem. Phys. 16, 9904 (2014)

    Deriv               =              1
    GGA                 =           TRUE
    Meta                =          FALSE

    Exchange Hybrid     =           TRUE
    MP2 Hybrid          =          FALSE

   => Exchange-Correlation Functionals <=

    1.0000   wB97X-V range-separated functional

   => Exact (HF) Exchange <=

    0.8330            HF,LR [omega = 0.3000]
    0.1670               HF 

   => VV10 Non-Local Parameters <=

    VV10 B              =     6.0000E+00
    VV10 C              =     1.0000E-02

   => Molecular Quadrature <=

    Radial Scheme          =       TREUTLER
    Pruning Scheme         =           FLAT
    Nuclear Scheme         =       TREUTLER

    BS radius alpha        =              1
    Pruning alpha          =              1
    Radial Points          =             75
    Spherical Points       =            302
    Total Points           =          90600
    Total Blocks           =            758
    Max Points             =            255
    Max Functions          =             50

   => Loading Basis Set <=

    Name: (AUG-CC-PV(D+D)Z AUX)
    Role: JKFIT
    Keyword: DF_BASIS_SCF
    atoms 1   entry B          line    96 file /work/zw18965/.conda/envs/p4env/share/psi4/basis/aug-cc-pvdz-jkfit.gbs 
    atoms 2-4 entry H          line    70 file /work/zw18965/.conda/envs/p4env/share/psi4/basis/aug-cc-pvdz-jkfit.gbs 

  ==> Pre-Iterations <==

   -------------------------------------------------------
    Irrep   Nso     Nmo     Nalpha   Nbeta   Ndocc  Nsocc
   -------------------------------------------------------
     A1        23      23       0       0       0       0
     A2         4       4       0       0       0       0
     B1        14      14       0       0       0       0
     B2         9       9       0       0       0       0
   -------------------------------------------------------
    Total      50      50       4       4       4       0
   -------------------------------------------------------

  ==> Integral Setup <==

  ==> DiskDFJK: Density-Fitted J/K Matrices <==

    J tasked:                  Yes
    K tasked:                  Yes
    wK tasked:                 Yes
    Omega:               3.000E-01
    OpenMP threads:             24
    Integrals threads:          24
    Memory [MiB]:           102862
    Algorithm:                Core
    Integral Cache:           NONE
    Schwarz Cutoff:          1E-12
    Fitting Condition:       1E-10

   => Auxiliary Basis Set <=

  Basis Set: (AUG-CC-PV(D+D)Z AUX)
    Blend: AUG-CC-PVDZ-JKFIT
    Number of shells: 64
    Number of basis function: 182
    Number of Cartesian functions: 206
    Spherical Harmonics?: true
    Max angular momentum: 3

  Cached 100.0% of DFT collocation blocks in 0.131 [GiB].

  Minimum eigenvalue in the overlap matrix is 1.5148730524E-04.
  Using Symmetric Orthogonalization.

  SCF Guess: Superposition of Atomic Densities via on-the-fly atomic UHF.

  ==> Iterations <==

                           Total Energy        Delta E     RMS |[F,P]|

   @DF-RKS iter SAD:   -25.90172821677428   -2.59017e+01   0.00000e+00 
   @DF-RKS iter   1:   -26.58312147892065   -6.81393e-01   4.38178e-03 DIIS
   @DF-RKS iter   2:   -26.59451264247830   -1.13912e-02   1.22938e-03 DIIS
   @DF-RKS iter   3:   -26.59541441528580   -9.01773e-04   1.72102e-04 DIIS
   @DF-RKS iter   4:   -26.59545408285106   -3.96676e-05   2.33433e-05 DIIS
   @DF-RKS iter   5:   -26.59545496295736   -8.80106e-07   2.31935e-06 DIIS
   @DF-RKS iter   6:   -26.59545497045775   -7.50039e-09   1.26536e-07 DIIS
   @DF-RKS iter   7:   -26.59545497047597   -1.82219e-11   1.37237e-08 DIIS
   @DF-RKS iter   8:   -26.59545497047621   -2.38032e-13   1.43398e-09 DIIS
  Energy and wave function converged.


  ==> Post-Iterations <==

    Orbital Energies [Eh]
    ---------------------

    Doubly Occupied:                                                      

       1A1    -6.875630     2A1    -0.638228     1B1    -0.458727  
       3A1    -0.458709  

    Virtual:                                                              

       1B2     0.005682     4A1     0.045562     2B1     0.057398  
       5A1     0.057402     2B2     0.087596     3B1     0.107873  
       6A1     0.107895     7A1     0.138939     8A1     0.223880  
       4B1     0.226738     9A1     0.226772     1A2     0.246844  
       3B2     0.246887     5B1     0.332969    10A1     0.333064  
      11A1     0.371198     6B1     0.420333    12A1     0.420478  
       4B2     0.451972     7B1     0.469045    13A1     0.484442  
       2A2     0.494131     5B2     0.494156     6B2     0.531849  
       8B1     0.556072    14A1     0.556184     9B1     0.809138  
      15A1     0.809174    16A1     0.837576     3A2     0.976803  
       7B2     0.976862    17A1     1.036087    18A1     1.046483  
      10B1     1.047179    19A1     1.315097    11B1     1.519147  
      20A1     1.520765    12B1     1.667816     8B2     1.849308  
       9B2     1.973037     4A2     1.973412    21A1     2.235539  
      13B1     2.236952    22A1     2.413993    14B1     2.457666  
      23A1     2.458459  

    Final Occupation by Irrep:
             A1    A2    B1    B2 
    DOCC [     3,    0,    1,    0 ]

  @DF-RKS Final Energy:   -26.59545497047621

   => Energetics <=

    Nuclear Repulsion Energy =              7.4478826296711205
    One-Electron Energy =                 -49.0814334414963866
    Two-Electron Energy =                  18.3226941973142061
    DFT Exchange-Correlation Energy =      -3.3184708773109319
    Empirical Dispersion Energy =           0.0000000000000000
    VV10 Nonlocal Energy =                  0.0338725213457827
    Total Energy =                        -26.5954549704762115

Computation Completed


Properties will be evaluated at   0.000000,   0.000000,   0.000000 [a0]

Properties computed using the SCF density matrix

  Nuclear Dipole Moment: [e a0]
     X:     0.0000      Y:     0.0000      Z:     0.0000

  Electronic Dipole Moment: [e a0]
     X:     0.0000      Y:     0.0000      Z:     0.0006

  Dipole Moment: [e a0]
     X:     0.0000      Y:     0.0000      Z:     0.0006     Total:     0.0006

  Dipole Moment: [D]
     X:     0.0000      Y:     0.0000      Z:     0.0015     Total:     0.0015


*** tstop() called on bp1-compute00105.data.bp.acrc.priv at Tue Apr 27 17:48:57 2021
Module time:
	user time   =      61.86 seconds =       1.03 minutes
	system time =       1.80 seconds =       0.03 minutes
	total time  =          2 seconds =       0.03 minutes
Total time:
	user time   =     253.11 seconds =       4.22 minutes
	system time =       8.44 seconds =       0.14 minutes
	total time  =         11 seconds =       0.18 minutes

  //>>>>>>>>>>>>>>>>>>>>>>>>>>>>>>>>>>>//
  //    Loading displacement 5 of 7    //
  //<<<<<<<<<<<<<<<<<<<<<<<<<<<<<<<<<<<//

*** tstart() called on bp1-compute00105.data.bp.acrc.priv
*** at Tue Apr 27 17:48:57 2021

   => Loading Basis Set <=

    Name: AUG-CC-PV(D+D)Z
    Role: ORBITAL
    Keyword: BASIS
    atoms 1   entry B          line   162 file /work/zw18965/.conda/envs/p4env/share/psi4/basis/aug-cc-pv_dpd_z.gbs 
    atoms 2-4 entry H          line    56 file /work/zw18965/.conda/envs/p4env/share/psi4/basis/aug-cc-pv_dpd_z.gbs 


         ---------------------------------------------------------
                                   SCF
               by Justin Turney, Rob Parrish, Andy Simmonett
                          and Daniel G. A. Smith
                              RKS Reference
                       24 Threads, 137329 MiB Core
         ---------------------------------------------------------

  ==> Geometry <==

    Molecular point group: c2v
    Full point group: C2v

    Geometry (in Angstrom), charge = 0, multiplicity = 1:

       Center              X                  Y                   Z               Mass       
    ------------   -----------------  -----------------  -----------------  -----------------
         B            0.000000000000     0.000000000000     0.000000000000    11.009305360000
         H            0.000000000000     0.000000000000     1.192051953769     1.007825032230
         H            1.030483628000     0.000000000000    -0.596025976884     1.007825032230
         H           -1.030483628000    -0.000000000000    -0.596025976884     1.007825032230

  Running in c2v symmetry.

  Rotational constants: A =      7.87588  B =      7.84747  C =      3.93083 [cm^-1]
  Rotational constants: A = 236112.98413  B = 235261.26691  C = 117843.17802 [MHz]
  Nuclear repulsion =    7.434425169199378

  Charge       = 0
  Multiplicity = 1
  Electrons    = 8
  Nalpha       = 4
  Nbeta        = 4

  ==> Algorithm <==

  SCF Algorithm Type is DF.
  DIIS enabled.
  MOM disabled.
  Fractional occupation disabled.
  Guess Type is SAD.
  Energy threshold   = 1.00e-08
  Density threshold  = 1.00e-08
  Integral threshold = 0.00e+00

  ==> Primary Basis <==

  Basis Set: AUG-CC-PV(D+D)Z
    Blend: AUG-CC-PV(D+D)Z
    Number of shells: 24
    Number of basis function: 50
    Number of Cartesian functions: 52
    Spherical Harmonics?: true
    Max angular momentum: 2

  ==> DFT Potential <==

   => Composite Functional: WB97X-V <= 

    wB97X-V Hyb-GGA Exchange-Correlation Functional

    N. Mardirossian and M. Head-Gordon, Phys. Chem. Chem. Phys. 16, 9904 (2014)

    Deriv               =              1
    GGA                 =           TRUE
    Meta                =          FALSE

    Exchange Hybrid     =           TRUE
    MP2 Hybrid          =          FALSE

   => Exchange-Correlation Functionals <=

    1.0000   wB97X-V range-separated functional

   => Exact (HF) Exchange <=

    0.8330            HF,LR [omega = 0.3000]
    0.1670               HF 

   => VV10 Non-Local Parameters <=

    VV10 B              =     6.0000E+00
    VV10 C              =     1.0000E-02

   => Molecular Quadrature <=

    Radial Scheme          =       TREUTLER
    Pruning Scheme         =           FLAT
    Nuclear Scheme         =       TREUTLER

    BS radius alpha        =              1
    Pruning alpha          =              1
    Radial Points          =             75
    Spherical Points       =            302
    Total Points           =          90600
    Total Blocks           =            757
    Max Points             =            256
    Max Functions          =             50

   => Loading Basis Set <=

    Name: (AUG-CC-PV(D+D)Z AUX)
    Role: JKFIT
    Keyword: DF_BASIS_SCF
    atoms 1   entry B          line    96 file /work/zw18965/.conda/envs/p4env/share/psi4/basis/aug-cc-pvdz-jkfit.gbs 
    atoms 2-4 entry H          line    70 file /work/zw18965/.conda/envs/p4env/share/psi4/basis/aug-cc-pvdz-jkfit.gbs 

  ==> Pre-Iterations <==

   -------------------------------------------------------
    Irrep   Nso     Nmo     Nalpha   Nbeta   Ndocc  Nsocc
   -------------------------------------------------------
     A1        23      23       0       0       0       0
     A2         4       4       0       0       0       0
     B1        14      14       0       0       0       0
     B2         9       9       0       0       0       0
   -------------------------------------------------------
    Total      50      50       4       4       4       0
   -------------------------------------------------------

  ==> Integral Setup <==

  ==> DiskDFJK: Density-Fitted J/K Matrices <==

    J tasked:                  Yes
    K tasked:                  Yes
    wK tasked:                 Yes
    Omega:               3.000E-01
    OpenMP threads:             24
    Integrals threads:          24
    Memory [MiB]:           102862
    Algorithm:                Core
    Integral Cache:           NONE
    Schwarz Cutoff:          1E-12
    Fitting Condition:       1E-10

   => Auxiliary Basis Set <=

  Basis Set: (AUG-CC-PV(D+D)Z AUX)
    Blend: AUG-CC-PVDZ-JKFIT
    Number of shells: 64
    Number of basis function: 182
    Number of Cartesian functions: 206
    Spherical Harmonics?: true
    Max angular momentum: 3

  Cached 100.0% of DFT collocation blocks in 0.131 [GiB].

  Minimum eigenvalue in the overlap matrix is 1.5273932374E-04.
  Using Symmetric Orthogonalization.

  SCF Guess: Superposition of Atomic Densities via on-the-fly atomic UHF.

  ==> Iterations <==

                           Total Energy        Delta E     RMS |[F,P]|

   @DF-RKS iter SAD:   -25.90084282315307   -2.59008e+01   0.00000e+00 
   @DF-RKS iter   1:   -26.58330487779391   -6.82462e-01   4.35994e-03 DIIS
   @DF-RKS iter   2:   -26.59459850385551   -1.12936e-02   1.22537e-03 DIIS
   @DF-RKS iter   3:   -26.59549597810467   -8.97474e-04   1.72256e-04 DIIS
   @DF-RKS iter   4:   -26.59553575483118   -3.97767e-05   2.33792e-05 DIIS
   @DF-RKS iter   5:   -26.59553663826335   -8.83432e-07   2.32193e-06 DIIS
   @DF-RKS iter   6:   -26.59553664578431   -7.52097e-09   1.26154e-07 DIIS
   @DF-RKS iter   7:   -26.59553664580259   -1.82752e-11   1.36453e-08 DIIS
   @DF-RKS iter   8:   -26.59553664580278   -1.95399e-13   1.42021e-09 DIIS
  Energy and wave function converged.


  ==> Post-Iterations <==

    Orbital Energies [Eh]
    ---------------------

    Doubly Occupied:                                                      

       1A1    -6.876323     2A1    -0.637880     3A1    -0.458478  
       1B1    -0.458459  

    Virtual:                                                              

       1B2     0.005607     4A1     0.045558     5A1     0.057424  
       2B1     0.057445     2B2     0.087576     3B1     0.107787  
       6A1     0.107832     7A1     0.138977     8A1     0.223456  
       9A1     0.226659     4B1     0.226664     3B2     0.246822  
       1A2     0.246869    10A1     0.332911     5B1     0.333005  
      11A1     0.370794    12A1     0.419980     6B1     0.420128  
       4B2     0.452347     7B1     0.468640    13A1     0.485251  
       5B2     0.493834     2A2     0.493863     6B2     0.530968  
      14A1     0.556121     8B1     0.556231    15A1     0.807788  
       9B1     0.807818    16A1     0.836913     7B2     0.976427  
       3A2     0.976487    17A1     1.034854    10B1     1.046554  
      18A1     1.047239    19A1     1.313843    20A1     1.516743  
      11B1     1.518356    12B1     1.667614     8B2     1.848054  
       4A2     1.972282     9B2     1.972656    13B1     2.232477  
      21A1     2.233858    22A1     2.409156    23A1     2.454418  
      14B1     2.455164  

    Final Occupation by Irrep:
             A1    A2    B1    B2 
    DOCC [     3,    0,    1,    0 ]

  @DF-RKS Final Energy:   -26.59553664580278

   => Energetics <=

    Nuclear Repulsion Energy =              7.4344251691993781
    One-Electron Energy =                 -49.0558910101322354
    Two-Electron Energy =                  18.3091273959183063
    DFT Exchange-Correlation Energy =      -3.3170689685065033
    Empirical Dispersion Energy =           0.0000000000000000
    VV10 Nonlocal Energy =                  0.0338707677182697
    Total Energy =                        -26.5955366458027846

Computation Completed


Properties will be evaluated at   0.000000,   0.000000,   0.000000 [a0]

Properties computed using the SCF density matrix

  Nuclear Dipole Moment: [e a0]
     X:     0.0000      Y:     0.0000      Z:    -0.0000

  Electronic Dipole Moment: [e a0]
     X:     0.0000      Y:     0.0000      Z:    -0.0006

  Dipole Moment: [e a0]
     X:     0.0000      Y:     0.0000      Z:    -0.0006     Total:     0.0006

  Dipole Moment: [D]
     X:     0.0000      Y:     0.0000      Z:    -0.0014     Total:     0.0014


*** tstop() called on bp1-compute00105.data.bp.acrc.priv at Tue Apr 27 17:49:00 2021
Module time:
	user time   =      62.18 seconds =       1.04 minutes
	system time =       1.81 seconds =       0.03 minutes
	total time  =          3 seconds =       0.05 minutes
Total time:
	user time   =     315.43 seconds =       5.26 minutes
	system time =      10.26 seconds =       0.17 minutes
	total time  =         14 seconds =       0.23 minutes

  //>>>>>>>>>>>>>>>>>>>>>>>>>>>>>>>>>>>//
  //    Loading displacement 6 of 7    //
  //<<<<<<<<<<<<<<<<<<<<<<<<<<<<<<<<<<<//

*** tstart() called on bp1-compute00105.data.bp.acrc.priv
*** at Tue Apr 27 17:49:00 2021

   => Loading Basis Set <=

    Name: AUG-CC-PV(D+D)Z
    Role: ORBITAL
    Keyword: BASIS
    atoms 1   entry B          line   162 file /work/zw18965/.conda/envs/p4env/share/psi4/basis/aug-cc-pv_dpd_z.gbs 
    atoms 2-4 entry H          line    56 file /work/zw18965/.conda/envs/p4env/share/psi4/basis/aug-cc-pv_dpd_z.gbs 


         ---------------------------------------------------------
                                   SCF
               by Justin Turney, Rob Parrish, Andy Simmonett
                          and Daniel G. A. Smith
                              RKS Reference
                       24 Threads, 137329 MiB Core
         ---------------------------------------------------------

  ==> Geometry <==

    Molecular point group: c2v
    Full point group: C2v

    Geometry (in Angstrom), charge = 0, multiplicity = 1:

       Center              X                  Y                   Z               Mass       
    ------------   -----------------  -----------------  -----------------  -----------------
         B            0.000000000000     0.000000000000     0.000000000000    11.009305360000
         H            0.000000000000     0.000000000000     1.189900000000     1.007825032230
         H            1.028619981368     0.000000000000    -0.594950000000     1.007825032230
         H           -1.028619981368    -0.000000000000    -0.594950000000     1.007825032230

  Running in c2v symmetry.

  Rotational constants: A =      7.90445  B =      7.87588  C =      3.94507 [cm^-1]
  Rotational constants: A = 236969.33496  B = 236112.98414  C = 118270.19225 [MHz]
  Nuclear repulsion =    7.447882624197644

  Charge       = 0
  Multiplicity = 1
  Electrons    = 8
  Nalpha       = 4
  Nbeta        = 4

  ==> Algorithm <==

  SCF Algorithm Type is DF.
  DIIS enabled.
  MOM disabled.
  Fractional occupation disabled.
  Guess Type is SAD.
  Energy threshold   = 1.00e-08
  Density threshold  = 1.00e-08
  Integral threshold = 0.00e+00

  ==> Primary Basis <==

  Basis Set: AUG-CC-PV(D+D)Z
    Blend: AUG-CC-PV(D+D)Z
    Number of shells: 24
    Number of basis function: 50
    Number of Cartesian functions: 52
    Spherical Harmonics?: true
    Max angular momentum: 2

  ==> DFT Potential <==

   => Composite Functional: WB97X-V <= 

    wB97X-V Hyb-GGA Exchange-Correlation Functional

    N. Mardirossian and M. Head-Gordon, Phys. Chem. Chem. Phys. 16, 9904 (2014)

    Deriv               =              1
    GGA                 =           TRUE
    Meta                =          FALSE

    Exchange Hybrid     =           TRUE
    MP2 Hybrid          =          FALSE

   => Exchange-Correlation Functionals <=

    1.0000   wB97X-V range-separated functional

   => Exact (HF) Exchange <=

    0.8330            HF,LR [omega = 0.3000]
    0.1670               HF 

   => VV10 Non-Local Parameters <=

    VV10 B              =     6.0000E+00
    VV10 C              =     1.0000E-02

   => Molecular Quadrature <=

    Radial Scheme          =       TREUTLER
    Pruning Scheme         =           FLAT
    Nuclear Scheme         =       TREUTLER

    BS radius alpha        =              1
    Pruning alpha          =              1
    Radial Points          =             75
    Spherical Points       =            302
    Total Points           =          90600
    Total Blocks           =            759
    Max Points             =            256
    Max Functions          =             50

   => Loading Basis Set <=

    Name: (AUG-CC-PV(D+D)Z AUX)
    Role: JKFIT
    Keyword: DF_BASIS_SCF
    atoms 1   entry B          line    96 file /work/zw18965/.conda/envs/p4env/share/psi4/basis/aug-cc-pvdz-jkfit.gbs 
    atoms 2-4 entry H          line    70 file /work/zw18965/.conda/envs/p4env/share/psi4/basis/aug-cc-pvdz-jkfit.gbs 

  ==> Pre-Iterations <==

   -------------------------------------------------------
    Irrep   Nso     Nmo     Nalpha   Nbeta   Ndocc  Nsocc
   -------------------------------------------------------
     A1        23      23       0       0       0       0
     A2         4       4       0       0       0       0
     B1        14      14       0       0       0       0
     B2         9       9       0       0       0       0
   -------------------------------------------------------
    Total      50      50       4       4       4       0
   -------------------------------------------------------

  ==> Integral Setup <==

  ==> DiskDFJK: Density-Fitted J/K Matrices <==

    J tasked:                  Yes
    K tasked:                  Yes
    wK tasked:                 Yes
    Omega:               3.000E-01
    OpenMP threads:             24
    Integrals threads:          24
    Memory [MiB]:           102862
    Algorithm:                Core
    Integral Cache:           NONE
    Schwarz Cutoff:          1E-12
    Fitting Condition:       1E-10

   => Auxiliary Basis Set <=

  Basis Set: (AUG-CC-PV(D+D)Z AUX)
    Blend: AUG-CC-PVDZ-JKFIT
    Number of shells: 64
    Number of basis function: 182
    Number of Cartesian functions: 206
    Spherical Harmonics?: true
    Max angular momentum: 3

  Cached 100.0% of DFT collocation blocks in 0.131 [GiB].

  Minimum eigenvalue in the overlap matrix is 1.5148730753E-04.
  Using Symmetric Orthogonalization.

  SCF Guess: Superposition of Atomic Densities via on-the-fly atomic UHF.

  ==> Iterations <==

                           Total Energy        Delta E     RMS |[F,P]|

   @DF-RKS iter SAD:   -25.90172822368523   -2.59017e+01   0.00000e+00 
   @DF-RKS iter   1:   -26.58312148556696   -6.81393e-01   4.38178e-03 DIIS
   @DF-RKS iter   2:   -26.59451264870822   -1.13912e-02   1.22938e-03 DIIS
   @DF-RKS iter   3:   -26.59541442162192   -9.01773e-04   1.72102e-04 DIIS
   @DF-RKS iter   4:   -26.59545408930506   -3.96677e-05   2.33424e-05 DIIS
   @DF-RKS iter   5:   -26.59545496928800   -8.79983e-07   2.31968e-06 DIIS
   @DF-RKS iter   6:   -26.59545497675734   -7.46935e-09   1.26659e-07 DIIS
   @DF-RKS iter   7:   -26.59545497677556   -1.82148e-11   1.37227e-08 DIIS
   @DF-RKS iter   8:   -26.59545497677581   -2.55795e-13   1.42860e-09 DIIS
  Energy and wave function converged.


  ==> Post-Iterations <==

    Orbital Energies [Eh]
    ---------------------

    Doubly Occupied:                                                      

       1A1    -6.875630     2A1    -0.638228     3A1    -0.458728  
       1B1    -0.458708  

    Virtual:                                                              

       1B2     0.005682     4A1     0.045559     5A1     0.057388  
       2B1     0.057410     2B2     0.087596     3B1     0.107852  
       6A1     0.107906     7A1     0.138940     8A1     0.223880  
       9A1     0.226753     4B1     0.226757     3B2     0.246842  
       1A2     0.246889    10A1     0.332970     5B1     0.333058  
      11A1     0.371198    12A1     0.420330     6B1     0.420481  
       4B2     0.451972     7B1     0.469045    13A1     0.484442  
       5B2     0.494129     2A2     0.494158     6B2     0.531848  
      14A1     0.556073     8B1     0.556182    15A1     0.809140  
       9B1     0.809171    16A1     0.837576     7B2     0.976803  
       3A2     0.976862    17A1     1.036087    10B1     1.046486  
      18A1     1.047176    19A1     1.315097    20A1     1.519148  
      11B1     1.520764    12B1     1.667816     8B2     1.849308  
       4A2     1.973035     9B2     1.973413    13B1     2.235549  
      21A1     2.236942    22A1     2.413992    23A1     2.457683  
      14B1     2.458442  

    Final Occupation by Irrep:
             A1    A2    B1    B2 
    DOCC [     3,    0,    1,    0 ]

  @DF-RKS Final Energy:   -26.59545497677581

   => Energetics <=

    Nuclear Repulsion Energy =              7.4478826241976437
    One-Electron Energy =                 -49.0814333898582333
    Two-Electron Energy =                  18.3226941420079257
    DFT Exchange-Correlation Energy =      -3.3184708756081305
    Empirical Dispersion Energy =           0.0000000000000000
    VV10 Nonlocal Energy =                  0.0338725224849817
    Total Energy =                        -26.5954549767758124

Computation Completed


Properties will be evaluated at   0.000000,   0.000000,   0.000000 [a0]

Properties computed using the SCF density matrix

  Nuclear Dipole Moment: [e a0]
     X:     0.0000      Y:     0.0000      Z:    -0.0000

  Electronic Dipole Moment: [e a0]
     X:     0.0000      Y:     0.0000      Z:    -0.0006

  Dipole Moment: [e a0]
     X:     0.0000      Y:     0.0000      Z:    -0.0006     Total:     0.0006

  Dipole Moment: [D]
     X:     0.0000      Y:     0.0000      Z:    -0.0014     Total:     0.0014


*** tstop() called on bp1-compute00105.data.bp.acrc.priv at Tue Apr 27 17:49:03 2021
Module time:
	user time   =      61.53 seconds =       1.03 minutes
	system time =       1.87 seconds =       0.03 minutes
	total time  =          3 seconds =       0.05 minutes
Total time:
	user time   =     377.09 seconds =       6.28 minutes
	system time =      12.14 seconds =       0.20 minutes
	total time  =         17 seconds =       0.28 minutes

  //>>>>>>>>>>>>>>>>>>>>>>>>>>>>>>>>>>>//
  //    Loading displacement 7 of 7    //
  //<<<<<<<<<<<<<<<<<<<<<<<<<<<<<<<<<<<//

*** tstart() called on bp1-compute00105.data.bp.acrc.priv
*** at Tue Apr 27 17:49:03 2021

   => Loading Basis Set <=

    Name: AUG-CC-PV(D+D)Z
    Role: ORBITAL
    Keyword: BASIS
    atoms 1   entry B          line   162 file /work/zw18965/.conda/envs/p4env/share/psi4/basis/aug-cc-pv_dpd_z.gbs 
    atoms 2-4 entry H          line    56 file /work/zw18965/.conda/envs/p4env/share/psi4/basis/aug-cc-pv_dpd_z.gbs 


         ---------------------------------------------------------
                                   SCF
               by Justin Turney, Rob Parrish, Andy Simmonett
                          and Daniel G. A. Smith
                              RKS Reference
                       24 Threads, 137329 MiB Core
         ---------------------------------------------------------

  ==> Geometry <==

    Molecular point group: c2v
    Full point group: C2v

    Geometry (in Angstrom), charge = 0, multiplicity = 1:

       Center              X                  Y                   Z               Mass       
    ------------   -----------------  -----------------  -----------------  -----------------
         B            0.000000000000    -0.000000000000     0.000000000000    11.009305360000
         H            0.000000000000    -0.000000000000     1.189900000000     1.007825032230
         H            1.032347274632     0.000000000000    -0.594950000000     1.007825032230
         H           -1.032347274632    -0.000000000000    -0.594950000000     1.007825032230

  Running in c2v symmetry.

  Rotational constants: A =      7.87588  B =      7.84747  C =      3.93083 [cm^-1]
  Rotational constants: A = 236112.98414  B = 235261.26689  C = 117843.17802 [MHz]
  Nuclear repulsion =    7.434425174633400

  Charge       = 0
  Multiplicity = 1
  Electrons    = 8
  Nalpha       = 4
  Nbeta        = 4

  ==> Algorithm <==

  SCF Algorithm Type is DF.
  DIIS enabled.
  MOM disabled.
  Fractional occupation disabled.
  Guess Type is SAD.
  Energy threshold   = 1.00e-08
  Density threshold  = 1.00e-08
  Integral threshold = 0.00e+00

  ==> Primary Basis <==

  Basis Set: AUG-CC-PV(D+D)Z
    Blend: AUG-CC-PV(D+D)Z
    Number of shells: 24
    Number of basis function: 50
    Number of Cartesian functions: 52
    Spherical Harmonics?: true
    Max angular momentum: 2

  ==> DFT Potential <==

   => Composite Functional: WB97X-V <= 

    wB97X-V Hyb-GGA Exchange-Correlation Functional

    N. Mardirossian and M. Head-Gordon, Phys. Chem. Chem. Phys. 16, 9904 (2014)

    Deriv               =              1
    GGA                 =           TRUE
    Meta                =          FALSE

    Exchange Hybrid     =           TRUE
    MP2 Hybrid          =          FALSE

   => Exchange-Correlation Functionals <=

    1.0000   wB97X-V range-separated functional

   => Exact (HF) Exchange <=

    0.8330            HF,LR [omega = 0.3000]
    0.1670               HF 

   => VV10 Non-Local Parameters <=

    VV10 B              =     6.0000E+00
    VV10 C              =     1.0000E-02

   => Molecular Quadrature <=

    Radial Scheme          =       TREUTLER
    Pruning Scheme         =           FLAT
    Nuclear Scheme         =       TREUTLER

    BS radius alpha        =              1
    Pruning alpha          =              1
    Radial Points          =             75
    Spherical Points       =            302
    Total Points           =          90600
    Total Blocks           =            757
    Max Points             =            256
    Max Functions          =             50

   => Loading Basis Set <=

    Name: (AUG-CC-PV(D+D)Z AUX)
    Role: JKFIT
    Keyword: DF_BASIS_SCF
    atoms 1   entry B          line    96 file /work/zw18965/.conda/envs/p4env/share/psi4/basis/aug-cc-pvdz-jkfit.gbs 
    atoms 2-4 entry H          line    70 file /work/zw18965/.conda/envs/p4env/share/psi4/basis/aug-cc-pvdz-jkfit.gbs 

  ==> Pre-Iterations <==

   -------------------------------------------------------
    Irrep   Nso     Nmo     Nalpha   Nbeta   Ndocc  Nsocc
   -------------------------------------------------------
     A1        23      23       0       0       0       0
     A2         4       4       0       0       0       0
     B1        14      14       0       0       0       0
     B2         9       9       0       0       0       0
   -------------------------------------------------------
    Total      50      50       4       4       4       0
   -------------------------------------------------------

  ==> Integral Setup <==

  ==> DiskDFJK: Density-Fitted J/K Matrices <==

    J tasked:                  Yes
    K tasked:                  Yes
    wK tasked:                 Yes
    Omega:               3.000E-01
    OpenMP threads:             24
    Integrals threads:          24
    Memory [MiB]:           102862
    Algorithm:                Core
    Integral Cache:           NONE
    Schwarz Cutoff:          1E-12
    Fitting Condition:       1E-10

   => Auxiliary Basis Set <=

  Basis Set: (AUG-CC-PV(D+D)Z AUX)
    Blend: AUG-CC-PVDZ-JKFIT
    Number of shells: 64
    Number of basis function: 182
    Number of Cartesian functions: 206
    Spherical Harmonics?: true
    Max angular momentum: 3

  Cached 100.0% of DFT collocation blocks in 0.131 [GiB].

  Minimum eigenvalue in the overlap matrix is 1.5273932139E-04.
  Using Symmetric Orthogonalization.

  SCF Guess: Superposition of Atomic Densities via on-the-fly atomic UHF.

  ==> Iterations <==

                           Total Energy        Delta E     RMS |[F,P]|

   @DF-RKS iter SAD:   -25.90084281633756   -2.59008e+01   0.00000e+00 
   @DF-RKS iter   1:   -26.58330487120279   -6.82462e-01   4.35994e-03 DIIS
   @DF-RKS iter   2:   -26.59459849771879   -1.12936e-02   1.22537e-03 DIIS
   @DF-RKS iter   3:   -26.59549597177852   -8.97474e-04   1.72255e-04 DIIS
   @DF-RKS iter   4:   -26.59553574844684   -3.97767e-05   2.33795e-05 DIIS
   @DF-RKS iter   5:   -26.59553663199801   -8.83551e-07   2.32102e-06 DIIS
   @DF-RKS iter   6:   -26.59553663951084   -7.51283e-09   1.26361e-07 DIIS
   @DF-RKS iter   7:   -26.59553663952951   -1.86731e-11   1.36929e-08 DIIS
   @DF-RKS iter   8:   -26.59553663952977   -2.52243e-13   1.43112e-09 DIIS
  Energy and wave function converged.


  ==> Post-Iterations <==

    Orbital Energies [Eh]
    ---------------------

    Doubly Occupied:                                                      

       1A1    -6.876323     2A1    -0.637880     1B1    -0.458477  
       3A1    -0.458460  

    Virtual:                                                              

       1B2     0.005608     4A1     0.045562     2B1     0.057434  
       5A1     0.057439     2B2     0.087577     3B1     0.107809  
       6A1     0.107820     7A1     0.138977     8A1     0.223456  
       4B1     0.226645     9A1     0.226678     1A2     0.246824  
       3B2     0.246867     5B1     0.332915    10A1     0.333006  
      11A1     0.370793     6B1     0.419983    12A1     0.420125  
       4B2     0.452348     7B1     0.468640    13A1     0.485252  
       2A2     0.493836     5B2     0.493861     6B2     0.530968  
       8B1     0.556120    14A1     0.556232     9B1     0.807787  
      15A1     0.807820    16A1     0.836913     3A2     0.976427  
       7B2     0.976486    17A1     1.034853    18A1     1.046551  
      10B1     1.047243    19A1     1.313843    11B1     1.516742  
      20A1     1.518357    12B1     1.667614     8B2     1.848054  
       9B2     1.972284     4A2     1.972654    21A1     2.232467  
      13B1     2.233868    22A1     2.409156    14B1     2.454402  
      23A1     2.455181  

    Final Occupation by Irrep:
             A1    A2    B1    B2 
    DOCC [     3,    0,    1,    0 ]

  @DF-RKS Final Energy:   -26.59553663952977

   => Energetics <=

    Nuclear Repulsion Energy =              7.4344251746334002
    One-Electron Energy =                 -49.0558910678297195
    Two-Electron Energy =                  18.3091274578193755
    DFT Exchange-Correlation Energy =      -3.3170689708225747
    Empirical Dispersion Energy =           0.0000000000000000
    VV10 Nonlocal Energy =                  0.0338707666697491
    Total Energy =                        -26.5955366395297652

Computation Completed


Properties will be evaluated at   0.000000,   0.000000,   0.000000 [a0]

Properties computed using the SCF density matrix

  Nuclear Dipole Moment: [e a0]
     X:     0.0000      Y:     0.0000      Z:    -0.0000

  Electronic Dipole Moment: [e a0]
     X:     0.0000      Y:     0.0000      Z:     0.0006

  Dipole Moment: [e a0]
     X:     0.0000      Y:     0.0000      Z:     0.0006     Total:     0.0006

  Dipole Moment: [D]
     X:     0.0000      Y:     0.0000      Z:     0.0015     Total:     0.0015


*** tstop() called on bp1-compute00105.data.bp.acrc.priv at Tue Apr 27 17:49:05 2021
Module time:
	user time   =      61.33 seconds =       1.02 minutes
	system time =       1.69 seconds =       0.03 minutes
	total time  =          2 seconds =       0.03 minutes
Total time:
	user time   =     438.56 seconds =       7.31 minutes
	system time =      13.83 seconds =       0.23 minutes
	total time  =         19 seconds =       0.32 minutes

         ----------------------------------------------------------
                                   FINDIF
                     R. A. King and Jonathon Misiewicz
         ---------------------------------------------------------

  Computing gradient from energies.
    Using 3-point formula.
    Energy without displacement:  -26.5954984757
    Check energies below for precision!
    Forces are for mass-weighted, symmetry-adapted cartesians (in au).

     Coord      Energy(-1)        Energy(+1)            Force
        0    -26.5954961947    -26.5954961833      0.0000011420
        1    -26.5954549705    -26.5955366458     -0.0081675327
        2    -26.5954549768    -26.5955366395     -0.0081662754


-------------------------------------------------------------
  ## New Matrix (Symmetry 0) ##
  Irrep: 1 Size: 4 x 3

                 1                   2                   3

    1     0.00000000000000     0.00000000000000     0.00000175884581
    2     0.00000000000000     0.00000000000000    -0.00669538956899
    3    -0.00579697722965     0.00000000000000     0.00334681536159
    4     0.00579697722965     0.00000000000000     0.00334681536159




			-----------------------------------------
			 OPTKING 2.0: for geometry optimizations 
			  - R.A. King,  Bethel University        
			-----------------------------------------
	At level 1: Red. Int., RFO, no backsteps, dynamic trust

	Internal coordinates to be generated automatically.
	Detected frag 1 with atoms:  1 2 3 4
	---Fragment 1 Bond Connectivity---
	 1 : 2 3 4
	 2 : 1
	 3 : 1
	 4 : 1

	---Fragment 1 Geometry and Gradient---
	 B           0.0000000000        0.0000000000       -0.0000000000
	 H           0.0000000000        0.0000000000        2.2485851167
	 H           1.9473318337        0.0000000000       -1.1242925583
	 H          -1.9473318337       -0.0000000000       -1.1242925583
	             0.0000000000        0.0000000000        0.0000017588
	             0.0000000000        0.0000000000       -0.0066953896
	            -0.0057969772        0.0000000000        0.0033468154
	             0.0057969772        0.0000000000        0.0033468154

	Previous optimization step data not found.  Starting new optimization.

	---Fragment 1 Intrafragment Coordinates---
	 - Coordinate -           - BOHR/RAD -       - ANG/DEG -
	 R(1,2)           =         2.248585	       1.189900
	 R(1,3)           =         2.248585	       1.189900
	 R(1,4)           =         2.248585	       1.189900
	 B(2,1,3)         =         2.094395	     120.000000
	 B(2,1,4)         =         2.094395	     120.000000
	 B(3,1,4)         =         2.094395	     120.000000

	Current energy   :       -26.5954984757

	Generating empirical Hessian (Schlegel '84) for each fragment.
	Taking RFO optimization step.
	Going to follow RFO solution 1.
	Using RFO vector 1.
	Norm of target step-size    0.04552
	Projected energy change by RFO approximation:        -0.0005267462

	Back-transformation to cartesian coordinates...
	Successfully converged to displaced geometry.

	--- Internal Coordinate Step in ANG or DEG, aJ/ANG or AJ/DEG ---
	 ---------------------------------------------------------------------------
	   Coordinate                Previous        Force       Change         New 
	   ----------                --------       ------       ------       ------
	    1 R(1,2)          =      1.189900     0.055161     0.013911     1.203811
	    2 R(1,3)          =      1.189900     0.055148     0.013907     1.203807
	    3 R(1,4)          =      1.189900     0.055148     0.013907     1.203807
	    4 B(2,1,3)        =    120.000000    -0.000000    -0.000016   119.999984
	    5 B(2,1,4)        =    120.000000    -0.000000    -0.000016   119.999984
	    6 B(3,1,4)        =    120.000000     0.000000     0.000033   120.000033
	 ---------------------------------------------------------------------------
	Successfully symmetrized geometry.

  ==> Convergence Check <==

  Measures of convergence in internal coordinates in au.
  Criteria marked as inactive (o), active & met (*), and active & unmet ( ).
  --------------------------------------------------------------------------------------------- ~
   Step     Total Energy     Delta E     MAX Force     RMS Force      MAX Disp      RMS Disp    ~
  --------------------------------------------------------------------------------------------- ~
    Convergence Criteria    1.00e-06 *    3.00e-04 *             o    1.20e-03 *             o  ~
  --------------------------------------------------------------------------------------------- ~
      1     -26.59549848   -2.66e+01      6.70e-03      4.73e-03 o    2.63e-02      1.86e-02 o  ~
  ---------------------------------------------------------------------------------------------

	Writing optimization data to binary file.
	Structure for next step:
	Cartesian Geometry (in Angstrom)
	    B     0.0000000000   0.0000000000  -0.0000010079
	    H     0.0000000000  -0.0000000000   1.2038095264
	    H     1.0425277039   0.0000000000  -0.6019042593
	    H    -1.0425277039  -0.0000000000  -0.6019042593
			--------------------------
			 OPTKING Finished Execution 
			--------------------------

    Structure for next step:
    Molecular point group: c2v
    Full point group: C2v

    Geometry (in Angstrom), charge = 0, multiplicity = 1:

    B            0.000000000000     0.000000000000    -0.000000289546
    H            0.000000000000     0.000000000000     1.203810249497
    H            1.042527707976     0.000000000000    -0.601903543275
    H           -1.042527707976    -0.000000000000    -0.601903543275

gradient() will perform gradient computation by finite difference of analytic energies.

         ----------------------------------------------------------
                                   FINDIF
                     R. A. King and Jonathon Misiewicz
         ---------------------------------------------------------

  Using finite-differences of energies to determine gradients.
    Generating geometries for use with 3-point formula.
    Displacement size will be 5.00e-03.
    Number of atoms is 4.
    Number of symmetric SALCs is 3.
    Translations projected? 1. Rotations projected? 1.
    Number of geometries (including reference) is 7.

  //>>>>>>>>>>>>>>>>>>>>>>>>>>>>>>>>>>>//
  //    Loading displacement 1 of 7    //
  //<<<<<<<<<<<<<<<<<<<<<<<<<<<<<<<<<<<//

*** tstart() called on bp1-compute00105.data.bp.acrc.priv
*** at Tue Apr 27 17:49:05 2021

   => Loading Basis Set <=

    Name: AUG-CC-PV(D+D)Z
    Role: ORBITAL
    Keyword: BASIS
    atoms 1   entry B          line   162 file /work/zw18965/.conda/envs/p4env/share/psi4/basis/aug-cc-pv_dpd_z.gbs 
    atoms 2-4 entry H          line    56 file /work/zw18965/.conda/envs/p4env/share/psi4/basis/aug-cc-pv_dpd_z.gbs 


         ---------------------------------------------------------
                                   SCF
               by Justin Turney, Rob Parrish, Andy Simmonett
                          and Daniel G. A. Smith
                              RKS Reference
                       24 Threads, 137329 MiB Core
         ---------------------------------------------------------

  ==> Geometry <==

    Molecular point group: c2v
    Full point group: C2v

    Geometry (in Angstrom), charge = 0, multiplicity = 1:

       Center              X                  Y                   Z               Mass       
    ------------   -----------------  -----------------  -----------------  -----------------
         B            0.000000000000     0.000000000000    -0.000000289546    11.009305360000
         H            0.000000000000     0.000000000000     1.203810249497     1.007825032230
         H            1.042527707976     0.000000000000    -0.601903543275     1.007825032230
         H           -1.042527707976    -0.000000000000    -0.601903543275     1.007825032230

  Running in c2v symmetry.

  Rotational constants: A =      7.69496  B =      7.69493  C =      3.84747 [cm^-1]
  Rotational constants: A = 230688.98058  B = 230688.25640  C = 115344.30924 [MHz]
  Nuclear repulsion =    7.355174689988125

  Charge       = 0
  Multiplicity = 1
  Electrons    = 8
  Nalpha       = 4
  Nbeta        = 4

  ==> Algorithm <==

  SCF Algorithm Type is DF.
  DIIS enabled.
  MOM disabled.
  Fractional occupation disabled.
  Guess Type is READ.
  Energy threshold   = 1.00e-08
  Density threshold  = 1.00e-08
  Integral threshold = 0.00e+00

  ==> Primary Basis <==

  Basis Set: AUG-CC-PV(D+D)Z
    Blend: AUG-CC-PV(D+D)Z
    Number of shells: 24
    Number of basis function: 50
    Number of Cartesian functions: 52
    Spherical Harmonics?: true
    Max angular momentum: 2

  ==> DFT Potential <==

   => Composite Functional: WB97X-V <= 

    wB97X-V Hyb-GGA Exchange-Correlation Functional

    N. Mardirossian and M. Head-Gordon, Phys. Chem. Chem. Phys. 16, 9904 (2014)

    Deriv               =              1
    GGA                 =           TRUE
    Meta                =          FALSE

    Exchange Hybrid     =           TRUE
    MP2 Hybrid          =          FALSE

   => Exchange-Correlation Functionals <=

    1.0000   wB97X-V range-separated functional

   => Exact (HF) Exchange <=

    0.8330            HF,LR [omega = 0.3000]
    0.1670               HF 

   => VV10 Non-Local Parameters <=

    VV10 B              =     6.0000E+00
    VV10 C              =     1.0000E-02

   => Molecular Quadrature <=

    Radial Scheme          =       TREUTLER
    Pruning Scheme         =           FLAT
    Nuclear Scheme         =       TREUTLER

    BS radius alpha        =              1
    Pruning alpha          =              1
    Radial Points          =             75
    Spherical Points       =            302
    Total Points           =          90600
    Total Blocks           =            753
    Max Points             =            256
    Max Functions          =             50

   => Loading Basis Set <=

    Name: (AUG-CC-PV(D+D)Z AUX)
    Role: JKFIT
    Keyword: DF_BASIS_SCF
    atoms 1   entry B          line    96 file /work/zw18965/.conda/envs/p4env/share/psi4/basis/aug-cc-pvdz-jkfit.gbs 
    atoms 2-4 entry H          line    70 file /work/zw18965/.conda/envs/p4env/share/psi4/basis/aug-cc-pvdz-jkfit.gbs 

   => Loading Basis Set <=

    Name: AUG-CC-PV(D+D)Z
    Role: ORBITAL
    Keyword: BASIS
    atoms 1   entry B          line   162 file /work/zw18965/.conda/envs/p4env/share/psi4/basis/aug-cc-pv_dpd_z.gbs 
    atoms 2-4 entry H          line    56 file /work/zw18965/.conda/envs/p4env/share/psi4/basis/aug-cc-pv_dpd_z.gbs 

  Reading orbitals from file 180, no projection.

  ==> Pre-Iterations <==

   -------------------------------------------------------
    Irrep   Nso     Nmo     Nalpha   Nbeta   Ndocc  Nsocc
   -------------------------------------------------------
     A1        23      23       0       0       0       0
     A2         4       4       0       0       0       0
     B1        14      14       0       0       0       0
     B2         9       9       0       0       0       0
   -------------------------------------------------------
    Total      50      50       4       4       4       0
   -------------------------------------------------------

  ==> Integral Setup <==

  ==> DiskDFJK: Density-Fitted J/K Matrices <==

    J tasked:                  Yes
    K tasked:                  Yes
    wK tasked:                 Yes
    Omega:               3.000E-01
    OpenMP threads:             24
    Integrals threads:          24
    Memory [MiB]:           102862
    Algorithm:                Core
    Integral Cache:           NONE
    Schwarz Cutoff:          1E-12
    Fitting Condition:       1E-10

   => Auxiliary Basis Set <=

  Basis Set: (AUG-CC-PV(D+D)Z AUX)
    Blend: AUG-CC-PVDZ-JKFIT
    Number of shells: 64
    Number of basis function: 182
    Number of Cartesian functions: 206
    Spherical Harmonics?: true
    Max angular momentum: 3

  Cached 100.0% of DFT collocation blocks in 0.131 [GiB].

  Minimum eigenvalue in the overlap matrix is 1.6068975559E-04.
[...]

Computation Completed


Properties will be evaluated at   0.000000,   0.000000,   0.000000 [a0]

Properties computed using the SCF density matrix

  Nuclear Dipole Moment: [e a0]
     X:     0.0041      Y:     0.0000      Z:     0.0000

  Electronic Dipole Moment: [e a0]
     X:    -0.0067      Y:     0.0000      Z:    -0.0000

  Dipole Moment: [e a0]
     X:    -0.0026      Y:     0.0000      Z:    -0.0000     Total:     0.0026

  Dipole Moment: [D]
     X:    -0.0065      Y:     0.0000      Z:    -0.0000     Total:     0.0065


*** tstop() called on bp1-compute00105.data.bp.acrc.priv at Tue Apr 27 17:50:27 2021
Module time:
	user time   =      67.52 seconds =       1.13 minutes
	system time =       1.75 seconds =       0.03 minutes
	total time  =          3 seconds =       0.05 minutes
Total time:
	user time   =    2328.68 seconds =      38.81 minutes
	system time =      65.22 seconds =       1.09 minutes
	total time  =        101 seconds =       1.68 minutes

  //>>>>>>>>>>>>>>>>>>>>>>>>>>>>>>>>>>>//
  //   Loading displacement 18 of 18   //
  //<<<<<<<<<<<<<<<<<<<<<<<<<<<<<<<<<<<//

*** tstart() called on bp1-compute00105.data.bp.acrc.priv
*** at Tue Apr 27 17:50:27 2021

   => Loading Basis Set <=

    Name: AUG-CC-PV(D+D)Z
    Role: ORBITAL
    Keyword: BASIS
    atoms 1   entry B          line   162 file /work/zw18965/.conda/envs/p4env/share/psi4/basis/aug-cc-pv_dpd_z.gbs 
    atoms 2-4 entry H          line    56 file /work/zw18965/.conda/envs/p4env/share/psi4/basis/aug-cc-pv_dpd_z.gbs 


         ---------------------------------------------------------
                                   SCF
               by Justin Turney, Rob Parrish, Andy Simmonett
                          and Daniel G. A. Smith
                              RKS Reference
                       24 Threads, 137329 MiB Core
         ---------------------------------------------------------

  ==> Geometry <==

    Molecular point group: cs
    Full point group: Cs

    Geometry (in Angstrom), charge = 0, multiplicity = 1:

       Center              X                  Y                   Z               Mass       
    ------------   -----------------  -----------------  -----------------  -----------------
         B            0.000000000000    -0.000370145531    -0.000000289546    11.009305360000
         H            0.000000000000     0.001347798793     1.203810249497     1.007825032230
         H            1.042527707976     0.001347803307    -0.601903543275     1.007825032230
         H           -1.042527707976     0.001347803307    -0.601903543275     1.007825032230

  Running in cs symmetry.

  Rotational constants: A =      7.69493  B =      7.69491  C =      3.84747 [cm^-1]
  Rotational constants: A = 230688.24339  B = 230687.51921  C = 115344.30924 [MHz]
  Nuclear repulsion =    7.355167975553067

  Charge       = 0
  Multiplicity = 1
  Electrons    = 8
  Nalpha       = 4
  Nbeta        = 4

  ==> Algorithm <==

  SCF Algorithm Type is DF.
  DIIS enabled.
  MOM disabled.
  Fractional occupation disabled.
  Guess Type is SAD.
  Energy threshold   = 1.00e-10
  Density threshold  = 1.00e-10
  Integral threshold = 0.00e+00

  ==> Primary Basis <==

  Basis Set: AUG-CC-PV(D+D)Z
    Blend: AUG-CC-PV(D+D)Z
    Number of shells: 24
    Number of basis function: 50
    Number of Cartesian functions: 52
    Spherical Harmonics?: true
    Max angular momentum: 2

  ==> DFT Potential <==

   => Composite Functional: WB97X-V <= 

    wB97X-V Hyb-GGA Exchange-Correlation Functional

    N. Mardirossian and M. Head-Gordon, Phys. Chem. Chem. Phys. 16, 9904 (2014)

    Deriv               =              1
    GGA                 =           TRUE
    Meta                =          FALSE

    Exchange Hybrid     =           TRUE
    MP2 Hybrid          =          FALSE

   => Exchange-Correlation Functionals <=

    1.0000   wB97X-V range-separated functional

   => Exact (HF) Exchange <=

    0.8330            HF,LR [omega = 0.3000]
    0.1670               HF 

   => VV10 Non-Local Parameters <=

    VV10 B              =     6.0000E+00
    VV10 C              =     1.0000E-02

   => Molecular Quadrature <=

    Radial Scheme          =       TREUTLER
    Pruning Scheme         =           FLAT
    Nuclear Scheme         =       TREUTLER

    BS radius alpha        =              1
    Pruning alpha          =              1
    Radial Points          =             75
    Spherical Points       =            302
    Total Points           =          90600
    Total Blocks           =            751
    Max Points             =            255
    Max Functions          =             50

   => Loading Basis Set <=

    Name: (AUG-CC-PV(D+D)Z AUX)
    Role: JKFIT
    Keyword: DF_BASIS_SCF
    atoms 1   entry B          line    96 file /work/zw18965/.conda/envs/p4env/share/psi4/basis/aug-cc-pvdz-jkfit.gbs 
    atoms 2-4 entry H          line    70 file /work/zw18965/.conda/envs/p4env/share/psi4/basis/aug-cc-pvdz-jkfit.gbs 

  ==> Pre-Iterations <==

   -------------------------------------------------------
    Irrep   Nso     Nmo     Nalpha   Nbeta   Ndocc  Nsocc
   -------------------------------------------------------
     A'        32      32       0       0       0       0
     A"        18      18       0       0       0       0
   -------------------------------------------------------
    Total      50      50       4       4       4       0
   -------------------------------------------------------

  ==> Integral Setup <==

  ==> DiskDFJK: Density-Fitted J/K Matrices <==

    J tasked:                  Yes
    K tasked:                  Yes
    wK tasked:                 Yes
    Omega:               3.000E-01
    OpenMP threads:             24
    Integrals threads:          24
    Memory [MiB]:           102862
    Algorithm:                Core
    Integral Cache:           NONE
    Schwarz Cutoff:          1E-12
    Fitting Condition:       1E-10

   => Auxiliary Basis Set <=

  Basis Set: (AUG-CC-PV(D+D)Z AUX)
    Blend: AUG-CC-PVDZ-JKFIT
    Number of shells: 64
    Number of basis function: 182
    Number of Cartesian functions: 206
    Spherical Harmonics?: true
    Max angular momentum: 3

  Cached 100.0% of DFT collocation blocks in 0.131 [GiB].

  Minimum eigenvalue in the overlap matrix is 1.6069341368E-04.
  Using Symmetric Orthogonalization.

  SCF Guess: Superposition of Atomic Densities via on-the-fly atomic UHF.

  ==> Iterations <==

                           Total Energy        Delta E     RMS |[F,P]|

   @DF-RKS iter SAD:   -25.89541755173138   -2.58954e+01   0.00000e+00 
   @DF-RKS iter   1:   -26.58411464821683   -6.88697e-01   3.30424e-03 DIIS
   @DF-RKS iter   2:   -26.59484287355122   -1.07282e-02   9.38287e-04 DIIS
   @DF-RKS iter   3:   -26.59571498375604   -8.72110e-04   1.35251e-04 DIIS
   @DF-RKS iter   4:   -26.59575542585870   -4.04421e-05   1.84248e-05 DIIS
   @DF-RKS iter   5:   -26.59575632971879   -9.03860e-07   1.82550e-06 DIIS
   @DF-RKS iter   6:   -26.59575633735248   -7.63369e-09   1.00217e-07 DIIS
   @DF-RKS iter   7:   -26.59575633737136   -1.88862e-11   1.20070e-08 DIIS
   @DF-RKS iter   8:   -26.59575633737159   -2.23821e-13   1.64947e-09 DIIS
   @DF-RKS iter   9:   -26.59575633737164   -5.32907e-14   1.97367e-10 DIIS
   @DF-RKS iter  10:   -26.59575633737159    4.61853e-14   3.01192e-11 DIIS
  Energy and wave function converged.


  ==> Post-Iterations <==

    Orbital Energies [Eh]
    ---------------------

    Doubly Occupied:                                                      

       1Ap    -6.880442     2Ap    -0.635812     3Ap    -0.456985  
       1App   -0.456985  

    Virtual:                                                              

       4Ap     0.005158     5Ap     0.045535     2App    0.057646  
       6Ap     0.057656     7Ap     0.087448     8Ap     0.107363  
       3App    0.107373     9Ap     0.139191    10Ap     0.220872  
      11Ap     0.226075     4App    0.226075    12Ap     0.246721  
       5App    0.246723    13Ap     0.332607     6App    0.332610  
      14Ap     0.368438    15Ap     0.418027     7App    0.418030  
      16Ap     0.454528     8App    0.466224    17Ap     0.489952  
      18Ap     0.492105     9App    0.492105    19Ap     0.525814  
      20Ap     0.556503    10App    0.556503    21Ap     0.799731  
      11App    0.799731    22Ap     0.832552    23Ap     0.974250  
      12App    0.974250    24Ap     1.028883    25Ap     1.047273  
      13App    1.047277    26Ap     1.306632    27Ap     1.503248  
      14App    1.503252    15App    1.666629    28Ap     1.840760  
      29Ap     1.967917    16App    1.967920    17App    2.214932  
      30Ap     2.214933    31Ap     2.381226    32Ap     2.435886  
      18App    2.435887  

    Final Occupation by Irrep:
             Ap   App 
    DOCC [     3,    1 ]

  @DF-RKS Final Energy:   -26.59575633737159

   => Energetics <=

    Nuclear Repulsion Energy =              7.3551679755530666
    One-Electron Energy =                 -48.9049496413035811
    Two-Electron Energy =                  18.2289583179150085
    DFT Exchange-Correlation Energy =      -3.3087933394003293
    Empirical Dispersion Energy =           0.0000000000000000
    VV10 Nonlocal Energy =                  0.0338603498642445
    Total Energy =                        -26.5957563373715900

Computation Completed


Properties will be evaluated at   0.000000,   0.000000,   0.000000 [a0]

Properties computed using the SCF density matrix

  Nuclear Dipole Moment: [e a0]
     X:     0.0000      Y:     0.0041      Z:     0.0000

  Electronic Dipole Moment: [e a0]
     X:     0.0000      Y:    -0.0055      Z:    -0.0000

  Dipole Moment: [e a0]
     X:     0.0000      Y:    -0.0014      Z:     0.0000     Total:     0.0014

  Dipole Moment: [D]
     X:     0.0000      Y:    -0.0036      Z:     0.0000     Total:     0.0036


*** tstop() called on bp1-compute00105.data.bp.acrc.priv at Tue Apr 27 17:50:30 2021
Module time:
	user time   =      67.08 seconds =       1.12 minutes
	system time =       1.72 seconds =       0.03 minutes
	total time  =          3 seconds =       0.05 minutes
Total time:
	user time   =    2395.89 seconds =      39.93 minutes
	system time =      66.95 seconds =       1.12 minutes
	total time  =        104 seconds =       1.73 minutes

         ----------------------------------------------------------
                                   FINDIF
                     R. A. King and Jonathon Misiewicz
         ---------------------------------------------------------

  Computing second-derivative from energies using projected, 
  symmetry-adapted, cartesian coordinates.

  18 energies passed in, including the reference geometry.
    Using 3-point formula.
    Energy without displacement:  -26.5957569591
    Check energies below for precision!
    0: -1        :       -26.5957547942
    0: 1         :       -26.5957547930
    1: -1        :       -26.5957548231
    1: 1         :       -26.5957540690
    2: -1        :       -26.5957548233
    2: 1         :       -26.5957540692
    0: 1, 1: 1   :       -26.5957538493
    0: -1, 1: -1 :       -26.5957546100
    0: 1, 2: 1   :       -26.5957499691
    0: -1, 2: -1 :       -26.5957506938
    1: 1, 2: 1   :       -26.5957500435
    1: -1, 2: -1 :       -26.5957515355
    3: -1        :       -26.5957547931
    4: -1        :       -26.5957549733
    3: 1, 4: 1   :       -26.5957500507
    3: -1, 4: -1 :       -26.5957500507
    5: -1        :       -26.5957563374

-------------------------------------------------------------


  ==> Harmonic Vibrational Analysis <==

  non-mass-weighted Hessian:       Symmetric? True   Hermitian? True   Lin Dep Dim?  6 (0)
  projection of translations (True) and rotations (True) removed 6 degrees of freedom (6)
  total projector:                 Symmetric? True   Hermitian? True   Lin Dep Dim?  6 (6)
  mass-weighted Hessian:           Symmetric? True   Hermitian? True   Lin Dep Dim?  6 (0)
  pre-proj  low-frequency mode:    0.0000i [cm^-1]
  pre-proj  low-frequency mode:    0.0000i [cm^-1]
  pre-proj  low-frequency mode:    0.0000i [cm^-1]
  pre-proj  low-frequency mode:    0.0000  [cm^-1]
  pre-proj  low-frequency mode:    0.0000  [cm^-1]
  pre-proj  low-frequency mode:    0.0000  [cm^-1]
  pre-proj  all modes:['0.0000i' '0.0000i' '0.0000i' '0.0000' '0.0000' '0.0000' '1146.3909'
 '1190.4559' '1211.7671' '2553.6502' '2695.1554' '2703.3741']
  projected mass-weighted Hessian: Symmetric? True   Hermitian? True   Lin Dep Dim?  6 (6)
  post-proj low-frequency mode:    0.0000i [cm^-1] (TR)
  post-proj low-frequency mode:    0.0000i [cm^-1] (TR)
  post-proj low-frequency mode:    0.0000i [cm^-1] (TR)
  post-proj low-frequency mode:    0.0000  [cm^-1] (TR)
  post-proj low-frequency mode:    0.0000  [cm^-1] (TR)
  post-proj low-frequency mode:    0.0000  [cm^-1] (TR)
  post-proj  all modes:['0.0000i' '0.0000i' '0.0000i' '0.0000' '0.0000' '0.0000' '1146.3909'
 '1190.4559' '1211.7671' '2553.6502' '2695.1554' '2703.3741']

  Vibration                       7                   8                   9           
  Freq [cm^-1]                1146.3909           1190.4559           1211.7671       
  Irrep                           B2                  A1                  B1          
  Reduced mass [u]              1.2531              1.1074              1.1093        
  Force const [mDyne/A]         0.9703              0.9247              0.9597        
  Turning point v=0 [a0]        0.2895              0.3022              0.2993        
  RMS dev v=0 [a0 u^1/2]        0.2292              0.2249              0.2229        
  Char temp [K]               1649.4012           1712.8009           1743.4631       
  ----------------------------------------------------------------------------------
      1   B               -0.00 -0.16  0.00   -0.00 -0.00 -0.10   -0.10  0.00  0.00   
      2   H                0.00  0.57  0.00    0.00  0.00 -0.08    0.81 -0.00  0.00   
      3   H               -0.00  0.57 -0.00    0.39  0.00  0.59    0.15 -0.00  0.38   
      4   H                0.00  0.57 -0.00   -0.39  0.00  0.59    0.15 -0.00 -0.38   

  Vibration                       10                  11                  12          
  Freq [cm^-1]                2553.6502           2695.1554           2703.3741       
  Irrep                           A1                  A1                  B1          
  Reduced mass [u]              1.0078              1.1271              1.1251        
  Force const [mDyne/A]         3.8722              4.8236              4.8447        
  Turning point v=0 [a0]        0.2163              0.1991              0.1990        
  RMS dev v=0 [a0 u^1/2]        0.1535              0.1495              0.1492        
  Char temp [K]               3674.1341           3877.7286           3889.5535       
  ----------------------------------------------------------------------------------
      1   B                0.00  0.00  0.00   -0.00 -0.00 -0.11   -0.11  0.00  0.00   
      2   H               -0.00  0.00  0.58    0.00 -0.00  0.81   -0.02 -0.00 -0.00   
      3   H                0.50  0.00 -0.29   -0.36  0.00  0.19    0.60  0.00 -0.36   
      4   H               -0.50  0.00 -0.29    0.36  0.00  0.19    0.60  0.00  0.36   

  ==> Thermochemistry Components <==

  Entropy, S
    Electronic S            0.000 [cal/(mol K)]        0.000 [J/(mol K)]       0.00000000 [mEh/K] (multiplicity = 1)
    Translational S        33.864 [cal/(mol K)]      141.688 [J/(mol K)]       0.05396630 [mEh/K] (mol. weight = 14.0328 [u], P = 101325.00 [Pa])
    Rotational S           13.246 [cal/(mol K)]       55.421 [J/(mol K)]       0.02110885 [mEh/K] (symmetry no. = 2)
    Vibrational S           0.134 [cal/(mol K)]        0.561 [J/(mol K)]       0.00021386 [mEh/K]
  Total S                  47.245 [cal/(mol K)]      197.671 [J/(mol K)]       0.07528901 [mEh/K]
  Correction S              0.000 [cal/(mol K)]        0.000 [J/(mol K)]       0.00000000 [mEh/K]

  Constant volume heat capacity, Cv
    Electronic Cv           0.000 [cal/(mol K)]        0.000 [J/(mol K)]       0.00000000 [mEh/K]
    Translational Cv        2.981 [cal/(mol K)]       12.472 [J/(mol K)]       0.00475022 [mEh/K]
    Rotational Cv           2.981 [cal/(mol K)]       12.472 [J/(mol K)]       0.00475022 [mEh/K]
    Vibrational Cv          0.654 [cal/(mol K)]        2.736 [J/(mol K)]       0.00104208 [mEh/K]
  Total Cv                  6.616 [cal/(mol K)]       27.679 [J/(mol K)]       0.01054251 [mEh/K]
  Correction Cv             0.000 [cal/(mol K)]        0.000 [J/(mol K)]       0.00000000 [mEh/K]

  Constant pressure heat capacity, Cp
    Electronic Cp           0.000 [cal/(mol K)]        0.000 [J/(mol K)]       0.00000000 [mEh/K]
    Translational Cp        4.968 [cal/(mol K)]       20.786 [J/(mol K)]       0.00791703 [mEh/K]
    Rotational Cp           2.981 [cal/(mol K)]       12.472 [J/(mol K)]       0.00475022 [mEh/K]
    Vibrational Cp          0.654 [cal/(mol K)]        2.736 [J/(mol K)]       0.00104208 [mEh/K]
  Total Cp                  8.603 [cal/(mol K)]       35.994 [J/(mol K)]       0.01370932 [mEh/K]
  Correction Cp             0.000 [cal/(mol K)]        0.000 [J/(mol K)]       0.00000000 [mEh/K]

  ==> Thermochemistry Energy Analysis <==

  Raw electronic energy, E0
  Total E0, Electronic energy at well bottom at 0 [K]                  -26.59575696 [Eh]

  Zero-point energy, ZPE_vib = Sum_i nu_i / 2
    Electronic ZPE          0.000 [kcal/mol]        0.000 [kJ/mol]       0.00000000 [Eh]
    Translational ZPE       0.000 [kcal/mol]        0.000 [kJ/mol]       0.00000000 [Eh]
    Rotational ZPE          0.000 [kcal/mol]        0.000 [kJ/mol]       0.00000000 [Eh]
    Vibrational ZPE        16.441 [kcal/mol]       68.790 [kJ/mol]       0.02620074 [Eh]        5750.397 [cm^-1]
  Correction ZPE           16.441 [kcal/mol]       68.790 [kJ/mol]       0.02620074 [Eh]        5750.397 [cm^-1]
  Total ZPE, Electronic energy at 0 [K]                                -26.56955622 [Eh]

  Thermal Energy, E (includes ZPE)
    Electronic E            0.000 [kcal/mol]        0.000 [kJ/mol]       0.00000000 [Eh]
    Translational E         0.889 [kcal/mol]        3.718 [kJ/mol]       0.00141628 [Eh]
    Rotational E            0.889 [kcal/mol]        3.718 [kJ/mol]       0.00141628 [Eh]
    Vibrational E          16.475 [kcal/mol]       68.932 [kJ/mol]       0.02625499 [Eh]
  Correction E             18.253 [kcal/mol]       76.369 [kJ/mol]       0.02908754 [Eh]
  Total E, Electronic energy at  298.15 [K]                            -26.56666941 [Eh]

  Enthalpy, H_trans = E_trans + k_B * T
    Electronic H            0.000 [kcal/mol]        0.000 [kJ/mol]       0.00000000 [Eh]
    Translational H         1.481 [kcal/mol]        6.197 [kJ/mol]       0.00236046 [Eh]
    Rotational H            0.889 [kcal/mol]        3.718 [kJ/mol]       0.00141628 [Eh]
    Vibrational H          16.475 [kcal/mol]       68.932 [kJ/mol]       0.02625499 [Eh]
  Correction H             18.845 [kcal/mol]       78.848 [kJ/mol]       0.03003173 [Eh]
  Total H, Enthalpy at  298.15 [K]                                     -26.56572523 [Eh]

  Gibbs free energy, G = H - T * S
    Electronic G            0.000 [kcal/mol]        0.000 [kJ/mol]       0.00000000 [Eh]
    Translational G        -8.615 [kcal/mol]      -36.047 [kJ/mol]      -0.01372959 [Eh]
    Rotational G           -3.061 [kcal/mol]      -12.805 [kJ/mol]      -0.00487733 [Eh]
    Vibrational G          16.435 [kcal/mol]       68.765 [kJ/mol]       0.02619123 [Eh]
  Correction G              4.759 [kcal/mol]       19.913 [kJ/mol]       0.00758431 [Eh]
  Total G, Free enthalpy at  298.15 [K]                                -26.58817265 [Eh]

    Psi4 stopped on: Tuesday, 27 April 2021 05:50PM
    Psi4 wall time for execution: 0:01:43.55

*** Psi4 exiting successfully. Buy a developer a beer!
