
    -----------------------------------------------------------------------
          Psi4: An Open-Source Ab Initio Electronic Structure Package
                               Psi4 1.3.2 release

                         Git: Rev {HEAD} ecbda83 


    R. M. Parrish, L. A. Burns, D. G. A. Smith, A. C. Simmonett,
    A. E. DePrince III, E. G. Hohenstein, U. Bozkaya, A. Yu. Sokolov,
    R. Di Remigio, R. M. Richard, J. F. Gonthier, A. M. James,
    H. R. McAlexander, A. Kumar, M. Saitow, X. Wang, B. P. Pritchard,
    P. Verma, H. F. Schaefer III, K. Patkowski, R. A. King, E. F. Valeev,
    F. A. Evangelista, J. M. Turney, T. D. Crawford, and C. D. Sherrill,
    J. Chem. Theory Comput. 13(7) pp 3185--3197 (2017).
    (doi: 10.1021/acs.jctc.7b00174)


                         Additional Contributions by
    P. Kraus, H. Kruse, M. H. Lechner, M. C. Schieber, R. A. Shaw,
    A. Alenaizan, R. Galvelis, Z. L. Glick, S. Lehtola, and J. P. Misiewicz

    -----------------------------------------------------------------------


    Psi4 started on: Tuesday, 27 April 2021 05:49PM

    Process ID: 187780
    Host:       bp1-compute00116.data.bp.acrc.priv
    PSIDATADIR: /work/zw18965/.conda/envs/p4env/share/psi4
    Memory:     500.0 MiB
    Threads:    24
    
  ==> Input File <==

--------------------------------------------------------------------------
memory 144 GB

molecule {
0 1
C 0.0000000000 0.0000000000 0.0000000000
C 0.0000000000 0.0000000000 1.3342000000
H 0.9234041342 0.0000000000 1.8987335198
H -0.9234041342 0.0000000000 1.8987335198
H 0.9234041342 0.0000000000 -0.5645335198
H -0.9234041342 -0.0000000000 -0.5645335198
}

set dynamic_level 1
set basis aug-cc-pV(D+d)Z
 
optimize("wB97X-V")
frequencies("wB97X-V")
--------------------------------------------------------------------------

  Memory set to 134.110 GiB by Python driver.
gradient() will perform gradient computation by finite difference of analytic energies.

         ----------------------------------------------------------
                                   FINDIF
                     R. A. King and Jonathon Misiewicz
         ---------------------------------------------------------

  Using finite-differences of energies to determine gradients.
    Generating geometries for use with 3-point formula.
    Displacement size will be 5.00e-03.
    Number of atoms is 6.
    Number of symmetric SALCs is 3.
    Translations projected? 1. Rotations projected? 1.
    Number of geometries (including reference) is 7.

  //>>>>>>>>>>>>>>>>>>>>>>>>>>>>>>>>>>>//
  //    Loading displacement 1 of 7    //
  //<<<<<<<<<<<<<<<<<<<<<<<<<<<<<<<<<<<//

*** tstart() called on bp1-compute00116.data.bp.acrc.priv
*** at Tue Apr 27 17:49:58 2021

   => Loading Basis Set <=

    Name: AUG-CC-PV(D+D)Z
    Role: ORBITAL
    Keyword: BASIS
    atoms 1-2 entry C          line   198 file /work/zw18965/.conda/envs/p4env/share/psi4/basis/aug-cc-pv_dpd_z.gbs 
    atoms 3-6 entry H          line    56 file /work/zw18965/.conda/envs/p4env/share/psi4/basis/aug-cc-pv_dpd_z.gbs 


         ---------------------------------------------------------
                                   SCF
               by Justin Turney, Rob Parrish, Andy Simmonett
                          and Daniel G. A. Smith
                              RKS Reference
                       24 Threads, 137329 MiB Core
         ---------------------------------------------------------

  ==> Geometry <==

    Molecular point group: d2h
    Full point group: D2h

    Geometry (in Angstrom), charge = 0, multiplicity = 1:

       Center              X                  Y                   Z               Mass       
    ------------   -----------------  -----------------  -----------------  -----------------
         C            0.000000000000    -0.000000000000    -0.667100000000    12.000000000000
         C            0.000000000000    -0.000000000000     0.667100000000    12.000000000000
         H            0.923404134200     0.000000000000     1.231633519800     1.007825032230
         H           -0.923404134200    -0.000000000000     1.231633519800     1.007825032230
         H            0.923404134200     0.000000000000    -1.231633519800     1.007825032230
         H           -0.923404134200    -0.000000000000    -1.231633519800     1.007825032230

  Running in d2h symmetry.

  Rotational constants: A =      4.90420  B =      1.00369  C =      0.83317 [cm^-1]
  Rotational constants: A = 147024.06889  B =  30089.78152  C =  24977.84391 [MHz]
  Nuclear repulsion =   33.374685413937769

  Charge       = 0
  Multiplicity = 1
  Electrons    = 16
  Nalpha       = 8
  Nbeta        = 8

  ==> Algorithm <==

  SCF Algorithm Type is DF.
  DIIS enabled.
  MOM disabled.
  Fractional occupation disabled.
  Guess Type is SAD.
  Energy threshold   = 1.00e-08
  Density threshold  = 1.00e-08
  Integral threshold = 0.00e+00

  ==> Primary Basis <==

  Basis Set: AUG-CC-PV(D+D)Z
    Blend: AUG-CC-PV(D+D)Z
    Number of shells: 38
    Number of basis function: 82
    Number of Cartesian functions: 86
    Spherical Harmonics?: true
    Max angular momentum: 2

  ==> DFT Potential <==

   => Composite Functional: WB97X-V <= 

    wB97X-V Hyb-GGA Exchange-Correlation Functional

    N. Mardirossian and M. Head-Gordon, Phys. Chem. Chem. Phys. 16, 9904 (2014)

    Deriv               =              1
    GGA                 =           TRUE
    Meta                =          FALSE

    Exchange Hybrid     =           TRUE
    MP2 Hybrid          =          FALSE

   => Exchange-Correlation Functionals <=

    1.0000   wB97X-V range-separated functional

   => Exact (HF) Exchange <=

    0.8330            HF,LR [omega = 0.3000]
    0.1670               HF 

   => VV10 Non-Local Parameters <=

    VV10 B              =     6.0000E+00
    VV10 C              =     1.0000E-02

   => Molecular Quadrature <=

    Radial Scheme          =       TREUTLER
    Pruning Scheme         =           FLAT
    Nuclear Scheme         =       TREUTLER

    BS radius alpha        =              1
    Pruning alpha          =              1
    Radial Points          =             75
    Spherical Points       =            302
    Total Points           =         135900
    Total Blocks           =           1104
    Max Points             =            256
    Max Functions          =             82

   => Loading Basis Set <=

    Name: (AUG-CC-PV(D+D)Z AUX)
    Role: JKFIT
    Keyword: DF_BASIS_SCF
    atoms 1-2 entry C          line   154 file /work/zw18965/.conda/envs/p4env/share/psi4/basis/aug-cc-pvdz-jkfit.gbs 
    atoms 3-6 entry H          line    70 file /work/zw18965/.conda/envs/p4env/share/psi4/basis/aug-cc-pvdz-jkfit.gbs 

  ==> Pre-Iterations <==

   -------------------------------------------------------
    Irrep   Nso     Nmo     Nalpha   Nbeta   Ndocc  Nsocc
   -------------------------------------------------------
     Ag        18      18       0       0       0       0
     B1g        4       4       0       0       0       0
     B2g       12      12       0       0       0       0
     B3g        7       7       0       0       0       0
     Au         4       4       0       0       0       0
     B1u       18      18       0       0       0       0
     B2u        7       7       0       0       0       0
     B3u       12      12       0       0       0       0
   -------------------------------------------------------
    Total      82      82       8       8       8       0
   -------------------------------------------------------

  ==> Integral Setup <==

  ==> DiskDFJK: Density-Fitted J/K Matrices <==

    J tasked:                  Yes
    K tasked:                  Yes
    wK tasked:                 Yes
    Omega:               3.000E-01
    OpenMP threads:             24
    Integrals threads:          24
    Memory [MiB]:           102672
    Algorithm:                Core
    Integral Cache:           NONE
    Schwarz Cutoff:          1E-12
    Fitting Condition:       1E-10

   => Auxiliary Basis Set <=

  Basis Set: (AUG-CC-PV(D+D)Z AUX)
    Blend: AUG-CC-PVDZ-JKFIT
    Number of shells: 104
    Number of basis function: 300
    Number of Cartesian functions: 342
    Spherical Harmonics?: true
    Max angular momentum: 3

  Cached 100.0% of DFT collocation blocks in 0.317 [GiB].

  Minimum eigenvalue in the overlap matrix is 1.0850807102E-04.
  Using Symmetric Orthogonalization.

  SCF Guess: Superposition of Atomic Densities via on-the-fly atomic UHF.

  ==> Iterations <==

                           Total Energy        Delta E     RMS |[F,P]|

   @DF-RKS iter SAD:   -77.82205942256863   -7.78221e+01   0.00000e+00 
   @DF-RKS iter   1:   -78.44269570083209   -6.20636e-01   1.43442e-02 DIIS
   @DF-RKS iter   2:   -78.51895425997762   -7.62586e-02   9.08323e-03 DIIS
   @DF-RKS iter   3:   -78.56632414569752   -4.73699e-02   4.18727e-04 DIIS
   @DF-RKS iter   4:   -78.56654838556764   -2.24240e-04   5.09494e-05 DIIS
   @DF-RKS iter   5:   -78.56655161307847   -3.22751e-06   7.55536e-06 DIIS
   @DF-RKS iter   6:   -78.56655169322354   -8.01451e-08   1.21675e-06 DIIS
   @DF-RKS iter   7:   -78.56655169574134   -2.51779e-09   1.64759e-07 DIIS
   @DF-RKS iter   8:   -78.56655169578427   -4.29310e-11   1.82964e-08 DIIS
   @DF-RKS iter   9:   -78.56655169578495   -6.82121e-13   3.18018e-09 DIIS
  Energy and wave function converged.


  ==> Post-Iterations <==

    Orbital Energies [Eh]
    ---------------------

    Doubly Occupied:                                                      

       1Ag   -10.285086     1B1u  -10.284249     2Ag    -0.895988  
       2B1u   -0.703762     1B3u   -0.584606     3Ag    -0.527956  
       1B2g   -0.460671     1B2u   -0.376528  

    Virtual:                                                              

       4Ag     0.040984     3B1u    0.052514     2B3u    0.053554  
       1B3g    0.073256     2B2g    0.074733     2B2u    0.114475  
       5Ag     0.125945     4B1u    0.145617     6Ag     0.169243  
       3B3u    0.169302     2B3g    0.170529     3B2g    0.202324  
       5B1u    0.214854     7Ag     0.220150     4B3u    0.257248  
       1B1g    0.298497     6B1u    0.300257     8Ag     0.378148  
       7B1u    0.380184     1Au     0.381370     3B2u    0.410378  
       4B2g    0.422093     5B3u    0.441047     9Ag     0.498128  
       3B3g    0.501877     5B2g    0.514682     6B3u    0.528486  
       4B2u    0.564442     7B3u    0.566127    10Ag     0.569395  
       8B1u    0.574427    11Ag     0.584100     6B2g    0.611128  
       2B1g    0.612217     9B1u    0.623042    10B1u    0.671397  
       4B3g    0.687835    11B1u    0.751257     5B2u    0.778729  
       2Au     0.795537     7B2g    0.799814    12Ag     0.897914  
       5B3g    0.979090     8B3u    1.074802    12B1u    1.110314  
       8B2g    1.176604    13Ag     1.331003     9B3u    1.343017  
       6B2u    1.377070     3B1g    1.389897    13B1u    1.501667  
      14Ag     1.569905     9B2g    1.632072     3Au     1.656843  
      15Ag     1.701123     6B3g    1.723564    10B3u    1.804905  
      16Ag     1.866344    14B1u    1.910183     7B2u    1.929481  
      10B2g    1.964576    15B1u    1.972795     4B1g    1.984963  
      11B3u    1.997751     7B3g    2.211209     4Au     2.270128  
      16B1u    2.298010    17Ag     2.442957    11B2g    2.492861  
      17B1u    2.604814    18Ag     2.617399    12B3u    2.678583  
      18B1u    3.212954    12B2g    3.259932  

    Final Occupation by Irrep:
             Ag   B1g   B2g   B3g    Au   B1u   B2u   B3u 
    DOCC [     3,    0,    1,    0,    0,    2,    1,    1 ]

  @DF-RKS Final Energy:   -78.56655169578495

   => Energetics <=

    Nuclear Repulsion Energy =             33.3746854139377689
    One-Electron Energy =                -170.1828864123358187
    Two-Electron Energy =                  66.4795620120415407
    DFT Exchange-Correlation Energy =      -8.3028582935326440
    Empirical Dispersion Energy =           0.0000000000000000
    VV10 Nonlocal Energy =                  0.0649455841041700
    Total Energy =                        -78.5665516957849803

Computation Completed


Properties will be evaluated at   0.000000,   0.000000,   0.000000 [a0]

Properties computed using the SCF density matrix

  Nuclear Dipole Moment: [e a0]
     X:     0.0000      Y:     0.0000      Z:     0.0000

  Electronic Dipole Moment: [e a0]
     X:     0.0000      Y:     0.0000      Z:     0.0000

  Dipole Moment: [e a0]
     X:     0.0000      Y:     0.0000      Z:     0.0000     Total:     0.0000

  Dipole Moment: [D]
     X:     0.0000      Y:     0.0000      Z:     0.0000     Total:     0.0000


*** tstop() called on bp1-compute00116.data.bp.acrc.priv at Tue Apr 27 17:50:03 2021
Module time:
	user time   =     104.44 seconds =       1.74 minutes
	system time =       3.96 seconds =       0.07 minutes
	total time  =          5 seconds =       0.08 minutes
Total time:
	user time   =     104.44 seconds =       1.74 minutes
	system time =       3.96 seconds =       0.07 minutes
	total time  =          5 seconds =       0.08 minutes

  //>>>>>>>>>>>>>>>>>>>>>>>>>>>>>>>>>>>//
  //    Loading displacement 2 of 7    //
  //<<<<<<<<<<<<<<<<<<<<<<<<<<<<<<<<<<<//

*** tstart() called on bp1-compute00116.data.bp.acrc.priv
*** at Tue Apr 27 17:50:03 2021

   => Loading Basis Set <=

    Name: AUG-CC-PV(D+D)Z
    Role: ORBITAL
    Keyword: BASIS
    atoms 1-2 entry C          line   198 file /work/zw18965/.conda/envs/p4env/share/psi4/basis/aug-cc-pv_dpd_z.gbs 
    atoms 3-6 entry H          line    56 file /work/zw18965/.conda/envs/p4env/share/psi4/basis/aug-cc-pv_dpd_z.gbs 


         ---------------------------------------------------------
                                   SCF
               by Justin Turney, Rob Parrish, Andy Simmonett
                          and Daniel G. A. Smith
                              RKS Reference
                       24 Threads, 137329 MiB Core
         ---------------------------------------------------------

  ==> Geometry <==

    Molecular point group: d2h
    Full point group: D2h

    Geometry (in Angstrom), charge = 0, multiplicity = 1:

       Center              X                  Y                   Z               Mass       
    ------------   -----------------  -----------------  -----------------  -----------------
         C            0.000000000000    -0.000000000000    -0.667640089229    12.000000000000
         C            0.000000000000    -0.000000000000     0.667640089229    12.000000000000
         H            0.923404134200     0.000000000000     1.231633519800     1.007825032230
         H           -0.923404134200    -0.000000000000     1.231633519800     1.007825032230
         H            0.923404134200     0.000000000000    -1.231633519800     1.007825032230
         H           -0.923404134200    -0.000000000000    -1.231633519800     1.007825032230

  Running in d2h symmetry.

  Rotational constants: A =      4.90420  B =      1.00265  C =      0.83246 [cm^-1]
  Rotational constants: A = 147024.06889  B =  30058.81822  C =  24956.50389 [MHz]
  Nuclear repulsion =   33.364805451995331

  Charge       = 0
  Multiplicity = 1
  Electrons    = 16
  Nalpha       = 8
  Nbeta        = 8

  ==> Algorithm <==

  SCF Algorithm Type is DF.
  DIIS enabled.
  MOM disabled.
  Fractional occupation disabled.
  Guess Type is SAD.
  Energy threshold   = 1.00e-08
  Density threshold  = 1.00e-08
  Integral threshold = 0.00e+00

  ==> Primary Basis <==

  Basis Set: AUG-CC-PV(D+D)Z
    Blend: AUG-CC-PV(D+D)Z
    Number of shells: 38
    Number of basis function: 82
    Number of Cartesian functions: 86
    Spherical Harmonics?: true
    Max angular momentum: 2

  ==> DFT Potential <==

   => Composite Functional: WB97X-V <= 

    wB97X-V Hyb-GGA Exchange-Correlation Functional

    N. Mardirossian and M. Head-Gordon, Phys. Chem. Chem. Phys. 16, 9904 (2014)

    Deriv               =              1
    GGA                 =           TRUE
    Meta                =          FALSE

    Exchange Hybrid     =           TRUE
    MP2 Hybrid          =          FALSE

   => Exchange-Correlation Functionals <=

    1.0000   wB97X-V range-separated functional

   => Exact (HF) Exchange <=

    0.8330            HF,LR [omega = 0.3000]
    0.1670               HF 

   => VV10 Non-Local Parameters <=

    VV10 B              =     6.0000E+00
    VV10 C              =     1.0000E-02

   => Molecular Quadrature <=

    Radial Scheme          =       TREUTLER
    Pruning Scheme         =           FLAT
    Nuclear Scheme         =       TREUTLER

    BS radius alpha        =              1
    Pruning alpha          =              1
    Radial Points          =             75
    Spherical Points       =            302
    Total Points           =         135900
    Total Blocks           =           1104
    Max Points             =            256
    Max Functions          =             82

   => Loading Basis Set <=

    Name: (AUG-CC-PV(D+D)Z AUX)
    Role: JKFIT
    Keyword: DF_BASIS_SCF
    atoms 1-2 entry C          line   154 file /work/zw18965/.conda/envs/p4env/share/psi4/basis/aug-cc-pvdz-jkfit.gbs 
    atoms 3-6 entry H          line    70 file /work/zw18965/.conda/envs/p4env/share/psi4/basis/aug-cc-pvdz-jkfit.gbs 

  ==> Pre-Iterations <==

   -------------------------------------------------------
    Irrep   Nso     Nmo     Nalpha   Nbeta   Ndocc  Nsocc
   -------------------------------------------------------
     Ag        18      18       0       0       0       0
     B1g        4       4       0       0       0       0
     B2g       12      12       0       0       0       0
     B3g        7       7       0       0       0       0
     Au         4       4       0       0       0       0
     B1u       18      18       0       0       0       0
     B2u        7       7       0       0       0       0
     B3u       12      12       0       0       0       0
   -------------------------------------------------------
    Total      82      82       8       8       8       0
   -------------------------------------------------------

  ==> Integral Setup <==

  ==> DiskDFJK: Density-Fitted J/K Matrices <==

    J tasked:                  Yes
    K tasked:                  Yes
    wK tasked:                 Yes
    Omega:               3.000E-01
    OpenMP threads:             24
    Integrals threads:          24
    Memory [MiB]:           102672
    Algorithm:                Core
    Integral Cache:           NONE
    Schwarz Cutoff:          1E-12
    Fitting Condition:       1E-10

   => Auxiliary Basis Set <=

  Basis Set: (AUG-CC-PV(D+D)Z AUX)
    Blend: AUG-CC-PVDZ-JKFIT
    Number of shells: 104
    Number of basis function: 300
    Number of Cartesian functions: 342
    Spherical Harmonics?: true
    Max angular momentum: 3

  Cached 100.0% of DFT collocation blocks in 0.317 [GiB].

  Minimum eigenvalue in the overlap matrix is 1.0912698573E-04.
  Using Symmetric Orthogonalization.

  SCF Guess: Superposition of Atomic Densities via on-the-fly atomic UHF.

  ==> Iterations <==

                           Total Energy        Delta E     RMS |[F,P]|

   @DF-RKS iter SAD:   -77.82108665253632   -7.78211e+01   0.00000e+00 
   @DF-RKS iter   1:   -78.44295191764132   -6.21865e-01   1.43268e-02 DIIS
   @DF-RKS iter   2:   -78.51911709716697   -7.61652e-02   9.06597e-03 DIIS
   @DF-RKS iter   3:   -78.56630705610527   -4.71900e-02   4.18545e-04 DIIS
   @DF-RKS iter   4:   -78.56653108349437   -2.24027e-04   5.09622e-05 DIIS
   @DF-RKS iter   5:   -78.56653430507907   -3.22158e-06   7.55888e-06 DIIS
   @DF-RKS iter   6:   -78.56653438513870   -8.00596e-08   1.21398e-06 DIIS
   @DF-RKS iter   7:   -78.56653438764492   -2.50623e-09   1.64132e-07 DIIS
   @DF-RKS iter   8:   -78.56653438768737   -4.24478e-11   1.80016e-08 DIIS
   @DF-RKS iter   9:   -78.56653438768801   -6.39488e-13   3.13028e-09 DIIS
  Energy and wave function converged.


  ==> Post-Iterations <==

    Orbital Energies [Eh]
    ---------------------

    Doubly Occupied:                                                      

       1Ag   -10.285186     1B1u  -10.284356     2Ag    -0.895797  
       2B1u   -0.703908     1B3u   -0.584636     3Ag    -0.527769  
       1B2g   -0.460939     1B2u   -0.376332  

    Virtual:                                                              

       4Ag     0.040981     3B1u    0.052518     2B3u    0.053554  
       1B3g    0.073098     2B2g    0.074727     2B2u    0.114497  
       5Ag     0.125948     4B1u    0.145629     6Ag     0.169235  
       3B3u    0.169322     2B3g    0.170434     3B2g    0.202299  
       5B1u    0.214813     7Ag     0.220141     4B3u    0.257378  
       1B1g    0.298488     6B1u    0.300248     8Ag     0.378250  
       7B1u    0.380051     1Au     0.381345     3B2u    0.410439  
       4B2g    0.422077     5B3u    0.441009     9Ag     0.498115  
       3B3g    0.501850     5B2g    0.514642     6B3u    0.528458  
       4B2u    0.564272     7B3u    0.566254    10Ag     0.569415  
       8B1u    0.574315    11Ag     0.584053     6B2g    0.611112  
       2B1g    0.612221     9B1u    0.622981    10B1u    0.670987  
       4B3g    0.687759    11B1u    0.751140     5B2u    0.778852  
       2Au     0.795474     7B2g    0.799868    12Ag     0.898291  
       5B3g    0.979012     8B3u    1.074725    12B1u    1.109946  
       8B2g    1.176445    13Ag     1.330742     9B3u    1.342929  
       6B2u    1.376842     3B1g    1.389958    13B1u    1.501398  
      14Ag     1.570007     9B2g    1.632042     3Au     1.656720  
      15Ag     1.701105     6B3g    1.723509    10B3u    1.804782  
      16Ag     1.866384    14B1u    1.910124     7B2u    1.929286  
      10B2g    1.964449    15B1u    1.972015     4B1g    1.985458  
      11B3u    1.998111     7B3g    2.210621     4Au     2.270190  
      16B1u    2.298499    17Ag     2.442100    11B2g    2.493142  
      17B1u    2.603987    18Ag     2.618323    12B3u    2.678682  
      18B1u    3.212607    12B2g    3.259211  

    Final Occupation by Irrep:
             Ag   B1g   B2g   B3g    Au   B1u   B2u   B3u 
    DOCC [     3,    0,    1,    0,    0,    2,    1,    1 ]

  @DF-RKS Final Energy:   -78.56653438768801

   => Energetics <=

    Nuclear Repulsion Energy =             33.3648054519953305
    One-Electron Energy =                -170.1630846047664818
    Two-Electron Energy =                  66.4694106949235959
    DFT Exchange-Correlation Energy =      -8.3026120696235068
    Empirical Dispersion Energy =           0.0000000000000000
    VV10 Nonlocal Energy =                  0.0649461397830664
    Total Energy =                        -78.5665343876880087

Computation Completed


Properties will be evaluated at   0.000000,   0.000000,   0.000000 [a0]

Properties computed using the SCF density matrix

  Nuclear Dipole Moment: [e a0]
     X:     0.0000      Y:     0.0000      Z:    -0.0000

  Electronic Dipole Moment: [e a0]
     X:     0.0000      Y:     0.0000      Z:     0.0000

  Dipole Moment: [e a0]
     X:     0.0000      Y:     0.0000      Z:    -0.0000     Total:     0.0000

  Dipole Moment: [D]
     X:     0.0000      Y:     0.0000      Z:    -0.0000     Total:     0.0000


*** tstop() called on bp1-compute00116.data.bp.acrc.priv at Tue Apr 27 17:50:08 2021
Module time:
	user time   =     105.14 seconds =       1.75 minutes
	system time =       3.03 seconds =       0.05 minutes
	total time  =          5 seconds =       0.08 minutes
Total time:
	user time   =     209.75 seconds =       3.50 minutes
	system time =       7.00 seconds =       0.12 minutes
	total time  =         10 seconds =       0.17 minutes

  //>>>>>>>>>>>>>>>>>>>>>>>>>>>>>>>>>>>//
  //    Loading displacement 3 of 7    //
  //<<<<<<<<<<<<<<<<<<<<<<<<<<<<<<<<<<<//

*** tstart() called on bp1-compute00116.data.bp.acrc.priv
*** at Tue Apr 27 17:50:08 2021

   => Loading Basis Set <=

    Name: AUG-CC-PV(D+D)Z
    Role: ORBITAL
    Keyword: BASIS
    atoms 1-2 entry C          line   198 file /work/zw18965/.conda/envs/p4env/share/psi4/basis/aug-cc-pv_dpd_z.gbs 
    atoms 3-6 entry H          line    56 file /work/zw18965/.conda/envs/p4env/share/psi4/basis/aug-cc-pv_dpd_z.gbs 


         ---------------------------------------------------------
                                   SCF
               by Justin Turney, Rob Parrish, Andy Simmonett
                          and Daniel G. A. Smith
                              RKS Reference
                       24 Threads, 137329 MiB Core
         ---------------------------------------------------------

  ==> Geometry <==

    Molecular point group: d2h
    Full point group: D2h

    Geometry (in Angstrom), charge = 0, multiplicity = 1:

       Center              X                  Y                   Z               Mass       
    ------------   -----------------  -----------------  -----------------  -----------------
         C            0.000000000000    -0.000000000000    -0.666559910771    12.000000000000
         C            0.000000000000    -0.000000000000     0.666559910771    12.000000000000
         H            0.923404134200     0.000000000000     1.231633519800     1.007825032230
         H           -0.923404134200    -0.000000000000     1.231633519800     1.007825032230
         H            0.923404134200     0.000000000000    -1.231633519800     1.007825032230
         H           -0.923404134200    -0.000000000000    -1.231633519800     1.007825032230

  Running in d2h symmetry.

  Rotational constants: A =      4.90420  B =      1.00472  C =      0.83388 [cm^-1]
  Rotational constants: A = 147024.06889  B =  30120.78353  C =  24999.20315 [MHz]
  Nuclear repulsion =   33.384584118296033

  Charge       = 0
  Multiplicity = 1
  Electrons    = 16
  Nalpha       = 8
  Nbeta        = 8

  ==> Algorithm <==

  SCF Algorithm Type is DF.
  DIIS enabled.
  MOM disabled.
  Fractional occupation disabled.
  Guess Type is SAD.
  Energy threshold   = 1.00e-08
  Density threshold  = 1.00e-08
  Integral threshold = 0.00e+00

  ==> Primary Basis <==

  Basis Set: AUG-CC-PV(D+D)Z
    Blend: AUG-CC-PV(D+D)Z
    Number of shells: 38
    Number of basis function: 82
    Number of Cartesian functions: 86
    Spherical Harmonics?: true
    Max angular momentum: 2

  ==> DFT Potential <==

   => Composite Functional: WB97X-V <= 

    wB97X-V Hyb-GGA Exchange-Correlation Functional

    N. Mardirossian and M. Head-Gordon, Phys. Chem. Chem. Phys. 16, 9904 (2014)

    Deriv               =              1
    GGA                 =           TRUE
    Meta                =          FALSE

    Exchange Hybrid     =           TRUE
    MP2 Hybrid          =          FALSE

   => Exchange-Correlation Functionals <=

    1.0000   wB97X-V range-separated functional

   => Exact (HF) Exchange <=

    0.8330            HF,LR [omega = 0.3000]
    0.1670               HF 

   => VV10 Non-Local Parameters <=

    VV10 B              =     6.0000E+00
    VV10 C              =     1.0000E-02

   => Molecular Quadrature <=

    Radial Scheme          =       TREUTLER
    Pruning Scheme         =           FLAT
    Nuclear Scheme         =       TREUTLER

    BS radius alpha        =              1
    Pruning alpha          =              1
    Radial Points          =             75
    Spherical Points       =            302
    Total Points           =         135900
    Total Blocks           =           1104
    Max Points             =            256
    Max Functions          =             82

   => Loading Basis Set <=

    Name: (AUG-CC-PV(D+D)Z AUX)
    Role: JKFIT
    Keyword: DF_BASIS_SCF
    atoms 1-2 entry C          line   154 file /work/zw18965/.conda/envs/p4env/share/psi4/basis/aug-cc-pvdz-jkfit.gbs 
    atoms 3-6 entry H          line    70 file /work/zw18965/.conda/envs/p4env/share/psi4/basis/aug-cc-pvdz-jkfit.gbs 

  ==> Pre-Iterations <==

   -------------------------------------------------------
    Irrep   Nso     Nmo     Nalpha   Nbeta   Ndocc  Nsocc
   -------------------------------------------------------
     Ag        18      18       0       0       0       0
     B1g        4       4       0       0       0       0
     B2g       12      12       0       0       0       0
     B3g        7       7       0       0       0       0
     Au         4       4       0       0       0       0
     B1u       18      18       0       0       0       0
     B2u        7       7       0       0       0       0
     B3u       12      12       0       0       0       0
   -------------------------------------------------------
    Total      82      82       8       8       8       0
   -------------------------------------------------------

  ==> Integral Setup <==

  ==> DiskDFJK: Density-Fitted J/K Matrices <==

    J tasked:                  Yes
    K tasked:                  Yes
    wK tasked:                 Yes
    Omega:               3.000E-01
    OpenMP threads:             24
    Integrals threads:          24
    Memory [MiB]:           102672
    Algorithm:                Core
    Integral Cache:           NONE
    Schwarz Cutoff:          1E-12
    Fitting Condition:       1E-10

   => Auxiliary Basis Set <=

  Basis Set: (AUG-CC-PV(D+D)Z AUX)
    Blend: AUG-CC-PVDZ-JKFIT
    Number of shells: 104
    Number of basis function: 300
    Number of Cartesian functions: 342
    Spherical Harmonics?: true
    Max angular momentum: 3

  Cached 100.0% of DFT collocation blocks in 0.317 [GiB].

  Minimum eigenvalue in the overlap matrix is 1.0789224928E-04.
  Using Symmetric Orthogonalization.

  SCF Guess: Superposition of Atomic Densities via on-the-fly atomic UHF.

  ==> Iterations <==

                           Total Energy        Delta E     RMS |[F,P]|

   @DF-RKS iter SAD:   -77.82303214853445   -7.78230e+01   0.00000e+00 
   @DF-RKS iter   1:   -78.44243522448507   -6.19403e-01   1.43617e-02 DIIS
   @DF-RKS iter   2:   -78.51878738248395   -7.63522e-02   9.10054e-03 DIIS
   @DF-RKS iter   3:   -78.56633808375719   -4.75507e-02   4.18912e-04 DIIS
   @DF-RKS iter   4:   -78.56656253872660   -2.24455e-04   5.09377e-05 DIIS
   @DF-RKS iter   5:   -78.56656577237314   -3.23365e-06   7.55196e-06 DIIS
   @DF-RKS iter   6:   -78.56656585260978   -8.02366e-08   1.21954e-06 DIIS
   @DF-RKS iter   7:   -78.56656585513929   -2.52950e-09   1.65404e-07 DIIS
   @DF-RKS iter   8:   -78.56656585518306   -4.37694e-11   1.85903e-08 DIIS
   @DF-RKS iter   9:   -78.56656585518365   -5.96856e-13   3.22821e-09 DIIS
  Energy and wave function converged.


  ==> Post-Iterations <==

    Orbital Energies [Eh]
    ---------------------

    Doubly Occupied:                                                      

       1Ag   -10.284986     1B1u  -10.284142     2Ag    -0.896179  
       2B1u   -0.703616     1B3u   -0.584576     3Ag    -0.528143  
       1B2g   -0.460403     1B2u   -0.376724  

    Virtual:                                                              

       4Ag     0.040987     3B1u    0.052510     2B3u    0.053554  
       1B3g    0.073414     2B2g    0.074739     2B2u    0.114454  
       5Ag     0.125943     4B1u    0.145606     6Ag     0.169252  
       3B3u    0.169281     2B3g    0.170624     3B2g    0.202349  
       5B1u    0.214896     7Ag     0.220159     4B3u    0.257119  
       1B1g    0.298507     6B1u    0.300266     8Ag     0.378046  
       7B1u    0.380316     1Au     0.381395     3B2u    0.410317  
       4B2g    0.422109     5B3u    0.441085     9Ag     0.498142  
       3B3g    0.501903     5B2g    0.514722     6B3u    0.528514  
       4B2u    0.564612     7B3u    0.566001    10Ag     0.569375  
       8B1u    0.574539    11Ag     0.584146     6B2g    0.611145  
       2B1g    0.612214     9B1u    0.623102    10B1u    0.671807  
       4B3g    0.687911    11B1u    0.751376     5B2u    0.778606  
       2Au     0.795601     7B2g    0.799760    12Ag     0.897538  
       5B3g    0.979167     8B3u    1.074878    12B1u    1.110685  
       8B2g    1.176764    13Ag     1.331263     9B3u    1.343105  
       6B2u    1.377299     3B1g    1.389836    13B1u    1.501935  
      14Ag     1.569803     9B2g    1.632101     3Au     1.656966  
      15Ag     1.701138     6B3g    1.723620    10B3u    1.805029  
      16Ag     1.866306    14B1u    1.910235     7B2u    1.929678  
      10B2g    1.964702    15B1u    1.973582     4B1g    1.984469  
      11B3u    1.997392     7B3g    2.211797     4Au     2.270066  
      16B1u    2.297522    17Ag     2.443815    11B2g    2.492579  
      17B1u    2.605648    18Ag     2.616478    12B3u    2.678487  
      18B1u    3.213304    12B2g    3.260654  

    Final Occupation by Irrep:
             Ag   B1g   B2g   B3g    Au   B1u   B2u   B3u 
    DOCC [     3,    0,    1,    0,    0,    2,    1,    1 ]

  @DF-RKS Final Energy:   -78.56656585518365

   => Energetics <=

    Nuclear Repulsion Energy =             33.3845841182960328
    One-Electron Energy =                -170.2027179739997678
    Two-Electron Energy =                  66.4897285260795314
    DFT Exchange-Correlation Energy =      -8.3031055561129428
    Empirical Dispersion Energy =           0.0000000000000000
    VV10 Nonlocal Energy =                  0.0649450305534948
    Total Energy =                        -78.5665658551836543

Computation Completed


Properties will be evaluated at   0.000000,   0.000000,   0.000000 [a0]

Properties computed using the SCF density matrix

  Nuclear Dipole Moment: [e a0]
     X:     0.0000      Y:     0.0000      Z:     0.0000

  Electronic Dipole Moment: [e a0]
     X:     0.0000      Y:     0.0000      Z:     0.0000

  Dipole Moment: [e a0]
     X:     0.0000      Y:     0.0000      Z:     0.0000     Total:     0.0000

  Dipole Moment: [D]
     X:     0.0000      Y:     0.0000      Z:     0.0000     Total:     0.0000


*** tstop() called on bp1-compute00116.data.bp.acrc.priv at Tue Apr 27 17:50:12 2021
Module time:
	user time   =     104.62 seconds =       1.74 minutes
	system time =       2.65 seconds =       0.04 minutes
	total time  =          4 seconds =       0.07 minutes
Total time:
	user time   =     314.54 seconds =       5.24 minutes
	system time =       9.67 seconds =       0.16 minutes
	total time  =         14 seconds =       0.23 minutes

  //>>>>>>>>>>>>>>>>>>>>>>>>>>>>>>>>>>>//
  //    Loading displacement 4 of 7    //
  //<<<<<<<<<<<<<<<<<<<<<<<<<<<<<<<<<<<//

*** tstart() called on bp1-compute00116.data.bp.acrc.priv
*** at Tue Apr 27 17:50:12 2021

   => Loading Basis Set <=

    Name: AUG-CC-PV(D+D)Z
    Role: ORBITAL
    Keyword: BASIS
    atoms 1-2 entry C          line   198 file /work/zw18965/.conda/envs/p4env/share/psi4/basis/aug-cc-pv_dpd_z.gbs 
    atoms 3-6 entry H          line    56 file /work/zw18965/.conda/envs/p4env/share/psi4/basis/aug-cc-pv_dpd_z.gbs 


         ---------------------------------------------------------
                                   SCF
               by Justin Turney, Rob Parrish, Andy Simmonett
                          and Daniel G. A. Smith
                              RKS Reference
                       24 Threads, 137329 MiB Core
         ---------------------------------------------------------

  ==> Geometry <==

    Molecular point group: d2h
    Full point group: D2h

    Geometry (in Angstrom), charge = 0, multiplicity = 1:

       Center              X                  Y                   Z               Mass       
    ------------   -----------------  -----------------  -----------------  -----------------
         C            0.000000000000    -0.000000000000    -0.667100000000    12.000000000000
         C            0.000000000000    -0.000000000000     0.667100000000    12.000000000000
         H            0.922086337029     0.000000000000     1.231633519800     1.007825032230
         H           -0.922086337029    -0.000000000000     1.231633519800     1.007825032230
         H            0.922086337029     0.000000000000    -1.231633519800     1.007825032230
         H           -0.922086337029    -0.000000000000    -1.231633519800     1.007825032230

  Running in d2h symmetry.

  Rotational constants: A =      4.91822  B =      1.00369  C =      0.83358 [cm^-1]
  Rotational constants: A = 147444.60727  B =  30089.78152  C =  24989.95293 [MHz]
  Nuclear repulsion =   33.389522896215389

  Charge       = 0
  Multiplicity = 1
  Electrons    = 16
  Nalpha       = 8
  Nbeta        = 8

  ==> Algorithm <==

  SCF Algorithm Type is DF.
  DIIS enabled.
  MOM disabled.
  Fractional occupation disabled.
  Guess Type is SAD.
  Energy threshold   = 1.00e-08
  Density threshold  = 1.00e-08
  Integral threshold = 0.00e+00

  ==> Primary Basis <==

  Basis Set: AUG-CC-PV(D+D)Z
    Blend: AUG-CC-PV(D+D)Z
    Number of shells: 38
    Number of basis function: 82
    Number of Cartesian functions: 86
    Spherical Harmonics?: true
    Max angular momentum: 2

  ==> DFT Potential <==

   => Composite Functional: WB97X-V <= 

    wB97X-V Hyb-GGA Exchange-Correlation Functional

    N. Mardirossian and M. Head-Gordon, Phys. Chem. Chem. Phys. 16, 9904 (2014)

    Deriv               =              1
    GGA                 =           TRUE
    Meta                =          FALSE

    Exchange Hybrid     =           TRUE
    MP2 Hybrid          =          FALSE

   => Exchange-Correlation Functionals <=

    1.0000   wB97X-V range-separated functional

   => Exact (HF) Exchange <=

    0.8330            HF,LR [omega = 0.3000]
    0.1670               HF 

   => VV10 Non-Local Parameters <=

    VV10 B              =     6.0000E+00
    VV10 C              =     1.0000E-02

   => Molecular Quadrature <=

    Radial Scheme          =       TREUTLER
    Pruning Scheme         =           FLAT
    Nuclear Scheme         =       TREUTLER

    BS radius alpha        =              1
    Pruning alpha          =              1
    Radial Points          =             75
    Spherical Points       =            302
    Total Points           =         135900
    Total Blocks           =           1110
    Max Points             =            254
    Max Functions          =             82

   => Loading Basis Set <=

    Name: (AUG-CC-PV(D+D)Z AUX)
    Role: JKFIT
    Keyword: DF_BASIS_SCF
    atoms 1-2 entry C          line   154 file /work/zw18965/.conda/envs/p4env/share/psi4/basis/aug-cc-pvdz-jkfit.gbs 
    atoms 3-6 entry H          line    70 file /work/zw18965/.conda/envs/p4env/share/psi4/basis/aug-cc-pvdz-jkfit.gbs 

  ==> Pre-Iterations <==

   -------------------------------------------------------
    Irrep   Nso     Nmo     Nalpha   Nbeta   Ndocc  Nsocc
   -------------------------------------------------------
     Ag        18      18       0       0       0       0
     B1g        4       4       0       0       0       0
     B2g       12      12       0       0       0       0
     B3g        7       7       0       0       0       0
     Au         4       4       0       0       0       0
     B1u       18      18       0       0       0       0
     B2u        7       7       0       0       0       0
     B3u       12      12       0       0       0       0
   -------------------------------------------------------
    Total      82      82       8       8       8       0
   -------------------------------------------------------

  ==> Integral Setup <==

  ==> DiskDFJK: Density-Fitted J/K Matrices <==

    J tasked:                  Yes
    K tasked:                  Yes
    wK tasked:                 Yes
    Omega:               3.000E-01
    OpenMP threads:             24
    Integrals threads:          24
    Memory [MiB]:           102672
    Algorithm:                Core
    Integral Cache:           NONE
    Schwarz Cutoff:          1E-12
    Fitting Condition:       1E-10

   => Auxiliary Basis Set <=

  Basis Set: (AUG-CC-PV(D+D)Z AUX)
    Blend: AUG-CC-PVDZ-JKFIT
    Number of shells: 104
    Number of basis function: 300
    Number of Cartesian functions: 342
    Spherical Harmonics?: true
    Max angular momentum: 3

  Cached 100.0% of DFT collocation blocks in 0.317 [GiB].

  Minimum eigenvalue in the overlap matrix is 1.0850593673E-04.
  Using Symmetric Orthogonalization.

  SCF Guess: Superposition of Atomic Densities via on-the-fly atomic UHF.

  ==> Iterations <==

                           Total Energy        Delta E     RMS |[F,P]|

   @DF-RKS iter SAD:   -77.82323654089737   -7.78232e+01   0.00000e+00 
   @DF-RKS iter   1:   -78.44262471554298   -6.19388e-01   1.43471e-02 DIIS
   @DF-RKS iter   2:   -78.51897700502759   -7.63523e-02   9.07728e-03 DIIS
   @DF-RKS iter   3:   -78.56625869854386   -4.72817e-02   4.18742e-04 DIIS
   @DF-RKS iter   4:   -78.56648278232126   -2.24084e-04   5.10753e-05 DIIS
   @DF-RKS iter   5:   -78.56648601684493   -3.23452e-06   7.56767e-06 DIIS
   @DF-RKS iter   6:   -78.56648609710874   -8.02638e-08   1.21562e-06 DIIS
   @DF-RKS iter   7:   -78.56648609961975   -2.51102e-09   1.64244e-07 DIIS
   @DF-RKS iter   8:   -78.56648609966230   -4.25473e-11   1.81022e-08 DIIS
   @DF-RKS iter   9:   -78.56648609966294   -6.39488e-13   3.14567e-09 DIIS
  Energy and wave function converged.


  ==> Post-Iterations <==

    Orbital Energies [Eh]
    ---------------------

    Doubly Occupied:                                                      

       1Ag   -10.284854     1B1u  -10.284018     2Ag    -0.896080  
       2B1u   -0.704181     1B3u   -0.584731     3Ag    -0.528215  
       1B2g   -0.460832     1B2u   -0.376509  

    Virtual:                                                              

       4Ag     0.040984     3B1u    0.052506     2B3u    0.053572  
       1B3g    0.073245     2B2g    0.074737     2B2u    0.114477  
       5Ag     0.125962     4B1u    0.145624     6Ag     0.169237  
       3B3u    0.169338     2B3g    0.170512     3B2g    0.202325  
       5B1u    0.214930     7Ag     0.220503     4B3u    0.257459  
       1B1g    0.298649     6B1u    0.300602     8Ag     0.378171  
       7B1u    0.380175     1Au     0.381490     3B2u    0.410418  
       4B2g    0.422188     5B3u    0.441261     9Ag     0.498115  
       3B3g    0.501934     5B2g    0.514944     6B3u    0.528483  
       4B2u    0.564592     7B3u    0.566324    10Ag     0.569588  
       8B1u    0.574389    11Ag     0.584667     6B2g    0.611187  
       2B1g    0.612295     9B1u    0.623533    10B1u    0.671431  
       4B3g    0.688031    11B1u    0.751439     5B2u    0.778835  
       2Au     0.795653     7B2g    0.799963    12Ag     0.898058  
       5B3g    0.979112     8B3u    1.075044    12B1u    1.110467  
       8B2g    1.177178    13Ag     1.331586     9B3u    1.342595  
       6B2u    1.377024     3B1g    1.389887    13B1u    1.501497  
      14Ag     1.569826     9B2g    1.631458     3Au     1.656840  
      15Ag     1.701077     6B3g    1.723763    10B3u    1.806033  
      16Ag     1.866569    14B1u    1.910762     7B2u    1.930426  
      10B2g    1.965711    15B1u    1.973627     4B1g    1.985291  
      11B3u    1.998605     7B3g    2.212111     4Au     2.270879  
      16B1u    2.299097    17Ag     2.445883    11B2g    2.495065  
      17B1u    2.607057    18Ag     2.619677    12B3u    2.681311  
      18B1u    3.212979    12B2g    3.263264  

    Final Occupation by Irrep:
             Ag   B1g   B2g   B3g    Au   B1u   B2u   B3u 
    DOCC [     3,    0,    1,    0,    0,    2,    1,    1 ]

  @DF-RKS Final Energy:   -78.56648609966294

   => Energetics <=

    Nuclear Repulsion Energy =             33.3895228962153894
    One-Electron Energy =                -170.2104680720622412
    Two-Electron Energy =                  66.4936274669270091
    DFT Exchange-Correlation Energy =      -8.3041168715510114
    Empirical Dispersion Energy =           0.0000000000000000
    VV10 Nonlocal Energy =                  0.0649484808078977
    Total Energy =                        -78.5664860996629528

Computation Completed


Properties will be evaluated at   0.000000,   0.000000,   0.000000 [a0]

Properties computed using the SCF density matrix

  Nuclear Dipole Moment: [e a0]
     X:     0.0000      Y:     0.0000      Z:     0.0000

  Electronic Dipole Moment: [e a0]
     X:     0.0000      Y:     0.0000      Z:     0.0000

  Dipole Moment: [e a0]
     X:     0.0000      Y:     0.0000      Z:     0.0000     Total:     0.0000

  Dipole Moment: [D]
     X:     0.0000      Y:     0.0000      Z:     0.0000     Total:     0.0000


*** tstop() called on bp1-compute00116.data.bp.acrc.priv at Tue Apr 27 17:50:17 2021
Module time:
	user time   =     105.11 seconds =       1.75 minutes
	system time =       2.58 seconds =       0.04 minutes
	total time  =          5 seconds =       0.08 minutes
Total time:
	user time   =     419.80 seconds =       7.00 minutes
	system time =      12.25 seconds =       0.20 minutes
	total time  =         19 seconds =       0.32 minutes

  //>>>>>>>>>>>>>>>>>>>>>>>>>>>>>>>>>>>//
  //    Loading displacement 5 of 7    //
  //<<<<<<<<<<<<<<<<<<<<<<<<<<<<<<<<<<<//

*** tstart() called on bp1-compute00116.data.bp.acrc.priv
*** at Tue Apr 27 17:50:17 2021

   => Loading Basis Set <=

    Name: AUG-CC-PV(D+D)Z
    Role: ORBITAL
    Keyword: BASIS
    atoms 1-2 entry C          line   198 file /work/zw18965/.conda/envs/p4env/share/psi4/basis/aug-cc-pv_dpd_z.gbs 
    atoms 3-6 entry H          line    56 file /work/zw18965/.conda/envs/p4env/share/psi4/basis/aug-cc-pv_dpd_z.gbs 


         ---------------------------------------------------------
                                   SCF
               by Justin Turney, Rob Parrish, Andy Simmonett
                          and Daniel G. A. Smith
                              RKS Reference
                       24 Threads, 137329 MiB Core
         ---------------------------------------------------------

  ==> Geometry <==

    Molecular point group: d2h
    Full point group: D2h

    Geometry (in Angstrom), charge = 0, multiplicity = 1:

       Center              X                  Y                   Z               Mass       
    ------------   -----------------  -----------------  -----------------  -----------------
         C            0.000000000000     0.000000000000    -0.667100000000    12.000000000000
         C            0.000000000000     0.000000000000     0.667100000000    12.000000000000
         H            0.924721931371     0.000000000000     1.231633519800     1.007825032230
         H           -0.924721931371    -0.000000000000     1.231633519800     1.007825032230
         H            0.924721931371     0.000000000000    -1.231633519800     1.007825032230
         H           -0.924721931371    -0.000000000000    -1.231633519800     1.007825032230

  Running in d2h symmetry.

  Rotational constants: A =      4.89023  B =      1.00369  C =      0.83277 [cm^-1]
  Rotational constants: A = 146605.32712  B =  30089.78152  C =  24965.72936 [MHz]
  Nuclear repulsion =   33.359869881244570

  Charge       = 0
  Multiplicity = 1
  Electrons    = 16
  Nalpha       = 8
  Nbeta        = 8

  ==> Algorithm <==

  SCF Algorithm Type is DF.
  DIIS enabled.
  MOM disabled.
  Fractional occupation disabled.
  Guess Type is SAD.
  Energy threshold   = 1.00e-08
  Density threshold  = 1.00e-08
  Integral threshold = 0.00e+00

  ==> Primary Basis <==

  Basis Set: AUG-CC-PV(D+D)Z
    Blend: AUG-CC-PV(D+D)Z
    Number of shells: 38
    Number of basis function: 82
    Number of Cartesian functions: 86
    Spherical Harmonics?: true
    Max angular momentum: 2

  ==> DFT Potential <==

   => Composite Functional: WB97X-V <= 

    wB97X-V Hyb-GGA Exchange-Correlation Functional

    N. Mardirossian and M. Head-Gordon, Phys. Chem. Chem. Phys. 16, 9904 (2014)

    Deriv               =              1
    GGA                 =           TRUE
    Meta                =          FALSE

    Exchange Hybrid     =           TRUE
    MP2 Hybrid          =          FALSE

   => Exchange-Correlation Functionals <=

    1.0000   wB97X-V range-separated functional

   => Exact (HF) Exchange <=

    0.8330            HF,LR [omega = 0.3000]
    0.1670               HF 

   => VV10 Non-Local Parameters <=

    VV10 B              =     6.0000E+00
    VV10 C              =     1.0000E-02

   => Molecular Quadrature <=

    Radial Scheme          =       TREUTLER
    Pruning Scheme         =           FLAT
    Nuclear Scheme         =       TREUTLER

    BS radius alpha        =              1
    Pruning alpha          =              1
    Radial Points          =             75
    Spherical Points       =            302
    Total Points           =         135900
    Total Blocks           =           1104
    Max Points             =            256
    Max Functions          =             82

   => Loading Basis Set <=

    Name: (AUG-CC-PV(D+D)Z AUX)
    Role: JKFIT
    Keyword: DF_BASIS_SCF
    atoms 1-2 entry C          line   154 file /work/zw18965/.conda/envs/p4env/share/psi4/basis/aug-cc-pvdz-jkfit.gbs 
    atoms 3-6 entry H          line    70 file /work/zw18965/.conda/envs/p4env/share/psi4/basis/aug-cc-pvdz-jkfit.gbs 

  ==> Pre-Iterations <==

   -------------------------------------------------------
    Irrep   Nso     Nmo     Nalpha   Nbeta   Ndocc  Nsocc
   -------------------------------------------------------
     Ag        18      18       0       0       0       0
     B1g        4       4       0       0       0       0
     B2g       12      12       0       0       0       0
     B3g        7       7       0       0       0       0
     Au         4       4       0       0       0       0
     B1u       18      18       0       0       0       0
     B2u        7       7       0       0       0       0
     B3u       12      12       0       0       0       0
   -------------------------------------------------------
    Total      82      82       8       8       8       0
   -------------------------------------------------------

  ==> Integral Setup <==

  ==> DiskDFJK: Density-Fitted J/K Matrices <==

    J tasked:                  Yes
    K tasked:                  Yes
    wK tasked:                 Yes
    Omega:               3.000E-01
    OpenMP threads:             24
    Integrals threads:          24
    Memory [MiB]:           102672
    Algorithm:                Core
    Integral Cache:           NONE
    Schwarz Cutoff:          1E-12
    Fitting Condition:       1E-10

   => Auxiliary Basis Set <=

  Basis Set: (AUG-CC-PV(D+D)Z AUX)
    Blend: AUG-CC-PVDZ-JKFIT
    Number of shells: 104
    Number of basis function: 300
    Number of Cartesian functions: 342
    Spherical Harmonics?: true
    Max angular momentum: 3

  Cached 100.0% of DFT collocation blocks in 0.317 [GiB].

  Minimum eigenvalue in the overlap matrix is 1.0850873003E-04.
  Using Symmetric Orthogonalization.

  SCF Guess: Superposition of Atomic Densities via on-the-fly atomic UHF.

  ==> Iterations <==

                           Total Energy        Delta E     RMS |[F,P]|

   @DF-RKS iter SAD:   -77.82087761278461   -7.78209e+01   0.00000e+00 
   @DF-RKS iter   1:   -78.44275850103806   -6.21881e-01   1.43413e-02 DIIS
   @DF-RKS iter   2:   -78.51892344436612   -7.61649e-02   9.08920e-03 DIIS
   @DF-RKS iter   3:   -78.56638187724933   -4.74584e-02   4.18715e-04 DIIS
   @DF-RKS iter   4:   -78.56660627499961   -2.24398e-04   5.08254e-05 DIIS
   @DF-RKS iter   5:   -78.56660949575078   -3.22075e-06   7.54287e-06 DIIS
   @DF-RKS iter   6:   -78.56660957577624   -8.00255e-08   1.21784e-06 DIIS
   @DF-RKS iter   7:   -78.56660957830059   -2.52435e-09   1.65281e-07 DIIS
   @DF-RKS iter   8:   -78.56660957834413   -4.35421e-11   1.84907e-08 DIIS
   @DF-RKS iter   9:   -78.56660957834481   -6.82121e-13   3.21404e-09 DIIS
  Energy and wave function converged.


  ==> Post-Iterations <==

    Orbital Energies [Eh]
    ---------------------

    Doubly Occupied:                                                      

       1Ag   -10.285317     1B1u  -10.284481     2Ag    -0.895896  
       2B1u   -0.703344     1B3u   -0.584481     3Ag    -0.527697  
       1B2g   -0.460510     1B2u   -0.376547  

    Virtual:                                                              

       4Ag     0.040983     3B1u    0.052522     2B3u    0.053537  
       1B3g    0.073267     2B2g    0.074730     2B2u    0.114473  
       5Ag     0.125928     4B1u    0.145611     6Ag     0.169249  
       3B3u    0.169264     2B3g    0.170545     3B2g    0.202323  
       5B1u    0.214778     7Ag     0.219798     4B3u    0.257038  
       1B1g    0.298346     6B1u    0.299912     8Ag     0.378125  
       7B1u    0.380193     1Au     0.381250     3B2u    0.410337  
       4B2g    0.421998     5B3u    0.440831     9Ag     0.498142  
       3B3g    0.501819     5B2g    0.514419     6B3u    0.528491  
       4B2u    0.564293     7B3u    0.565931    10Ag     0.569202  
       8B1u    0.574462    11Ag     0.583533     6B2g    0.611071  
       2B1g    0.612139     9B1u    0.622554    10B1u    0.671362  
       4B3g    0.687638    11B1u    0.751076     5B2u    0.778623  
       2Au     0.795421     7B2g    0.799666    12Ag     0.897771  
       5B3g    0.979067     8B3u    1.074559    12B1u    1.110159  
       8B2g    1.176030    13Ag     1.330422     9B3u    1.343437  
       6B2u    1.377117     3B1g    1.389909    13B1u    1.501839  
      14Ag     1.569983     9B2g    1.632683     3Au     1.656845  
      15Ag     1.701164     6B3g    1.723366    10B3u    1.803772  
      16Ag     1.866121    14B1u    1.909597     7B2u    1.928539  
      10B2g    1.963446    15B1u    1.971966     4B1g    1.984633  
      11B3u    1.996910     7B3g    2.210310     4Au     2.269375  
      16B1u    2.296916    17Ag     2.440038    11B2g    2.490657  
      17B1u    2.602587    18Ag     2.615136    12B3u    2.675866  
      18B1u    3.212937    12B2g    3.256611  

    Final Occupation by Irrep:
             Ag   B1g   B2g   B3g    Au   B1u   B2u   B3u 
    DOCC [     3,    0,    1,    0,    0,    2,    1,    1 ]

  @DF-RKS Final Energy:   -78.56660957834481

   => Energetics <=

    Nuclear Repulsion Energy =             33.3598698812445704
    One-Electron Energy =                -170.1553302847073894
    Two-Electron Energy =                  66.4655094883633950
    DFT Exchange-Correlation Energy =      -8.3016013528371602
    Empirical Dispersion Energy =           0.0000000000000000
    VV10 Nonlocal Energy =                  0.0649426895917506
    Total Energy =                        -78.5666095783448242

Computation Completed


Properties will be evaluated at   0.000000,   0.000000,   0.000000 [a0]

Properties computed using the SCF density matrix

  Nuclear Dipole Moment: [e a0]
     X:     0.0000      Y:     0.0000      Z:     0.0000

  Electronic Dipole Moment: [e a0]
     X:     0.0000      Y:     0.0000      Z:     0.0000

  Dipole Moment: [e a0]
     X:     0.0000      Y:     0.0000      Z:     0.0000     Total:     0.0000

  Dipole Moment: [D]
     X:     0.0000      Y:     0.0000      Z:     0.0000     Total:     0.0000


*** tstop() called on bp1-compute00116.data.bp.acrc.priv at Tue Apr 27 17:50:21 2021
Module time:
	user time   =     103.09 seconds =       1.72 minutes
	system time =       2.31 seconds =       0.04 minutes
	total time  =          4 seconds =       0.07 minutes
Total time:
	user time   =     523.04 seconds =       8.72 minutes
	system time =      14.56 seconds =       0.24 minutes
	total time  =         23 seconds =       0.38 minutes

  //>>>>>>>>>>>>>>>>>>>>>>>>>>>>>>>>>>>//
  //    Loading displacement 6 of 7    //
  //<<<<<<<<<<<<<<<<<<<<<<<<<<<<<<<<<<<//

*** tstart() called on bp1-compute00116.data.bp.acrc.priv
*** at Tue Apr 27 17:50:21 2021

   => Loading Basis Set <=

    Name: AUG-CC-PV(D+D)Z
    Role: ORBITAL
    Keyword: BASIS
    atoms 1-2 entry C          line   198 file /work/zw18965/.conda/envs/p4env/share/psi4/basis/aug-cc-pv_dpd_z.gbs 
    atoms 3-6 entry H          line    56 file /work/zw18965/.conda/envs/p4env/share/psi4/basis/aug-cc-pv_dpd_z.gbs 


         ---------------------------------------------------------
                                   SCF
               by Justin Turney, Rob Parrish, Andy Simmonett
                          and Daniel G. A. Smith
                              RKS Reference
                       24 Threads, 137329 MiB Core
         ---------------------------------------------------------

  ==> Geometry <==

    Molecular point group: d2h
    Full point group: D2h

    Geometry (in Angstrom), charge = 0, multiplicity = 1:

       Center              X                  Y                   Z               Mass       
    ------------   -----------------  -----------------  -----------------  -----------------
         C            0.000000000000    -0.000000000000    -0.667100000000    12.000000000000
         C            0.000000000000    -0.000000000000     0.667100000000    12.000000000000
         H            0.923404134200     0.000000000000     1.230315722629     1.007825032230
         H           -0.923404134200    -0.000000000000     1.230315722629     1.007825032230
         H            0.923404134200     0.000000000000    -1.230315722629     1.007825032230
         H           -0.923404134200    -0.000000000000    -1.230315722629     1.007825032230

  Running in d2h symmetry.

  Rotational constants: A =      4.90420  B =      1.00447  C =      0.83371 [cm^-1]
  Rotational constants: A = 147024.06889  B =  30113.23093  C =  24994.00038 [MHz]
  Nuclear repulsion =   33.386210109592625

  Charge       = 0
  Multiplicity = 1
  Electrons    = 16
  Nalpha       = 8
  Nbeta        = 8

  ==> Algorithm <==

  SCF Algorithm Type is DF.
  DIIS enabled.
  MOM disabled.
  Fractional occupation disabled.
  Guess Type is SAD.
  Energy threshold   = 1.00e-08
  Density threshold  = 1.00e-08
  Integral threshold = 0.00e+00

  ==> Primary Basis <==

  Basis Set: AUG-CC-PV(D+D)Z
    Blend: AUG-CC-PV(D+D)Z
    Number of shells: 38
    Number of basis function: 82
    Number of Cartesian functions: 86
    Spherical Harmonics?: true
    Max angular momentum: 2

  ==> DFT Potential <==

   => Composite Functional: WB97X-V <= 

    wB97X-V Hyb-GGA Exchange-Correlation Functional

    N. Mardirossian and M. Head-Gordon, Phys. Chem. Chem. Phys. 16, 9904 (2014)

    Deriv               =              1
    GGA                 =           TRUE
    Meta                =          FALSE

    Exchange Hybrid     =           TRUE
    MP2 Hybrid          =          FALSE

   => Exchange-Correlation Functionals <=

    1.0000   wB97X-V range-separated functional

   => Exact (HF) Exchange <=

    0.8330            HF,LR [omega = 0.3000]
    0.1670               HF 

   => VV10 Non-Local Parameters <=

    VV10 B              =     6.0000E+00
    VV10 C              =     1.0000E-02

   => Molecular Quadrature <=

    Radial Scheme          =       TREUTLER
    Pruning Scheme         =           FLAT
    Nuclear Scheme         =       TREUTLER

    BS radius alpha        =              1
    Pruning alpha          =              1
    Radial Points          =             75
    Spherical Points       =            302
    Total Points           =         135900
    Total Blocks           =           1104
    Max Points             =            256
    Max Functions          =             82

   => Loading Basis Set <=

    Name: (AUG-CC-PV(D+D)Z AUX)
    Role: JKFIT
    Keyword: DF_BASIS_SCF
    atoms 1-2 entry C          line   154 file /work/zw18965/.conda/envs/p4env/share/psi4/basis/aug-cc-pvdz-jkfit.gbs 
    atoms 3-6 entry H          line    70 file /work/zw18965/.conda/envs/p4env/share/psi4/basis/aug-cc-pvdz-jkfit.gbs 

  ==> Pre-Iterations <==

   -------------------------------------------------------
    Irrep   Nso     Nmo     Nalpha   Nbeta   Ndocc  Nsocc
   -------------------------------------------------------
     Ag        18      18       0       0       0       0
     B1g        4       4       0       0       0       0
     B2g       12      12       0       0       0       0
     B3g        7       7       0       0       0       0
     Au         4       4       0       0       0       0
     B1u       18      18       0       0       0       0
     B2u        7       7       0       0       0       0
     B3u       12      12       0       0       0       0
   -------------------------------------------------------
    Total      82      82       8       8       8       0
   -------------------------------------------------------

  ==> Integral Setup <==

  ==> DiskDFJK: Density-Fitted J/K Matrices <==

    J tasked:                  Yes
    K tasked:                  Yes
    wK tasked:                 Yes
    Omega:               3.000E-01
    OpenMP threads:             24
    Integrals threads:          24
    Memory [MiB]:           102672
    Algorithm:                Core
    Integral Cache:           NONE
    Schwarz Cutoff:          1E-12
    Fitting Condition:       1E-10

   => Auxiliary Basis Set <=

  Basis Set: (AUG-CC-PV(D+D)Z AUX)
    Blend: AUG-CC-PVDZ-JKFIT
    Number of shells: 104
    Number of basis function: 300
    Number of Cartesian functions: 342
    Spherical Harmonics?: true
    Max angular momentum: 3

  Cached 100.0% of DFT collocation blocks in 0.317 [GiB].

  Minimum eigenvalue in the overlap matrix is 1.0858504448E-04.
  Using Symmetric Orthogonalization.

  SCF Guess: Superposition of Atomic Densities via on-the-fly atomic UHF.

  ==> Iterations <==

                           Total Energy        Delta E     RMS |[F,P]|

   @DF-RKS iter SAD:   -77.82302747007273   -7.78230e+01   0.00000e+00 
   @DF-RKS iter   1:   -78.44263638586499   -6.19609e-01   1.43479e-02 DIIS
   @DF-RKS iter   2:   -78.51898465279504   -7.63483e-02   9.07804e-03 DIIS
   @DF-RKS iter   3:   -78.56628316954209   -4.72985e-02   4.18620e-04 DIIS
   @DF-RKS iter   4:   -78.56650705929735   -2.23890e-04   5.09037e-05 DIIS
   @DF-RKS iter   5:   -78.56651027716640   -3.21787e-06   7.54868e-06 DIIS
   @DF-RKS iter   6:   -78.56651035705150   -7.98851e-08   1.21402e-06 DIIS
   @DF-RKS iter   7:   -78.56651035955753   -2.50603e-09   1.64285e-07 DIIS
   @DF-RKS iter   8:   -78.56651035960002   -4.24905e-11   1.80688e-08 DIIS
   @DF-RKS iter   9:   -78.56651035960068   -6.67910e-13   3.14011e-09 DIIS
  Energy and wave function converged.


  ==> Post-Iterations <==

    Orbital Energies [Eh]
    ---------------------

    Doubly Occupied:                                                      

       1Ag   -10.284894     1B1u  -10.284058     2Ag    -0.896095  
       2B1u   -0.703824     1B3u   -0.584955     3Ag    -0.527759  
       1B2g   -0.460940     1B2u   -0.376509  

    Virtual:                                                              

       4Ag     0.040990     3B1u    0.052540     2B3u    0.053542  
       1B3g    0.073284     2B2g    0.074732     2B2u    0.114473  
       5Ag     0.125947     4B1u    0.145651     6Ag     0.169244  
       3B3u    0.169291     2B3g    0.170541     3B2g    0.202308  
       5B1u    0.214867     7Ag     0.220092     4B3u    0.257662  
       1B1g    0.298429     6B1u    0.300383     8Ag     0.378353  
       7B1u    0.380304     1Au     0.381412     3B2u    0.410539  
       4B2g    0.422287     5B3u    0.440913     9Ag     0.498086  
       3B3g    0.502032     5B2g    0.514741     6B3u    0.528567  
       4B2u    0.564198     7B3u    0.566345    10Ag     0.569594  
       8B1u    0.574472    11Ag     0.583839     6B2g    0.611170  
       2B1g    0.612367     9B1u    0.623208    10B1u    0.671560  
       4B3g    0.687770    11B1u    0.751438     5B2u    0.778848  
       2Au     0.795626     7B2g    0.800453    12Ag     0.898792  
       5B3g    0.979235     8B3u    1.074796    12B1u    1.110479  
       8B2g    1.176400    13Ag     1.330402     9B3u    1.343045  
       6B2u    1.377125     3B1g    1.390101    13B1u    1.501140  
      14Ag     1.569808     9B2g    1.632504     3Au     1.657046  
      15Ag     1.701975     6B3g    1.723998    10B3u    1.805063  
      16Ag     1.867200    14B1u    1.910616     7B2u    1.929471  
      10B2g    1.964535    15B1u    1.972601     4B1g    1.985661  
      11B3u    1.999799     7B3g    2.210650     4Au     2.271427  
      16B1u    2.299216    17Ag     2.442339    11B2g    2.494012  
      17B1u    2.604465    18Ag     2.620101    12B3u    2.679806  
      18B1u    3.215884    12B2g    3.261287  

    Final Occupation by Irrep:
             Ag   B1g   B2g   B3g    Au   B1u   B2u   B3u 
    DOCC [     3,    0,    1,    0,    0,    2,    1,    1 ]

  @DF-RKS Final Energy:   -78.56651035960068

   => Energetics <=

    Nuclear Repulsion Energy =             33.3862101095926249
    One-Electron Energy =                -170.2049580736203325
    Two-Electron Energy =                  66.4909565544643328
    DFT Exchange-Correlation Energy =      -8.3036653652569594
    Empirical Dispersion Energy =           0.0000000000000000
    VV10 Nonlocal Energy =                  0.0649464152196399
    Total Energy =                        -78.5665103596006844

Computation Completed


Properties will be evaluated at   0.000000,   0.000000,   0.000000 [a0]

Properties computed using the SCF density matrix

  Nuclear Dipole Moment: [e a0]
     X:     0.0000      Y:     0.0000      Z:     0.0000

  Electronic Dipole Moment: [e a0]
     X:     0.0000      Y:     0.0000      Z:     0.0000

  Dipole Moment: [e a0]
     X:     0.0000      Y:     0.0000      Z:     0.0000     Total:     0.0000

  Dipole Moment: [D]
     X:     0.0000      Y:     0.0000      Z:     0.0000     Total:     0.0000


*** tstop() called on bp1-compute00116.data.bp.acrc.priv at Tue Apr 27 17:50:26 2021
Module time:
	user time   =     104.09 seconds =       1.73 minutes
	system time =       2.44 seconds =       0.04 minutes
	total time  =          5 seconds =       0.08 minutes
Total time:
	user time   =     627.27 seconds =      10.45 minutes
	system time =      17.00 seconds =       0.28 minutes
	total time  =         28 seconds =       0.47 minutes

  //>>>>>>>>>>>>>>>>>>>>>>>>>>>>>>>>>>>//
  //    Loading displacement 7 of 7    //
  //<<<<<<<<<<<<<<<<<<<<<<<<<<<<<<<<<<<//

*** tstart() called on bp1-compute00116.data.bp.acrc.priv
*** at Tue Apr 27 17:50:26 2021

   => Loading Basis Set <=

    Name: AUG-CC-PV(D+D)Z
    Role: ORBITAL
    Keyword: BASIS
    atoms 1-2 entry C          line   198 file /work/zw18965/.conda/envs/p4env/share/psi4/basis/aug-cc-pv_dpd_z.gbs 
    atoms 3-6 entry H          line    56 file /work/zw18965/.conda/envs/p4env/share/psi4/basis/aug-cc-pv_dpd_z.gbs 


         ---------------------------------------------------------
                                   SCF
               by Justin Turney, Rob Parrish, Andy Simmonett
                          and Daniel G. A. Smith
                              RKS Reference
                       24 Threads, 137329 MiB Core
         ---------------------------------------------------------

  ==> Geometry <==

    Molecular point group: d2h
    Full point group: D2h

    Geometry (in Angstrom), charge = 0, multiplicity = 1:

       Center              X                  Y                   Z               Mass       
    ------------   -----------------  -----------------  -----------------  -----------------
         C            0.000000000000    -0.000000000000    -0.667100000000    12.000000000000
         C            0.000000000000    -0.000000000000     0.667100000000    12.000000000000
         H            0.923404134200     0.000000000000     1.232951316971     1.007825032230
         H           -0.923404134200    -0.000000000000     1.232951316971     1.007825032230
         H            0.923404134200     0.000000000000    -1.232951316971     1.007825032230
         H           -0.923404134200    -0.000000000000    -1.232951316971     1.007825032230

  Running in d2h symmetry.

  Rotational constants: A =      4.90420  B =      1.00291  C =      0.83263 [cm^-1]
  Rotational constants: A = 147024.06889  B =  30066.34355  C =  24961.69106 [MHz]
  Nuclear repulsion =   33.363162078586903

  Charge       = 0
  Multiplicity = 1
  Electrons    = 16
  Nalpha       = 8
  Nbeta        = 8

  ==> Algorithm <==

  SCF Algorithm Type is DF.
  DIIS enabled.
  MOM disabled.
  Fractional occupation disabled.
  Guess Type is SAD.
  Energy threshold   = 1.00e-08
  Density threshold  = 1.00e-08
  Integral threshold = 0.00e+00

  ==> Primary Basis <==

  Basis Set: AUG-CC-PV(D+D)Z
    Blend: AUG-CC-PV(D+D)Z
    Number of shells: 38
    Number of basis function: 82
    Number of Cartesian functions: 86
    Spherical Harmonics?: true
    Max angular momentum: 2

  ==> DFT Potential <==

   => Composite Functional: WB97X-V <= 

    wB97X-V Hyb-GGA Exchange-Correlation Functional

    N. Mardirossian and M. Head-Gordon, Phys. Chem. Chem. Phys. 16, 9904 (2014)

    Deriv               =              1
    GGA                 =           TRUE
    Meta                =          FALSE

    Exchange Hybrid     =           TRUE
    MP2 Hybrid          =          FALSE

   => Exchange-Correlation Functionals <=

    1.0000   wB97X-V range-separated functional

   => Exact (HF) Exchange <=

    0.8330            HF,LR [omega = 0.3000]
    0.1670               HF 

   => VV10 Non-Local Parameters <=

    VV10 B              =     6.0000E+00
    VV10 C              =     1.0000E-02

   => Molecular Quadrature <=

    Radial Scheme          =       TREUTLER
    Pruning Scheme         =           FLAT
    Nuclear Scheme         =       TREUTLER

    BS radius alpha        =              1
    Pruning alpha          =              1
    Radial Points          =             75
    Spherical Points       =            302
    Total Points           =         135900
    Total Blocks           =           1104
    Max Points             =            256
    Max Functions          =             82

   => Loading Basis Set <=

    Name: (AUG-CC-PV(D+D)Z AUX)
    Role: JKFIT
    Keyword: DF_BASIS_SCF
    atoms 1-2 entry C          line   154 file /work/zw18965/.conda/envs/p4env/share/psi4/basis/aug-cc-pvdz-jkfit.gbs 
    atoms 3-6 entry H          line    70 file /work/zw18965/.conda/envs/p4env/share/psi4/basis/aug-cc-pvdz-jkfit.gbs 

  ==> Pre-Iterations <==

   -------------------------------------------------------
    Irrep   Nso     Nmo     Nalpha   Nbeta   Ndocc  Nsocc
   -------------------------------------------------------
     Ag        18      18       0       0       0       0
     B1g        4       4       0       0       0       0
     B2g       12      12       0       0       0       0
     B3g        7       7       0       0       0       0
     Au         4       4       0       0       0       0
     B1u       18      18       0       0       0       0
     B2u        7       7       0       0       0       0
     B3u       12      12       0       0       0       0
   -------------------------------------------------------
    Total      82      82       8       8       8       0
   -------------------------------------------------------

  ==> Integral Setup <==

  ==> DiskDFJK: Density-Fitted J/K Matrices <==

    J tasked:                  Yes
    K tasked:                  Yes
    wK tasked:                 Yes
    Omega:               3.000E-01
    OpenMP threads:             24
    Integrals threads:          24
    Memory [MiB]:           102672
    Algorithm:                Core
    Integral Cache:           NONE
    Schwarz Cutoff:          1E-12
    Fitting Condition:       1E-10

   => Auxiliary Basis Set <=

  Basis Set: (AUG-CC-PV(D+D)Z AUX)
    Blend: AUG-CC-PVDZ-JKFIT
    Number of shells: 104
    Number of basis function: 300
    Number of Cartesian functions: 342
    Spherical Harmonics?: true
    Max angular momentum: 3

  Cached 100.0% of DFT collocation blocks in 0.317 [GiB].

  Minimum eigenvalue in the overlap matrix is 1.0842997898E-04.
  Using Symmetric Orthogonalization.

  SCF Guess: Superposition of Atomic Densities via on-the-fly atomic UHF.

  ==> Iterations <==

                           Total Energy        Delta E     RMS |[F,P]|

   @DF-RKS iter SAD:   -77.82108997765604   -7.78211e+01   0.00000e+00 
   @DF-RKS iter   1:   -78.44275082054077   -6.21661e-01   1.43406e-02 DIIS
   @DF-RKS iter   2:   -78.51891960101888   -7.61688e-02   9.08845e-03 DIIS
   @DF-RKS iter   3:   -78.56636126612754   -4.74417e-02   4.18836e-04 DIIS
   @DF-RKS iter   4:   -78.56658585883858   -2.24593e-04   5.09956e-05 DIIS
   @DF-RKS iter   5:   -78.56658909612071   -3.23728e-06   7.56221e-06 DIIS
   @DF-RKS iter   6:   -78.56658917653198   -8.04113e-08   1.21953e-06 DIIS
   @DF-RKS iter   7:   -78.56658917906188   -2.52990e-09   1.65249e-07 DIIS
   @DF-RKS iter   8:   -78.56658917910543   -4.35563e-11   1.85247e-08 DIIS
   @DF-RKS iter   9:   -78.56658917910616   -7.24754e-13   3.21933e-09 DIIS
  Energy and wave function converged.


  ==> Post-Iterations <==

    Orbital Energies [Eh]
    ---------------------

    Doubly Occupied:                                                      

       1Ag   -10.285278     1B1u  -10.284441     2Ag    -0.895881  
       2B1u   -0.703700     1B3u   -0.584257     3Ag    -0.528152  
       1B2g   -0.460402     1B2u   -0.376547  

    Virtual:                                                              

       4Ag     0.040977     3B1u    0.052489     2B3u    0.053567  
       1B3g    0.073228     2B2g    0.074734     2B2u    0.114477  
       5Ag     0.125944     4B1u    0.145584     6Ag     0.169242  
       3B3u    0.169312     2B3g    0.170516     3B2g    0.202339  
       5B1u    0.214841     7Ag     0.220209     4B3u    0.256834  
       1B1g    0.298565     6B1u    0.300130     8Ag     0.377943  
       7B1u    0.380063     1Au     0.381328     3B2u    0.410216  
       4B2g    0.421898     5B3u    0.441180     9Ag     0.498171  
       3B3g    0.501721     5B2g    0.514624     6B3u    0.528403  
       4B2u    0.564687     7B3u    0.565913    10Ag     0.569196  
       8B1u    0.574382    11Ag     0.584362     6B2g    0.611087  
       2B1g    0.612068     9B1u    0.622875    10B1u    0.671235  
       4B3g    0.687900    11B1u    0.751077     5B2u    0.778610  
       2Au     0.795448     7B2g    0.799175    12Ag     0.897036  
       5B3g    0.978944     8B3u    1.074806    12B1u    1.110147  
       8B2g    1.176809    13Ag     1.331603     9B3u    1.342989  
       6B2u    1.377017     3B1g    1.389695    13B1u    1.502192  
      14Ag     1.570001     9B2g    1.631644     3Au     1.656639  
      15Ag     1.700271     6B3g    1.723131    10B3u    1.804747  
      16Ag     1.865489    14B1u    1.909742     7B2u    1.929489  
      10B2g    1.964610    15B1u    1.972994     4B1g    1.984267  
      11B3u    1.995709     7B3g    2.211766     4Au     2.268830  
      16B1u    2.296799    17Ag     2.443575    11B2g    2.491707  
      17B1u    2.605167    18Ag     2.614709    12B3u    2.677359  
      18B1u    3.210039    12B2g    3.258581  

    Final Occupation by Irrep:
             Ag   B1g   B2g   B3g    Au   B1u   B2u   B3u 
    DOCC [     3,    0,    1,    0,    0,    2,    1,    1 ]

  @DF-RKS Final Energy:   -78.56658917910616

   => Energetics <=

    Nuclear Repulsion Energy =             33.3631620785869032
    One-Electron Energy =                -170.1608100916751312
    Two-Electron Energy =                  66.4681647184368529
    DFT Exchange-Correlation Energy =      -8.3020506335684274
    Empirical Dispersion Energy =           0.0000000000000000
    VV10 Nonlocal Energy =                  0.0649447491136555
    Total Energy =                        -78.5665891791061597

Computation Completed


Properties will be evaluated at   0.000000,   0.000000,   0.000000 [a0]

Properties computed using the SCF density matrix

  Nuclear Dipole Moment: [e a0]
     X:     0.0000      Y:     0.0000      Z:     0.0000

  Electronic Dipole Moment: [e a0]
     X:     0.0000      Y:     0.0000      Z:     0.0000

  Dipole Moment: [e a0]
     X:     0.0000      Y:     0.0000      Z:     0.0000     Total:     0.0000

  Dipole Moment: [D]
     X:     0.0000      Y:     0.0000      Z:     0.0000     Total:     0.0000


*** tstop() called on bp1-compute00116.data.bp.acrc.priv at Tue Apr 27 17:50:30 2021
Module time:
	user time   =     102.84 seconds =       1.71 minutes
	system time =       2.06 seconds =       0.03 minutes
	total time  =          4 seconds =       0.07 minutes
Total time:
	user time   =     730.26 seconds =      12.17 minutes
	system time =      19.07 seconds =       0.32 minutes
	total time  =         32 seconds =       0.53 minutes

         ----------------------------------------------------------
                                   FINDIF
                     R. A. King and Jonathon Misiewicz
         ---------------------------------------------------------

  Computing gradient from energies.
    Using 3-point formula.
    Energy without displacement:  -78.5665516958
    Check energies below for precision!
    Forces are for mass-weighted, symmetry-adapted cartesians (in au).

     Coord      Energy(-1)        Energy(+1)            Force
        0    -78.5665343877    -78.5665658552     -0.0031467496
        1    -78.5664860997    -78.5666095783     -0.0123478682
        2    -78.5665103596    -78.5665891791     -0.0078819505


-------------------------------------------------------------
  ## New Matrix (Symmetry 0) ##
  Irrep: 1 Size: 6 x 3

                 1                   2                   3

    1     0.00000000000000     0.00000000000000    -0.00770793078151
    2     0.00000000000000     0.00000000000000     0.00770793078151
    3    -0.00619804263957     0.00000000000000    -0.00395636435668
    4     0.00619804263957     0.00000000000000    -0.00395636435668
    5    -0.00619804263957     0.00000000000000     0.00395636435668
    6     0.00619804263957     0.00000000000000     0.00395636435668




			-----------------------------------------
			 OPTKING 2.0: for geometry optimizations 
			  - R.A. King,  Bethel University        
			-----------------------------------------
	At level 1: Red. Int., RFO, no backsteps, dynamic trust

	Internal coordinates to be generated automatically.
	Detected frag 1 with atoms:  1 2 3 4 5 6
	---Fragment 1 Bond Connectivity---
	 1 : 2 5 6
	 2 : 1 3 4
	 3 : 2
	 4 : 2
	 5 : 1
	 6 : 1

	---Fragment 1 Geometry and Gradient---
	 C           0.0000000000       -0.0000000000       -1.2606362983
	 C           0.0000000000       -0.0000000000        1.2606362983
	 H           1.7449809168        0.0000000000        2.3274500394
	 H          -1.7449809168       -0.0000000000        2.3274500394
	 H           1.7449809168        0.0000000000       -2.3274500394
	 H          -1.7449809168       -0.0000000000       -2.3274500394
	             0.0000000000        0.0000000000       -0.0077079308
	             0.0000000000        0.0000000000        0.0077079308
	            -0.0061980426        0.0000000000       -0.0039563644
	             0.0061980426        0.0000000000       -0.0039563644
	            -0.0061980426        0.0000000000        0.0039563644
	             0.0061980426        0.0000000000        0.0039563644

	Previous optimization step data not found.  Starting new optimization.

	---Fragment 1 Intrafragment Coordinates---
	 - Coordinate -           - BOHR/RAD -       - ANG/DEG -
	 R(1,2)           =         2.521273	       1.334200
	 R(1,5)           =         2.045251	       1.082300
	 R(1,6)           =         2.045251	       1.082300
	 R(2,3)           =         2.045251	       1.082300
	 R(2,4)           =         2.045251	       1.082300
	 B(1,2,3)         =         2.119528	     121.440000
	 B(1,2,4)         =         2.119528	     121.440000
[...]
    Total Points           =         135900
    Total Blocks           =           1088
    Max Points             =            256
    Max Functions          =             82

   => Loading Basis Set <=

    Name: (AUG-CC-PV(D+D)Z AUX)
    Role: JKFIT
    Keyword: DF_BASIS_SCF
    atoms 1-2 entry C          line   154 file /work/zw18965/.conda/envs/p4env/share/psi4/basis/aug-cc-pvdz-jkfit.gbs 
    atoms 3-6 entry H          line    70 file /work/zw18965/.conda/envs/p4env/share/psi4/basis/aug-cc-pvdz-jkfit.gbs 

  ==> Pre-Iterations <==

   -------------------------------------------------------
    Irrep   Nso     Nmo     Nalpha   Nbeta   Ndocc  Nsocc
   -------------------------------------------------------
     A1        30      30       0       0       0       0
     A2        11      11       0       0       0       0
     B1        11      11       0       0       0       0
     B2        30      30       0       0       0       0
   -------------------------------------------------------
    Total      82      82       8       8       8       0
   -------------------------------------------------------

  ==> Integral Setup <==

  ==> DiskDFJK: Density-Fitted J/K Matrices <==

    J tasked:                  Yes
    K tasked:                  Yes
    wK tasked:                 Yes
    Omega:               3.000E-01
    OpenMP threads:             24
    Integrals threads:          24
    Memory [MiB]:           102672
    Algorithm:                Core
    Integral Cache:           NONE
    Schwarz Cutoff:          1E-12
    Fitting Condition:       1E-10

   => Auxiliary Basis Set <=

  Basis Set: (AUG-CC-PV(D+D)Z AUX)
    Blend: AUG-CC-PVDZ-JKFIT
    Number of shells: 104
    Number of basis function: 300
    Number of Cartesian functions: 342
    Spherical Harmonics?: true
    Max angular momentum: 3

  Cached 100.0% of DFT collocation blocks in 0.317 [GiB].

  Minimum eigenvalue in the overlap matrix is 1.0797840893E-04.
  Using Symmetric Orthogonalization.

  SCF Guess: Superposition of Atomic Densities via on-the-fly atomic UHF.

  ==> Iterations <==

                           Total Energy        Delta E     RMS |[F,P]|

   @DF-RKS iter SAD:   -77.81002668961806   -7.78100e+01   0.00000e+00 
   @DF-RKS iter   1:   -78.44301816867456   -6.32991e-01   1.03418e-02 DIIS
   @DF-RKS iter   2:   -78.51827864633580   -7.52605e-02   6.61165e-03 DIIS
   @DF-RKS iter   3:   -78.56660658011717   -4.83279e-02   3.02953e-04 DIIS
   @DF-RKS iter   4:   -78.56683368598783   -2.27106e-04   3.64706e-05 DIIS
   @DF-RKS iter   5:   -78.56683693054777   -3.24456e-06   5.42692e-06 DIIS
   @DF-RKS iter   6:   -78.56683701139576   -8.08480e-08   8.94026e-07 DIIS
   @DF-RKS iter   7:   -78.56683701401765   -2.62189e-09   1.23505e-07 DIIS
   @DF-RKS iter   8:   -78.56683701406649   -4.88427e-11   1.49448e-08 DIIS
   @DF-RKS iter   9:   -78.56683701406750   -1.00897e-12   2.59471e-09 DIIS
   @DF-RKS iter  10:   -78.56683701406753   -2.84217e-14   3.43474e-10 DIIS
   @DF-RKS iter  11:   -78.56683701406759   -5.68434e-14   8.09712e-11 DIIS
  Energy and wave function converged.


  ==> Post-Iterations <==

    Orbital Energies [Eh]
    ---------------------

    Doubly Occupied:                                                      

       1A1   -10.287437     1B2   -10.286599     2A1    -0.894955  
       2B2    -0.700874     3A1    -0.582095     4A1    -0.527397  
       3B2    -0.458287     1B1    -0.376788  

    Virtual:                                                              

       5A1     0.040946     4B2     0.052431     6A1     0.053505  
       1A2     0.073216     5B2     0.074718     2B1     0.114465  
       7A1     0.125832     6B2     0.145400     8A1     0.169099  
       9A1     0.169278     2A2     0.170583     7B2     0.202401  
       8B2     0.214296    10A1     0.218281    11A1     0.253852  
       9B2     0.297527     3B1     0.297913    12A1     0.376952  
      10B2     0.379662     3A2     0.380432     4B1     0.409305  
      11B2     0.420517    13A1     0.440396    14A1     0.498431  
       4A2     0.500746    12B2     0.512777    15A1     0.528092  
      16A1     0.563864     5B1     0.564798    17A1     0.567208  
      13B2     0.574382    18A1     0.581986    14B2     0.610583  
       6B1     0.610988    15B2     0.619332    16B2     0.670447  
       5A2     0.686979    17B2     0.749281     7B1     0.777451  
       6A2     0.794400    18B2     0.795725    19A1     0.892557  
       7A2     0.978238    20A1     1.073369    19B2     1.108614  
      20B2     1.174209    21A1     1.330490    22A1     1.345484  
       8B1     1.377161     9B1     1.388969    21B2     1.505453  
      23A1     1.570823    22B2     1.633657     8A2     1.655912  
      24A1     1.697148     9A2     1.720267    25A1     1.797227  
      26A1     1.860614    23B2     1.904064    10B1     1.923843  
      24B2     1.957817    25B2     1.969183    11B1     1.979343  
      27A1     1.982321    10A2     2.208604    11A2     2.259058  
      26B2     2.284908    28A1     2.428472    27B2     2.473951  
      29A1     2.590499    28B2     2.593570    30A1     2.656285  
      29B2     3.198481    30B2     3.233650  

    Final Occupation by Irrep:
             A1    A2    B1    B2 
    DOCC [     4,    0,    1,    3 ]

  @DF-RKS Final Energy:   -78.56683701406759

   => Energetics <=

    Nuclear Repulsion Energy =             33.2296157771061900
    One-Electron Energy =                -169.9096492551719848
    Two-Electron Energy =                  66.3395323708170110
    DFT Exchange-Correlation Energy =      -8.2912596631028936
    Empirical Dispersion Energy =           0.0000000000000000
    VV10 Nonlocal Energy =                  0.0649237562841005
    Total Energy =                        -78.5668370140675876

Computation Completed


Properties will be evaluated at   0.000000,   0.000000,   0.000000 [a0]

Properties computed using the SCF density matrix

  Nuclear Dipole Moment: [e a0]
     X:     0.0046      Y:     0.0000      Z:     0.0000

  Electronic Dipole Moment: [e a0]
     X:    -0.0048      Y:     0.0000      Z:     0.0000

  Dipole Moment: [e a0]
     X:    -0.0002      Y:     0.0000      Z:     0.0000     Total:     0.0002

  Dipole Moment: [D]
     X:    -0.0006      Y:     0.0000      Z:     0.0000     Total:     0.0006


*** tstop() called on bp1-compute00116.data.bp.acrc.priv at Tue Apr 27 17:54:10 2021
Module time:
	user time   =     117.25 seconds =       1.95 minutes
	system time =       2.01 seconds =       0.03 minutes
	total time  =          5 seconds =       0.08 minutes
Total time:
	user time   =    5820.49 seconds =      97.01 minutes
	system time =     112.39 seconds =       1.87 minutes
	total time  =        252 seconds =       4.20 minutes

         ----------------------------------------------------------
                                   FINDIF
                     R. A. King and Jonathon Misiewicz
         ---------------------------------------------------------

  Computing second-derivative from energies using projected, 
  symmetry-adapted, cartesian coordinates.

  28 energies passed in, including the reference geometry.
    Using 3-point formula.
    Energy without displacement:  -78.5668383119
    Check energies below for precision!
    0: -1          :       -78.5668364408
    0: 1           :       -78.5668370592
    1: -1          :       -78.5668351666
    1: 1           :       -78.5668341706
    2: -1          :       -78.5668359153
    2: 1           :       -78.5668369574
    0: 1, 1: 1     :       -78.5668315847
    0: -1, 1: -1   :       -78.5668319387
    0: 1, 2: 1     :       -78.5668345181
    0: -1, 2: -1   :       -78.5668328452
    1: 1, 2: 1     :       -78.5668297686
    1: -1, 2: -1   :       -78.5668296585
    3: -1          :       -78.5668366401
    4: -1          :       -78.5668342700
    3: 1, 4: 1     :       -78.5668290461
    3: -1, 4: -1   :       -78.5668290520
    5: -1          :       -78.5668378288
    6: -1          :       -78.5668377799
    7: -1          :       -78.5668362315
    8: -1          :       -78.5668346559
    7: 1, 8: 1     :       -78.5668359373
    7: -1, 8: -1   :       -78.5668359285
    9: -1          :       -78.5668378455
    10: -1         :       -78.5668344183
    11: -1         :       -78.5668368038
    10: 1, 11: 1   :       -78.5668370127
    10: -1, 11: -1 :       -78.5668370141

-------------------------------------------------------------


  ==> Harmonic Vibrational Analysis <==

  non-mass-weighted Hessian:       Symmetric? True   Hermitian? True   Lin Dep Dim?  6 (0)
  projection of translations (True) and rotations (True) removed 6 degrees of freedom (6)
  total projector:                 Symmetric? True   Hermitian? True   Lin Dep Dim?  6 (6)
  mass-weighted Hessian:           Symmetric? True   Hermitian? True   Lin Dep Dim?  6 (0)
  pre-proj  low-frequency mode:    0.0000i [cm^-1]
  pre-proj  low-frequency mode:    0.0000i [cm^-1]
  pre-proj  low-frequency mode:    0.0000  [cm^-1]
  pre-proj  low-frequency mode:    0.0000  [cm^-1]
  pre-proj  low-frequency mode:    0.0000  [cm^-1]
  pre-proj  low-frequency mode:    0.0000  [cm^-1]
  pre-proj  all modes:['0.0000i' '0.0000i' '0.0000' '0.0000' '0.0000' '0.0000' '832.3715'
 '992.9829' '1010.5868' '1060.5212' '1236.3349' '1387.4992' '1464.0091'
 '1716.2974' '3159.6675' '3177.7401' '3248.1296' '3275.1025']
  projected mass-weighted Hessian: Symmetric? True   Hermitian? True   Lin Dep Dim?  6 (6)
  post-proj low-frequency mode:    0.0000i [cm^-1] (TR)
  post-proj low-frequency mode:    0.0000i [cm^-1] (TR)
  post-proj low-frequency mode:    0.0000i [cm^-1] (TR)
  post-proj low-frequency mode:    0.0000  [cm^-1] (TR)
  post-proj low-frequency mode:    0.0000  [cm^-1] (TR)
  post-proj low-frequency mode:    0.0001  [cm^-1] (TR)
  post-proj  all modes:['0.0000i' '0.0000i' '0.0000i' '0.0000' '0.0000' '0.0001' '832.3715'
 '992.9829' '1010.5868' '1060.5212' '1236.3349' '1387.4992' '1464.0091'
 '1716.2974' '3159.6675' '3177.7401' '3248.1296' '3275.1025']

  Vibration                       7                   8                   9           
  Freq [cm^-1]                 832.3715            992.9829           1010.5868       
  Irrep                          B3u                 B2u                 B3g          
  Reduced mass [u]              1.0420              1.1607              1.5175        
  Force const [mDyne/A]         0.4253              0.6743              0.9131        
  Turning point v=0 [a0]        0.3726              0.3232              0.2802        
  RMS dev v=0 [a0 u^1/2]        0.2689              0.2462              0.2441        
  Char temp [K]               1197.5972           1428.6813           1454.0094       
  ----------------------------------------------------------------------------------
      1   C                0.04 -0.00  0.00   -0.00 -0.08  0.00    0.00  0.15  0.00   
      2   C                0.04 -0.00  0.00   -0.00 -0.08  0.00    0.00 -0.15  0.00   
      3   H               -0.23 -0.00  0.44   -0.00  0.50 -0.00   -0.00  0.49  0.00   
      4   H               -0.23 -0.00 -0.44   -0.00  0.50  0.00   -0.00  0.49 -0.00   
      5   H               -0.23 -0.00 -0.44   -0.00  0.50 -0.00    0.00 -0.49  0.00   
      6   H               -0.23 -0.00  0.44   -0.00  0.50  0.00    0.00 -0.49 -0.00   

  Vibration                       10                  11                  12          
  Freq [cm^-1]                1060.5212           1236.3349           1387.4992       
  Irrep                           Au                 B2g                  Ag          
  Reduced mass [u]              1.0078              1.5241              1.1592        
  Force const [mDyne/A]         0.6678              1.3725              1.3148        
  Turning point v=0 [a0]        0.3356              0.2528              0.2736        
  RMS dev v=0 [a0 u^1/2]        0.2383              0.2207              0.2083        
  Char temp [K]               1525.8539           1778.8106           1996.3024       
  ----------------------------------------------------------------------------------
      1   C                0.00  0.00  0.00    0.15  0.00 -0.00   -0.00 -0.00 -0.08   
      2   C                0.00 -0.00 -0.00   -0.15 -0.00  0.00    0.00 -0.00  0.08   
      3   H               -0.00  0.50  0.00    0.14  0.00 -0.47   -0.20  0.00  0.45   
      4   H                0.00 -0.50  0.00    0.14  0.00  0.47    0.20  0.00  0.45   
      5   H               -0.00 -0.50 -0.00   -0.14 -0.00 -0.47   -0.20  0.00 -0.45   
      6   H                0.00  0.50  0.00   -0.14 -0.00  0.47    0.20  0.00 -0.45   

  Vibration                       13                  14                  15          
  Freq [cm^-1]                1464.0091           1716.2974           3159.6675       
  Irrep                          B1u                  Ag                 B1u          
  Reduced mass [u]              1.1122              3.6145              1.0475        
  Force const [mDyne/A]         1.4045              6.2732              6.1616        
  Turning point v=0 [a0]        0.2719              0.1393              0.1907        
  RMS dev v=0 [a0 u^1/2]        0.2028              0.1873              0.1380        
  Char temp [K]               2106.3832           2469.3698           4546.0580       
  ----------------------------------------------------------------------------------
      1   C                0.00  0.00 -0.07    0.00 -0.00  0.34   -0.00  0.00 -0.04   
      2   C               -0.00 -0.00 -0.07   -0.00 -0.00 -0.34    0.00 -0.00 -0.04   
      3   H               -0.28 -0.00  0.41   -0.39 -0.00  0.20    0.43 -0.00  0.25   
      4   H                0.28  0.00  0.41    0.39  0.00  0.20   -0.43 -0.00  0.25   
      5   H                0.28  0.00  0.41   -0.39 -0.00 -0.20   -0.43  0.00  0.25   
      6   H               -0.28  0.00  0.41    0.39 -0.00 -0.20    0.43  0.00  0.25   

  Vibration                       16                  17                  18          
  Freq [cm^-1]                3177.7401           3248.1296           3275.1025       
  Irrep                           Ag                 B2g                 B3u          
  Reduced mass [u]              1.0770              1.1159              1.1185        
  Force const [mDyne/A]         6.4079              6.9364              7.0688        
  Turning point v=0 [a0]        0.1876              0.1823              0.1813        
  RMS dev v=0 [a0 u^1/2]        0.1376              0.1361              0.1356        
  Char temp [K]               4572.0605           4673.3354           4712.1433       
  ----------------------------------------------------------------------------------
      1   C                0.00 -0.00  0.06    0.07 -0.00 -0.00   -0.07  0.00 -0.00   
      2   C               -0.00 -0.00 -0.06   -0.07  0.00  0.00   -0.07 -0.00  0.00   
      3   H                0.43  0.00  0.26    0.42 -0.00  0.26    0.42  0.00  0.26   
      4   H               -0.43  0.00  0.26    0.42 -0.00 -0.26    0.42 -0.00 -0.26   
      5   H                0.43 -0.00 -0.26   -0.42  0.00  0.26    0.42 -0.00 -0.26   
      6   H               -0.43 -0.00 -0.26   -0.42  0.00 -0.26    0.42 -0.00  0.26   

  ==> Thermochemistry Components <==

  Entropy, S
    Electronic S            0.000 [cal/(mol K)]        0.000 [J/(mol K)]       0.00000000 [mEh/K] (multiplicity = 1)
    Translational S        35.927 [cal/(mol K)]      150.318 [J/(mol K)]       0.05725309 [mEh/K] (mol. weight = 28.0313 [u], P = 101325.00 [Pa])
    Rotational S           15.887 [cal/(mol K)]       66.471 [J/(mol K)]       0.02531765 [mEh/K] (symmetry no. = 4)
    Vibrational S           0.515 [cal/(mol K)]        2.153 [J/(mol K)]       0.00081992 [mEh/K]
  Total S                  52.328 [cal/(mol K)]      218.942 [J/(mol K)]       0.08339067 [mEh/K]
  Correction S              0.000 [cal/(mol K)]        0.000 [J/(mol K)]       0.00000000 [mEh/K]

  Constant volume heat capacity, Cv
    Electronic Cv           0.000 [cal/(mol K)]        0.000 [J/(mol K)]       0.00000000 [mEh/K]
    Translational Cv        2.981 [cal/(mol K)]       12.472 [J/(mol K)]       0.00475022 [mEh/K]
    Rotational Cv           2.981 [cal/(mol K)]       12.472 [J/(mol K)]       0.00475022 [mEh/K]
    Vibrational Cv          2.078 [cal/(mol K)]        8.693 [J/(mol K)]       0.00331083 [mEh/K]
  Total Cv                  8.039 [cal/(mol K)]       33.636 [J/(mol K)]       0.01281126 [mEh/K]
  Correction Cv             0.000 [cal/(mol K)]        0.000 [J/(mol K)]       0.00000000 [mEh/K]

  Constant pressure heat capacity, Cp
    Electronic Cp           0.000 [cal/(mol K)]        0.000 [J/(mol K)]       0.00000000 [mEh/K]
    Translational Cp        4.968 [cal/(mol K)]       20.786 [J/(mol K)]       0.00791703 [mEh/K]
    Rotational Cp           2.981 [cal/(mol K)]       12.472 [J/(mol K)]       0.00475022 [mEh/K]
    Vibrational Cp          2.078 [cal/(mol K)]        8.693 [J/(mol K)]       0.00331083 [mEh/K]
  Total Cp                 10.026 [cal/(mol K)]       41.950 [J/(mol K)]       0.01597807 [mEh/K]
  Correction Cp             0.000 [cal/(mol K)]        0.000 [J/(mol K)]       0.00000000 [mEh/K]

  ==> Thermochemistry Energy Analysis <==

  Raw electronic energy, E0
  Total E0, Electronic energy at well bottom at 0 [K]                  -78.56683831 [Eh]

  Zero-point energy, ZPE_vib = Sum_i nu_i / 2
    Electronic ZPE          0.000 [kcal/mol]        0.000 [kJ/mol]       0.00000000 [Eh]
    Translational ZPE       0.000 [kcal/mol]        0.000 [kJ/mol]       0.00000000 [Eh]
    Rotational ZPE          0.000 [kcal/mol]        0.000 [kJ/mol]       0.00000000 [Eh]
    Vibrational ZPE        32.253 [kcal/mol]      134.946 [kJ/mol]       0.05139829 [Eh]       11280.621 [cm^-1]
  Correction ZPE           32.253 [kcal/mol]      134.946 [kJ/mol]       0.05139829 [Eh]       11280.621 [cm^-1]
  Total ZPE, Electronic energy at 0 [K]                                -78.51544002 [Eh]

  Thermal Energy, E (includes ZPE)
    Electronic E            0.000 [kcal/mol]        0.000 [kJ/mol]       0.00000000 [Eh]
    Translational E         0.889 [kcal/mol]        3.718 [kJ/mol]       0.00141628 [Eh]
    Rotational E            0.889 [kcal/mol]        3.718 [kJ/mol]       0.00141628 [Eh]
    Vibrational E          32.380 [kcal/mol]      135.476 [kJ/mol]       0.05160019 [Eh]
  Correction E             34.157 [kcal/mol]      142.913 [kJ/mol]       0.05443274 [Eh]
  Total E, Electronic energy at  298.15 [K]                            -78.51240557 [Eh]

  Enthalpy, H_trans = E_trans + k_B * T
    Electronic H            0.000 [kcal/mol]        0.000 [kJ/mol]       0.00000000 [Eh]
    Translational H         1.481 [kcal/mol]        6.197 [kJ/mol]       0.00236046 [Eh]
    Rotational H            0.889 [kcal/mol]        3.718 [kJ/mol]       0.00141628 [Eh]
    Vibrational H          32.380 [kcal/mol]      135.476 [kJ/mol]       0.05160019 [Eh]
  Correction H             34.750 [kcal/mol]      145.392 [kJ/mol]       0.05537693 [Eh]
  Total H, Enthalpy at  298.15 [K]                                     -78.51146138 [Eh]

  Gibbs free energy, G = H - T * S
    Electronic G            0.000 [kcal/mol]        0.000 [kJ/mol]       0.00000000 [Eh]
    Translational G        -9.230 [kcal/mol]      -38.620 [kJ/mol]      -0.01470955 [Eh]
    Rotational G           -3.848 [kcal/mol]      -16.100 [kJ/mol]      -0.00613218 [Eh]
    Vibrational G          32.226 [kcal/mol]      134.834 [kJ/mol]       0.05135573 [Eh]
  Correction G             19.148 [kcal/mol]       80.114 [kJ/mol]       0.03051400 [Eh]
  Total G, Free enthalpy at  298.15 [K]                                -78.53632431 [Eh]

    Psi4 stopped on: Tuesday, 27 April 2021 05:54PM
    Psi4 wall time for execution: 0:04:12.05

*** Psi4 exiting successfully. Buy a developer a beer!
