
    -----------------------------------------------------------------------
          Psi4: An Open-Source Ab Initio Electronic Structure Package
                               Psi4 1.3.2 release

                         Git: Rev {HEAD} ecbda83 


    R. M. Parrish, L. A. Burns, D. G. A. Smith, A. C. Simmonett,
    A. E. DePrince III, E. G. Hohenstein, U. Bozkaya, A. Yu. Sokolov,
    R. Di Remigio, R. M. Richard, J. F. Gonthier, A. M. James,
    H. R. McAlexander, A. Kumar, M. Saitow, X. Wang, B. P. Pritchard,
    P. Verma, H. F. Schaefer III, K. Patkowski, R. A. King, E. F. Valeev,
    F. A. Evangelista, J. M. Turney, T. D. Crawford, and C. D. Sherrill,
    J. Chem. Theory Comput. 13(7) pp 3185--3197 (2017).
    (doi: 10.1021/acs.jctc.7b00174)


                         Additional Contributions by
    P. Kraus, H. Kruse, M. H. Lechner, M. C. Schieber, R. A. Shaw,
    A. Alenaizan, R. Galvelis, Z. L. Glick, S. Lehtola, and J. P. Misiewicz

    -----------------------------------------------------------------------


    Psi4 started on: Wednesday, 28 April 2021 01:24PM

    Process ID: 3679
    Host:       bp1-compute00046.data.bp.acrc.priv
    PSIDATADIR: /work/zw18965/.conda/envs/p4env/share/psi4
    Memory:     500.0 MiB
    Threads:    24
    
  ==> Input File <==

--------------------------------------------------------------------------
memory 144 GB

molecule {
0 1
H 0.0000000000 0.0000000000 0.0000000000
C 0.0000000000 0.0000000000 1.0879000000
H 1.0256819563 0.0000000000 1.4505333333
H -0.5128409782 0.8882666304 1.4505333333
H -0.5128409782 -0.8882666304 1.4505333333
symmetry c2
}

set dynamic_level 1
set basis aug-cc-pV(D+d)Z
set full_hess_every 1
 
optimize("wB97X-V")
frequencies("wB97X-V")
--------------------------------------------------------------------------

  Memory set to 134.110 GiB by Python driver.
gradient() will perform gradient computation by finite difference of analytic energies.

         ----------------------------------------------------------
                                   FINDIF
                     R. A. King and Jonathon Misiewicz
         ---------------------------------------------------------

  Using finite-differences of energies to determine gradients.
    Generating geometries for use with 3-point formula.
    Displacement size will be 5.00e-03.
    Number of atoms is 5.
    Number of symmetric SALCs is 5.
    Translations projected? 1. Rotations projected? 1.
    Number of geometries (including reference) is 11.

  //>>>>>>>>>>>>>>>>>>>>>>>>>>>>>>>>>>>//
  //    Loading displacement 1 of 11   //
  //<<<<<<<<<<<<<<<<<<<<<<<<<<<<<<<<<<<//

*** tstart() called on bp1-compute00046.data.bp.acrc.priv
*** at Wed Apr 28 13:24:33 2021

   => Loading Basis Set <=

    Name: AUG-CC-PV(D+D)Z
    Role: ORBITAL
    Keyword: BASIS
    atoms 1, 3-5 entry H          line    56 file /work/zw18965/.conda/envs/p4env/share/psi4/basis/aug-cc-pv_dpd_z.gbs 
    atoms 2      entry C          line   198 file /work/zw18965/.conda/envs/p4env/share/psi4/basis/aug-cc-pv_dpd_z.gbs 


         ---------------------------------------------------------
                                   SCF
               by Justin Turney, Rob Parrish, Andy Simmonett
                          and Daniel G. A. Smith
                              RKS Reference
                       24 Threads, 137329 MiB Core
         ---------------------------------------------------------

  ==> Geometry <==

    Molecular point group: c2
    Full point group: Td

    Geometry (in Angstrom), charge = 0, multiplicity = 1:

       Center              X                  Y                   Z               Mass       
    ------------   -----------------  -----------------  -----------------  -----------------
         H            0.000000000007     0.888266630384    -0.628099357864     1.007825032230
         C           -0.000000000000     0.000000000000     0.000000000006    12.000000000000
         H            0.888266630391     0.000000000002     0.628099357827     1.007825032230
         H           -0.888266630391    -0.000000000002     0.628099357827     1.007825032230
         H           -0.000000000007    -0.888266630384    -0.628099357864     1.007825032230

  Running in c2 symmetry.

  Rotational constants: A =      5.29986  B =      5.29986  C =      5.29986 [cm^-1]
  Rotational constants: A = 158885.90516  B = 158885.90516  C = 158885.90516 [MHz]
  Nuclear repulsion =   13.461323909034332

  Charge       = 0
  Multiplicity = 1
  Electrons    = 10
  Nalpha       = 5
  Nbeta        = 5

  ==> Algorithm <==

  SCF Algorithm Type is DF.
  DIIS enabled.
  MOM disabled.
  Fractional occupation disabled.
  Guess Type is SAD.
  Energy threshold   = 1.00e-08
  Density threshold  = 1.00e-08
  Integral threshold = 0.00e+00

  ==> Primary Basis <==

  Basis Set: AUG-CC-PV(D+D)Z
    Blend: AUG-CC-PV(D+D)Z
    Number of shells: 29
    Number of basis function: 59
    Number of Cartesian functions: 61
    Spherical Harmonics?: true
    Max angular momentum: 2

  ==> DFT Potential <==

   => Composite Functional: WB97X-V <= 

    wB97X-V Hyb-GGA Exchange-Correlation Functional

    N. Mardirossian and M. Head-Gordon, Phys. Chem. Chem. Phys. 16, 9904 (2014)

    Deriv               =              1
    GGA                 =           TRUE
    Meta                =          FALSE

    Exchange Hybrid     =           TRUE
    MP2 Hybrid          =          FALSE

   => Exchange-Correlation Functionals <=

    1.0000   wB97X-V range-separated functional

   => Exact (HF) Exchange <=

    0.8330            HF,LR [omega = 0.3000]
    0.1670               HF 

   => VV10 Non-Local Parameters <=

    VV10 B              =     6.0000E+00
    VV10 C              =     1.0000E-02

   => Molecular Quadrature <=

    Radial Scheme          =       TREUTLER
    Pruning Scheme         =           FLAT
    Nuclear Scheme         =       TREUTLER

    BS radius alpha        =              1
    Pruning alpha          =              1
    Radial Points          =             75
    Spherical Points       =            302
    Total Points           =         113250
    Total Blocks           =            937
    Max Points             =            256
    Max Functions          =             59

   => Loading Basis Set <=

    Name: (AUG-CC-PV(D+D)Z AUX)
    Role: JKFIT
    Keyword: DF_BASIS_SCF
    atoms 1, 3-5 entry H          line    70 file /work/zw18965/.conda/envs/p4env/share/psi4/basis/aug-cc-pvdz-jkfit.gbs 
    atoms 2      entry C          line   154 file /work/zw18965/.conda/envs/p4env/share/psi4/basis/aug-cc-pvdz-jkfit.gbs 

  ==> Pre-Iterations <==

   -------------------------------------------------------
    Irrep   Nso     Nmo     Nalpha   Nbeta   Ndocc  Nsocc
   -------------------------------------------------------
     A         31      31       0       0       0       0
     B         28      28       0       0       0       0
   -------------------------------------------------------
    Total      59      59       5       5       5       0
   -------------------------------------------------------

  ==> Integral Setup <==

  ==> DiskDFJK: Density-Fitted J/K Matrices <==

    J tasked:                  Yes
    K tasked:                  Yes
    wK tasked:                 Yes
    Omega:               3.000E-01
    OpenMP threads:             24
    Integrals threads:          24
    Memory [MiB]:           102800
    Algorithm:                Core
    Integral Cache:           NONE
    Schwarz Cutoff:          1E-12
    Fitting Condition:       1E-10

   => Auxiliary Basis Set <=

  Basis Set: (AUG-CC-PV(D+D)Z AUX)
    Blend: AUG-CC-PVDZ-JKFIT
    Number of shells: 76
    Number of basis function: 214
    Number of Cartesian functions: 241
    Spherical Harmonics?: true
    Max angular momentum: 3

  Cached 100.0% of DFT collocation blocks in 0.192 [GiB].

  Minimum eigenvalue in the overlap matrix is 7.9532100882E-04.
  Using Symmetric Orthogonalization.

  SCF Guess: Superposition of Atomic Densities via on-the-fly atomic UHF.

  ==> Iterations <==

                           Total Energy        Delta E     RMS |[F,P]|

   @DF-RKS iter SAD:   -39.94723638143032   -3.99472e+01   0.00000e+00 
   @DF-RKS iter   1:   -40.37665830099084   -4.29422e-01   1.17703e-02 DIIS
   @DF-RKS iter   2:   -40.44822890728459   -7.15706e-02   7.61014e-03 DIIS
   @DF-RKS iter   3:   -40.50013169297167   -5.19028e-02   3.33147e-04 DIIS
   @DF-RKS iter   4:   -40.50039865821348   -2.66965e-04   6.02315e-05 DIIS
   @DF-RKS iter   5:   -40.50040601922601   -7.36101e-06   5.99539e-06 DIIS
   @DF-RKS iter   6:   -40.50040612255578   -1.03330e-07   6.14396e-07 DIIS
   @DF-RKS iter   7:   -40.50040612332691   -7.71131e-10   3.98463e-08 DIIS
   @DF-RKS iter   8:   -40.50040612332985   -2.94165e-12   2.14376e-09 DIIS
  Energy and wave function converged.


  ==> Post-Iterations <==

    Orbital Energies [Eh]
    ---------------------

    Doubly Occupied:                                                      

       1A    -10.263173     2A     -0.824518     3A     -0.498335  
       1B     -0.498335     2B     -0.498335  

    Virtual:                                                              

       4A      0.037477     3B      0.066363     4B      0.066363  
       5A      0.066364     6A      0.144155     5B      0.144155  
       6B      0.144155     7A      0.163347     8A      0.261353  
       7B      0.261353     8B      0.261353     9A      0.285039  
      10A      0.285040    11A      0.385127     9B      0.413443  
      10B      0.413443    12A      0.413443    11B      0.497460  
      12B      0.497460    13A      0.497460    14A      0.533808  
      15A      0.565249    13B      0.565249    14B      0.565249  
      16A      0.646509    15B      0.646509    16B      0.646509  
      17A      0.683444    18A      0.683445    19A      0.875584  
      17B      0.875585    18B      0.875585    20A      0.995088  
      21A      1.231210    19B      1.231211    20B      1.231211  
      22A      1.608292    23A      1.608292    21B      1.740212  
      22B      1.740212    24A      1.740212    25A      1.861653  
      26A      2.040846    23B      2.040847    24B      2.040847  
      27A      2.118543    25B      2.118544    26B      2.118544  
      28A      2.458893    29A      2.458895    30A      2.631366  
      31A      2.711832    27B      2.711832    28B      2.711832  

    Final Occupation by Irrep:
              A     B 
    DOCC [     3,    2 ]

  @DF-RKS Final Energy:   -40.50040612332985

   => Energetics <=

    Nuclear Repulsion Energy =             13.4613239090343324
    One-Electron Energy =                 -79.8165295887102531
    Two-Electron Energy =                  30.3547346428347105
    DFT Exchange-Correlation Energy =      -4.5413199327579825
    Empirical Dispersion Energy =           0.0000000000000000
    VV10 Nonlocal Energy =                  0.0413848462693365
    Total Energy =                        -40.5004061233298529

Computation Completed


Properties will be evaluated at   0.000000,   0.000000,   0.000000 [a0]

Properties computed using the SCF density matrix

  Nuclear Dipole Moment: [e a0]
     X:     0.0000      Y:     0.0000      Z:    -0.0000

  Electronic Dipole Moment: [e a0]
     X:     0.0000      Y:     0.0000      Z:     0.0000

  Dipole Moment: [e a0]
     X:     0.0000      Y:     0.0000      Z:     0.0000     Total:     0.0000

  Dipole Moment: [D]
     X:     0.0000      Y:     0.0000      Z:     0.0000     Total:     0.0000


*** tstop() called on bp1-compute00046.data.bp.acrc.priv at Wed Apr 28 13:24:37 2021
Module time:
	user time   =      79.37 seconds =       1.32 minutes
	system time =       3.47 seconds =       0.06 minutes
	total time  =          4 seconds =       0.07 minutes
Total time:
	user time   =      79.37 seconds =       1.32 minutes
	system time =       3.47 seconds =       0.06 minutes
	total time  =          4 seconds =       0.07 minutes

  //>>>>>>>>>>>>>>>>>>>>>>>>>>>>>>>>>>>//
  //    Loading displacement 2 of 11   //
  //<<<<<<<<<<<<<<<<<<<<<<<<<<<<<<<<<<<//

*** tstart() called on bp1-compute00046.data.bp.acrc.priv
*** at Wed Apr 28 13:24:37 2021

   => Loading Basis Set <=

    Name: AUG-CC-PV(D+D)Z
    Role: ORBITAL
    Keyword: BASIS
    atoms 1, 3-5 entry H          line    56 file /work/zw18965/.conda/envs/p4env/share/psi4/basis/aug-cc-pv_dpd_z.gbs 
    atoms 2      entry C          line   198 file /work/zw18965/.conda/envs/p4env/share/psi4/basis/aug-cc-pv_dpd_z.gbs 


         ---------------------------------------------------------
                                   SCF
               by Justin Turney, Rob Parrish, Andy Simmonett
                          and Daniel G. A. Smith
                              RKS Reference
                       24 Threads, 137329 MiB Core
         ---------------------------------------------------------

  ==> Geometry <==

    Molecular point group: c2
    Full point group: C2

    Geometry (in Angstrom), charge = 0, multiplicity = 1:

       Center              X                  Y                   Z               Mass       
    ------------   -----------------  -----------------  -----------------  -----------------
         H           -0.001317797164     0.888266630384    -0.628099357864     1.007825032230
         C           -0.000000000000    -0.000000000000     0.000000000006    12.000000000000
         H            0.888266630391    -0.001317797169     0.628099357827     1.007825032230
         H           -0.888266630391     0.001317797169     0.628099357827     1.007825032230
         H            0.001317797164    -0.888266630384    -0.628099357864     1.007825032230

  Running in c2 symmetry.

  Rotational constants: A =      5.30773  B =      5.29985  C =      5.29201 [cm^-1]
  Rotational constants: A = 159121.79684  B = 158885.55546  C = 158650.36318 [MHz]
  Nuclear repulsion =   13.461315016536261

  Charge       = 0
  Multiplicity = 1
  Electrons    = 10
  Nalpha       = 5
  Nbeta        = 5

  ==> Algorithm <==

  SCF Algorithm Type is DF.
  DIIS enabled.
  MOM disabled.
  Fractional occupation disabled.
  Guess Type is SAD.
  Energy threshold   = 1.00e-08
  Density threshold  = 1.00e-08
  Integral threshold = 0.00e+00

  ==> Primary Basis <==

  Basis Set: AUG-CC-PV(D+D)Z
    Blend: AUG-CC-PV(D+D)Z
    Number of shells: 29
    Number of basis function: 59
    Number of Cartesian functions: 61
    Spherical Harmonics?: true
    Max angular momentum: 2

  ==> DFT Potential <==

   => Composite Functional: WB97X-V <= 

    wB97X-V Hyb-GGA Exchange-Correlation Functional

    N. Mardirossian and M. Head-Gordon, Phys. Chem. Chem. Phys. 16, 9904 (2014)

    Deriv               =              1
    GGA                 =           TRUE
    Meta                =          FALSE

    Exchange Hybrid     =           TRUE
    MP2 Hybrid          =          FALSE

   => Exchange-Correlation Functionals <=

    1.0000   wB97X-V range-separated functional

   => Exact (HF) Exchange <=

    0.8330            HF,LR [omega = 0.3000]
    0.1670               HF 

   => VV10 Non-Local Parameters <=

    VV10 B              =     6.0000E+00
    VV10 C              =     1.0000E-02

   => Molecular Quadrature <=

    Radial Scheme          =       TREUTLER
    Pruning Scheme         =           FLAT
    Nuclear Scheme         =       TREUTLER

    BS radius alpha        =              1
    Pruning alpha          =              1
    Radial Points          =             75
    Spherical Points       =            302
    Total Points           =         113250
    Total Blocks           =            923
    Max Points             =            256
    Max Functions          =             59

   => Loading Basis Set <=

    Name: (AUG-CC-PV(D+D)Z AUX)
    Role: JKFIT
    Keyword: DF_BASIS_SCF
    atoms 1, 3-5 entry H          line    70 file /work/zw18965/.conda/envs/p4env/share/psi4/basis/aug-cc-pvdz-jkfit.gbs 
    atoms 2      entry C          line   154 file /work/zw18965/.conda/envs/p4env/share/psi4/basis/aug-cc-pvdz-jkfit.gbs 

  ==> Pre-Iterations <==

   -------------------------------------------------------
    Irrep   Nso     Nmo     Nalpha   Nbeta   Ndocc  Nsocc
   -------------------------------------------------------
     A         31      31       0       0       0       0
     B         28      28       0       0       0       0
   -------------------------------------------------------
    Total      59      59       5       5       5       0
   -------------------------------------------------------

  ==> Integral Setup <==

  ==> DiskDFJK: Density-Fitted J/K Matrices <==

    J tasked:                  Yes
    K tasked:                  Yes
    wK tasked:                 Yes
    Omega:               3.000E-01
    OpenMP threads:             24
    Integrals threads:          24
    Memory [MiB]:           102800
    Algorithm:                Core
    Integral Cache:           NONE
    Schwarz Cutoff:          1E-12
    Fitting Condition:       1E-10

   => Auxiliary Basis Set <=

  Basis Set: (AUG-CC-PV(D+D)Z AUX)
    Blend: AUG-CC-PVDZ-JKFIT
    Number of shells: 76
    Number of basis function: 214
    Number of Cartesian functions: 241
    Spherical Harmonics?: true
    Max angular momentum: 3

  Cached 100.0% of DFT collocation blocks in 0.192 [GiB].

  Minimum eigenvalue in the overlap matrix is 7.9465502527E-04.
  Using Symmetric Orthogonalization.

  SCF Guess: Superposition of Atomic Densities via on-the-fly atomic UHF.

  ==> Iterations <==

                           Total Energy        Delta E     RMS |[F,P]|

   @DF-RKS iter SAD:   -39.94724320423301   -3.99472e+01   0.00000e+00 
   @DF-RKS iter   1:   -40.37665983023660   -4.29417e-01   1.17703e-02 DIIS
   @DF-RKS iter   2:   -40.44823010879458   -7.15703e-02   7.61009e-03 DIIS
   @DF-RKS iter   3:   -40.50013222768123   -5.19021e-02   3.33149e-04 DIIS
   @DF-RKS iter   4:   -40.50039920205824   -2.66974e-04   6.02342e-05 DIIS
   @DF-RKS iter   5:   -40.50040656408013   -7.36202e-06   5.99621e-06 DIIS
   @DF-RKS iter   6:   -40.50040666743951   -1.03359e-07   6.14435e-07 DIIS
   @DF-RKS iter   7:   -40.50040666821066   -7.71152e-10   3.98514e-08 DIIS
   @DF-RKS iter   8:   -40.50040666821346   -2.80664e-12   2.14704e-09 DIIS
  Energy and wave function converged.


  ==> Post-Iterations <==

    Orbital Energies [Eh]
    ---------------------

    Doubly Occupied:                                                      

       1A    -10.263175     2A     -0.824519     1B     -0.498736  
       3A     -0.498335     2B     -0.497935  

    Virtual:                                                              

       4A      0.037477     3B      0.066319     5A      0.066363  
       4B      0.066408     5B      0.144054     6A      0.144158  
       6B      0.144262     7A      0.163347     7B      0.261202  
       8A      0.261352     8B      0.261502     9A      0.284868  
      10A      0.285208    11A      0.385130     9B      0.413295  
      12A      0.413442    10B      0.413588    11B      0.497402  
      13A      0.497459    12B      0.497518    14A      0.533804  
      13B      0.565222    15A      0.565247    14B      0.565269  
      15B      0.646159    16A      0.646509    16B      0.646853  
      17A      0.683317    18A      0.683562    17B      0.875000  
      19A      0.875581    18B      0.876168    20A      0.995091  
      19B      1.230778    21A      1.231209    20B      1.231641  
      22A      1.607742    23A      1.608836    21B      1.739895  
      24A      1.740205    22B      1.740526    25A      1.861648  
      23B      2.040560    26A      2.040851    24B      2.041130  
      25B      2.117987    27A      2.118539    26B      2.119084  
      28A      2.457446    29A      2.460329    30A      2.631369  
      27B      2.711024    31A      2.711829    28B      2.712638  

    Final Occupation by Irrep:
              A     B 
    DOCC [     3,    2 ]

  @DF-RKS Final Energy:   -40.50040666821346

   => Energetics <=

    Nuclear Repulsion Energy =             13.4613150165362612
    One-Electron Energy =                 -79.8165067687148024
    Two-Electron Energy =                  30.3547191367275246
    DFT Exchange-Correlation Energy =      -4.5413191500285066
    Empirical Dispersion Energy =           0.0000000000000000
    VV10 Nonlocal Energy =                  0.0413850972660542
    Total Energy =                        -40.5004066682134720

Computation Completed


Properties will be evaluated at   0.000000,   0.000000,   0.000000 [a0]

Properties computed using the SCF density matrix

  Nuclear Dipole Moment: [e a0]
     X:     0.0000      Y:     0.0000      Z:    -0.0000

  Electronic Dipole Moment: [e a0]
     X:     0.0000      Y:     0.0000      Z:     0.0000

  Dipole Moment: [e a0]
     X:     0.0000      Y:     0.0000      Z:     0.0000     Total:     0.0000

  Dipole Moment: [D]
     X:     0.0000      Y:     0.0000      Z:     0.0000     Total:     0.0000


*** tstop() called on bp1-compute00046.data.bp.acrc.priv at Wed Apr 28 13:24:40 2021
Module time:
	user time   =      78.74 seconds =       1.31 minutes
	system time =       2.38 seconds =       0.04 minutes
	total time  =          3 seconds =       0.05 minutes
Total time:
	user time   =     158.29 seconds =       2.64 minutes
	system time =       5.85 seconds =       0.10 minutes
	total time  =          7 seconds =       0.12 minutes

  //>>>>>>>>>>>>>>>>>>>>>>>>>>>>>>>>>>>//
  //    Loading displacement 3 of 11   //
  //<<<<<<<<<<<<<<<<<<<<<<<<<<<<<<<<<<<//

*** tstart() called on bp1-compute00046.data.bp.acrc.priv
*** at Wed Apr 28 13:24:40 2021

   => Loading Basis Set <=

    Name: AUG-CC-PV(D+D)Z
    Role: ORBITAL
    Keyword: BASIS
    atoms 1, 3-5 entry H          line    56 file /work/zw18965/.conda/envs/p4env/share/psi4/basis/aug-cc-pv_dpd_z.gbs 
    atoms 2      entry C          line   198 file /work/zw18965/.conda/envs/p4env/share/psi4/basis/aug-cc-pv_dpd_z.gbs 


         ---------------------------------------------------------
                                   SCF
               by Justin Turney, Rob Parrish, Andy Simmonett
                          and Daniel G. A. Smith
                              RKS Reference
                       24 Threads, 137329 MiB Core
         ---------------------------------------------------------

  ==> Geometry <==

    Molecular point group: c2
    Full point group: C2

    Geometry (in Angstrom), charge = 0, multiplicity = 1:

       Center              X                  Y                   Z               Mass       
    ------------   -----------------  -----------------  -----------------  -----------------
         H            0.001317797178     0.888266630384    -0.628099357864     1.007825032230
         C           -0.000000000000     0.000000000000     0.000000000006    12.000000000000
         H            0.888266630391     0.001317797173     0.628099357827     1.007825032230
         H           -0.888266630391    -0.001317797173     0.628099357827     1.007825032230
         H           -0.001317797178    -0.888266630384    -0.628099357864     1.007825032230

  Running in c2 symmetry.

  Rotational constants: A =      5.30773  B =      5.29985  C =      5.29201 [cm^-1]
  Rotational constants: A = 159121.79684  B = 158885.55546  C = 158650.36317 [MHz]
  Nuclear repulsion =   13.461315016536149

  Charge       = 0
  Multiplicity = 1
  Electrons    = 10
  Nalpha       = 5
  Nbeta        = 5

  ==> Algorithm <==

  SCF Algorithm Type is DF.
  DIIS enabled.
  MOM disabled.
  Fractional occupation disabled.
  Guess Type is SAD.
  Energy threshold   = 1.00e-08
  Density threshold  = 1.00e-08
  Integral threshold = 0.00e+00

  ==> Primary Basis <==

  Basis Set: AUG-CC-PV(D+D)Z
    Blend: AUG-CC-PV(D+D)Z
    Number of shells: 29
    Number of basis function: 59
    Number of Cartesian functions: 61
    Spherical Harmonics?: true
    Max angular momentum: 2

  ==> DFT Potential <==

   => Composite Functional: WB97X-V <= 

    wB97X-V Hyb-GGA Exchange-Correlation Functional

    N. Mardirossian and M. Head-Gordon, Phys. Chem. Chem. Phys. 16, 9904 (2014)

    Deriv               =              1
    GGA                 =           TRUE
    Meta                =          FALSE

    Exchange Hybrid     =           TRUE
    MP2 Hybrid          =          FALSE

   => Exchange-Correlation Functionals <=

    1.0000   wB97X-V range-separated functional

   => Exact (HF) Exchange <=

    0.8330            HF,LR [omega = 0.3000]
    0.1670               HF 

   => VV10 Non-Local Parameters <=

    VV10 B              =     6.0000E+00
    VV10 C              =     1.0000E-02

   => Molecular Quadrature <=

    Radial Scheme          =       TREUTLER
    Pruning Scheme         =           FLAT
    Nuclear Scheme         =       TREUTLER

    BS radius alpha        =              1
    Pruning alpha          =              1
    Radial Points          =             75
    Spherical Points       =            302
    Total Points           =         113250
    Total Blocks           =            923
    Max Points             =            256
    Max Functions          =             59

   => Loading Basis Set <=

    Name: (AUG-CC-PV(D+D)Z AUX)
    Role: JKFIT
    Keyword: DF_BASIS_SCF
    atoms 1, 3-5 entry H          line    70 file /work/zw18965/.conda/envs/p4env/share/psi4/basis/aug-cc-pvdz-jkfit.gbs 
    atoms 2      entry C          line   154 file /work/zw18965/.conda/envs/p4env/share/psi4/basis/aug-cc-pvdz-jkfit.gbs 

  ==> Pre-Iterations <==

   -------------------------------------------------------
    Irrep   Nso     Nmo     Nalpha   Nbeta   Ndocc  Nsocc
   -------------------------------------------------------
     A         31      31       0       0       0       0
     B         28      28       0       0       0       0
   -------------------------------------------------------
    Total      59      59       5       5       5       0
   -------------------------------------------------------

  ==> Integral Setup <==

  ==> DiskDFJK: Density-Fitted J/K Matrices <==

    J tasked:                  Yes
    K tasked:                  Yes
    wK tasked:                 Yes
    Omega:               3.000E-01
    OpenMP threads:             24
    Integrals threads:          24
    Memory [MiB]:           102800
    Algorithm:                Core
    Integral Cache:           NONE
    Schwarz Cutoff:          1E-12
    Fitting Condition:       1E-10

   => Auxiliary Basis Set <=

  Basis Set: (AUG-CC-PV(D+D)Z AUX)
    Blend: AUG-CC-PVDZ-JKFIT
    Number of shells: 76
    Number of basis function: 214
    Number of Cartesian functions: 241
    Spherical Harmonics?: true
    Max angular momentum: 3

  Cached 100.0% of DFT collocation blocks in 0.192 [GiB].

  Minimum eigenvalue in the overlap matrix is 7.9465502527E-04.
  Using Symmetric Orthogonalization.

  SCF Guess: Superposition of Atomic Densities via on-the-fly atomic UHF.

  ==> Iterations <==

                           Total Energy        Delta E     RMS |[F,P]|

   @DF-RKS iter SAD:   -39.94724320463708   -3.99472e+01   0.00000e+00 
   @DF-RKS iter   1:   -40.37665983064121   -4.29417e-01   1.17703e-02 DIIS
   @DF-RKS iter   2:   -40.44823010916279   -7.15703e-02   7.61009e-03 DIIS
   @DF-RKS iter   3:   -40.50013222801950   -5.19021e-02   3.33149e-04 DIIS
   @DF-RKS iter   4:   -40.50039920239648   -2.66974e-04   6.02342e-05 DIIS
   @DF-RKS iter   5:   -40.50040656441844   -7.36202e-06   5.99621e-06 DIIS
   @DF-RKS iter   6:   -40.50040666777772   -1.03359e-07   6.14435e-07 DIIS
   @DF-RKS iter   7:   -40.50040666854895   -7.71230e-10   3.98514e-08 DIIS
   @DF-RKS iter   8:   -40.50040666855176   -2.81375e-12   2.14705e-09 DIIS
  Energy and wave function converged.


  ==> Post-Iterations <==

    Orbital Energies [Eh]
    ---------------------

    Doubly Occupied:                                                      

       1A    -10.263175     2A     -0.824519     1B     -0.498736  
       3A     -0.498335     2B     -0.497935  

    Virtual:                                                              

       4A      0.037477     3B      0.066319     5A      0.066363  
       4B      0.066408     5B      0.144054     6A      0.144158  
       6B      0.144262     7A      0.163347     7B      0.261202  
       8A      0.261352     8B      0.261502     9A      0.284868  
      10A      0.285208    11A      0.385130     9B      0.413295  
      12A      0.413442    10B      0.413588    11B      0.497402  
      13A      0.497459    12B      0.497518    14A      0.533804  
      13B      0.565222    15A      0.565247    14B      0.565269  
      15B      0.646159    16A      0.646509    16B      0.646853  
      17A      0.683317    18A      0.683562    17B      0.875000  
      19A      0.875581    18B      0.876168    20A      0.995091  
      19B      1.230778    21A      1.231209    20B      1.231641  
      22A      1.607742    23A      1.608836    21B      1.739895  
      24A      1.740205    22B      1.740526    25A      1.861648  
      23B      2.040560    26A      2.040851    24B      2.041130  
      25B      2.117987    27A      2.118539    26B      2.119084  
      28A      2.457446    29A      2.460329    30A      2.631369  
      27B      2.711024    31A      2.711829    28B      2.712638  

    Final Occupation by Irrep:
              A     B 
    DOCC [     3,    2 ]

  @DF-RKS Final Energy:   -40.50040666855176

   => Energetics <=

    Nuclear Repulsion Energy =             13.4613150165361493
    One-Electron Energy =                 -79.8165067686038583
    Two-Electron Energy =                  30.3547191362684750
    DFT Exchange-Correlation Energy =      -4.5413191500186194
    Empirical Dispersion Energy =           0.0000000000000000
    VV10 Nonlocal Energy =                  0.0413850972661009
    Total Energy =                        -40.5004066685517614

Computation Completed


Properties will be evaluated at   0.000000,   0.000000,   0.000000 [a0]

Properties computed using the SCF density matrix

  Nuclear Dipole Moment: [e a0]
     X:    -0.0000      Y:     0.0000      Z:    -0.0000

  Electronic Dipole Moment: [e a0]
     X:     0.0000      Y:     0.0000      Z:    -0.0000

  Dipole Moment: [e a0]
     X:    -0.0000      Y:     0.0000      Z:    -0.0000     Total:     0.0000

  Dipole Moment: [D]
     X:    -0.0000      Y:     0.0000      Z:    -0.0000     Total:     0.0000


*** tstop() called on bp1-compute00046.data.bp.acrc.priv at Wed Apr 28 13:24:44 2021
Module time:
	user time   =      78.11 seconds =       1.30 minutes
	system time =       2.11 seconds =       0.04 minutes
	total time  =          4 seconds =       0.07 minutes
Total time:
	user time   =     236.55 seconds =       3.94 minutes
	system time =       7.96 seconds =       0.13 minutes
	total time  =         11 seconds =       0.18 minutes

  //>>>>>>>>>>>>>>>>>>>>>>>>>>>>>>>>>>>//
  //    Loading displacement 4 of 11   //
  //<<<<<<<<<<<<<<<<<<<<<<<<<<<<<<<<<<<//

*** tstart() called on bp1-compute00046.data.bp.acrc.priv
*** at Wed Apr 28 13:24:44 2021

   => Loading Basis Set <=

    Name: AUG-CC-PV(D+D)Z
    Role: ORBITAL
    Keyword: BASIS
    atoms 1, 3-5 entry H          line    56 file /work/zw18965/.conda/envs/p4env/share/psi4/basis/aug-cc-pv_dpd_z.gbs 
    atoms 2      entry C          line   198 file /work/zw18965/.conda/envs/p4env/share/psi4/basis/aug-cc-pv_dpd_z.gbs 


         ---------------------------------------------------------
                                   SCF
               by Justin Turney, Rob Parrish, Andy Simmonett
                          and Daniel G. A. Smith
                              RKS Reference
                       24 Threads, 137329 MiB Core
         ---------------------------------------------------------

  ==> Geometry <==

    Molecular point group: c2
    Full point group: D1

    Geometry (in Angstrom), charge = 0, multiplicity = 1:

       Center              X                  Y                   Z               Mass       
    ------------   -----------------  -----------------  -----------------  -----------------
         H            0.000000000007     0.886402983753    -0.628099357864     1.007825032230
         C            0.000000000000     0.000000000000     0.000000000006    12.000000000000
         H            0.888266630391     0.000000000002     0.628099357827     1.007825032230
         H           -0.888266630391    -0.000000000002     0.628099357827     1.007825032230
         H           -0.000000000007    -0.886402983753    -0.628099357864     1.007825032230

  Running in c2 symmetry.

  Rotational constants: A =      5.31099  B =      5.31099  C =      5.29986 [cm^-1]
  Rotational constants: A = 159219.60880  B = 159219.60880  C = 158885.90516 [MHz]
  Nuclear repulsion =   13.470747899164557

  Charge       = 0
  Multiplicity = 1
  Electrons    = 10
  Nalpha       = 5
  Nbeta        = 5

  ==> Algorithm <==

  SCF Algorithm Type is DF.
  DIIS enabled.
  MOM disabled.
  Fractional occupation disabled.
  Guess Type is SAD.
  Energy threshold   = 1.00e-08
  Density threshold  = 1.00e-08
  Integral threshold = 0.00e+00

  ==> Primary Basis <==

  Basis Set: AUG-CC-PV(D+D)Z
    Blend: AUG-CC-PV(D+D)Z
    Number of shells: 29
    Number of basis function: 59
    Number of Cartesian functions: 61
    Spherical Harmonics?: true
    Max angular momentum: 2

  ==> DFT Potential <==

   => Composite Functional: WB97X-V <= 

    wB97X-V Hyb-GGA Exchange-Correlation Functional

    N. Mardirossian and M. Head-Gordon, Phys. Chem. Chem. Phys. 16, 9904 (2014)

    Deriv               =              1
    GGA                 =           TRUE
    Meta                =          FALSE

    Exchange Hybrid     =           TRUE
    MP2 Hybrid          =          FALSE

   => Exchange-Correlation Functionals <=

    1.0000   wB97X-V range-separated functional

   => Exact (HF) Exchange <=

    0.8330            HF,LR [omega = 0.3000]
    0.1670               HF 

   => VV10 Non-Local Parameters <=

    VV10 B              =     6.0000E+00
    VV10 C              =     1.0000E-02

   => Molecular Quadrature <=

    Radial Scheme          =       TREUTLER
    Pruning Scheme         =           FLAT
    Nuclear Scheme         =       TREUTLER

    BS radius alpha        =              1
    Pruning alpha          =              1
    Radial Points          =             75
    Spherical Points       =            302
    Total Points           =         113250
    Total Blocks           =            915
    Max Points             =            256
    Max Functions          =             59

   => Loading Basis Set <=

    Name: (AUG-CC-PV(D+D)Z AUX)
    Role: JKFIT
    Keyword: DF_BASIS_SCF
    atoms 1, 3-5 entry H          line    70 file /work/zw18965/.conda/envs/p4env/share/psi4/basis/aug-cc-pvdz-jkfit.gbs 
    atoms 2      entry C          line   154 file /work/zw18965/.conda/envs/p4env/share/psi4/basis/aug-cc-pvdz-jkfit.gbs 

  ==> Pre-Iterations <==

   -------------------------------------------------------
    Irrep   Nso     Nmo     Nalpha   Nbeta   Ndocc  Nsocc
   -------------------------------------------------------
     A         31      31       0       0       0       0
     B         28      28       0       0       0       0
   -------------------------------------------------------
    Total      59      59       5       5       5       0
   -------------------------------------------------------

  ==> Integral Setup <==

  ==> DiskDFJK: Density-Fitted J/K Matrices <==

    J tasked:                  Yes
    K tasked:                  Yes
    wK tasked:                 Yes
    Omega:               3.000E-01
    OpenMP threads:             24
    Integrals threads:          24
    Memory [MiB]:           102800
    Algorithm:                Core
    Integral Cache:           NONE
    Schwarz Cutoff:          1E-12
    Fitting Condition:       1E-10

   => Auxiliary Basis Set <=

  Basis Set: (AUG-CC-PV(D+D)Z AUX)
    Blend: AUG-CC-PVDZ-JKFIT
    Number of shells: 76
    Number of basis function: 214
    Number of Cartesian functions: 241
    Spherical Harmonics?: true
    Max angular momentum: 3

  Cached 100.0% of DFT collocation blocks in 0.192 [GiB].

  Minimum eigenvalue in the overlap matrix is 7.9130655313E-04.
  Using Symmetric Orthogonalization.

  SCF Guess: Superposition of Atomic Densities via on-the-fly atomic UHF.

  ==> Iterations <==

                           Total Energy        Delta E     RMS |[F,P]|

   @DF-RKS iter SAD:   -39.94814769975241   -3.99481e+01   0.00000e+00 
   @DF-RKS iter   1:   -40.37646727373837   -4.28320e-01   1.17808e-02 DIIS
   @DF-RKS iter   2:   -40.44819800723165   -7.17307e-02   7.61125e-03 DIIS
   @DF-RKS iter   3:   -40.50009147380784   -5.18935e-02   3.33059e-04 DIIS
   @DF-RKS iter   4:   -40.50035805473604   -2.66581e-04   6.01938e-05 DIIS
   @DF-RKS iter   5:   -40.50036540576951   -7.35103e-06   5.99279e-06 DIIS
   @DF-RKS iter   6:   -40.50036550900891   -1.03239e-07   6.15383e-07 DIIS
   @DF-RKS iter   7:   -40.50036550978101   -7.72097e-10   4.24208e-08 DIIS
   @DF-RKS iter   8:   -40.50036550978411   -3.10507e-12   5.25881e-09 DIIS
  Energy and wave function converged.


  ==> Post-Iterations <==

    Orbital Energies [Eh]
    ---------------------

    Doubly Occupied:                                                      

       1A    -10.262845     2A     -0.824755     3A     -0.498662  
       1B     -0.498453     2B     -0.498301  

    Virtual:                                                              

       4A      0.037494     5A      0.066339     3B      0.066368  
       4B      0.066376     5B      0.144147     6B      0.144159  
       6A      0.144225     7A      0.163384     7B      0.261327  
       8A      0.261601     8B      0.261667     9A      0.285017  
      10A      0.285154    11A      0.385410     9B      0.413348  
      10B      0.413482    12A      0.413519    11B      0.497512  
      13A      0.497566    12B      0.497704    14A      0.533874  
      13B      0.565357    15A      0.565372    14B      0.565418  
      15B      0.646419    16B      0.646527    16A      0.646721  
      17A      0.683448    18A      0.683550    19A      0.875654  
      17B      0.875980    18B      0.876160    20A      0.995839  
      19B      1.230636    21A      1.231251    20B      1.231258  
      22A      1.608141    23A      1.608583    21B      1.740357  
      24A      1.740483    22B      1.741056    25A      1.861594  
      23B      2.040633    26A      2.042116    24B      2.043203  
      25B      2.118672    27A      2.118884    26B      2.119897  
      28A      2.459526    29A      2.460700    30A      2.633439  
      27B      2.712253    31A      2.713011    28B      2.714845  

    Final Occupation by Irrep:
              A     B 
    DOCC [     3,    2 ]

  @DF-RKS Final Energy:   -40.50036550978411

   => Energetics <=

    Nuclear Repulsion Energy =             13.4707478991645573
    One-Electron Energy =                 -79.8341117075511875
    Two-Electron Energy =                  30.3637784149536998
    DFT Exchange-Correlation Energy =      -4.5421660744413419
    Empirical Dispersion Energy =           0.0000000000000000
    VV10 Nonlocal Energy =                  0.0413859580901561
    Total Energy =                        -40.5003655097841104

Computation Completed


Properties will be evaluated at   0.000000,   0.000000,   0.000000 [a0]

Properties computed using the SCF density matrix

  Nuclear Dipole Moment: [e a0]
     X:     0.0000      Y:     0.0000      Z:    -0.0000

  Electronic Dipole Moment: [e a0]
     X:     0.0000      Y:     0.0000      Z:    -0.0007

  Dipole Moment: [e a0]
     X:     0.0000      Y:     0.0000      Z:    -0.0007     Total:     0.0007

  Dipole Moment: [D]
     X:     0.0000      Y:     0.0000      Z:    -0.0017     Total:     0.0017


*** tstop() called on bp1-compute00046.data.bp.acrc.priv at Wed Apr 28 13:24:47 2021
Module time:
	user time   =      78.97 seconds =       1.32 minutes
	system time =       2.12 seconds =       0.04 minutes
	total time  =          3 seconds =       0.05 minutes
Total time:
	user time   =     315.66 seconds =       5.26 minutes
	system time =      10.08 seconds =       0.17 minutes
	total time  =         14 seconds =       0.23 minutes

  //>>>>>>>>>>>>>>>>>>>>>>>>>>>>>>>>>>>//
  //    Loading displacement 5 of 11   //
  //<<<<<<<<<<<<<<<<<<<<<<<<<<<<<<<<<<<//

*** tstart() called on bp1-compute00046.data.bp.acrc.priv
*** at Wed Apr 28 13:24:47 2021

   => Loading Basis Set <=

    Name: AUG-CC-PV(D+D)Z
    Role: ORBITAL
    Keyword: BASIS
    atoms 1, 3-5 entry H          line    56 file /work/zw18965/.conda/envs/p4env/share/psi4/basis/aug-cc-pv_dpd_z.gbs 
    atoms 2      entry C          line   198 file /work/zw18965/.conda/envs/p4env/share/psi4/basis/aug-cc-pv_dpd_z.gbs 


         ---------------------------------------------------------
                                   SCF
               by Justin Turney, Rob Parrish, Andy Simmonett
                          and Daniel G. A. Smith
                              RKS Reference
                       24 Threads, 137329 MiB Core
         ---------------------------------------------------------

  ==> Geometry <==

    Molecular point group: c2
    Full point group: D1

    Geometry (in Angstrom), charge = 0, multiplicity = 1:

       Center              X                  Y                   Z               Mass       
    ------------   -----------------  -----------------  -----------------  -----------------
         H            0.000000000007     0.890130277016    -0.628099357864     1.007825032230
         C           -0.000000000000     0.000000000000     0.000000000006    12.000000000000
         H            0.888266630391     0.000000000002     0.628099357827     1.007825032230
         H           -0.888266630391    -0.000000000002     0.628099357827     1.007825032230
         H           -0.000000000007    -0.890130277016    -0.628099357864     1.007825032230

  Running in c2 symmetry.

  Rotational constants: A =      5.29986  B =      5.28876  C =      5.28876 [cm^-1]
  Rotational constants: A = 158885.90516  B = 158552.90092  C = 158552.90092 [MHz]
  Nuclear repulsion =   13.451919342910072

  Charge       = 0
  Multiplicity = 1
  Electrons    = 10
  Nalpha       = 5
  Nbeta        = 5

  ==> Algorithm <==

  SCF Algorithm Type is DF.
  DIIS enabled.
  MOM disabled.
  Fractional occupation disabled.
  Guess Type is SAD.
  Energy threshold   = 1.00e-08
  Density threshold  = 1.00e-08
  Integral threshold = 0.00e+00

  ==> Primary Basis <==

  Basis Set: AUG-CC-PV(D+D)Z
    Blend: AUG-CC-PV(D+D)Z
    Number of shells: 29
    Number of basis function: 59
    Number of Cartesian functions: 61
    Spherical Harmonics?: true
    Max angular momentum: 2

  ==> DFT Potential <==

   => Composite Functional: WB97X-V <= 

    wB97X-V Hyb-GGA Exchange-Correlation Functional

    N. Mardirossian and M. Head-Gordon, Phys. Chem. Chem. Phys. 16, 9904 (2014)

    Deriv               =              1
    GGA                 =           TRUE
    Meta                =          FALSE

    Exchange Hybrid     =           TRUE
    MP2 Hybrid          =          FALSE

   => Exchange-Correlation Functionals <=

    1.0000   wB97X-V range-separated functional

   => Exact (HF) Exchange <=

    0.8330            HF,LR [omega = 0.3000]
    0.1670               HF 

   => VV10 Non-Local Parameters <=

    VV10 B              =     6.0000E+00
    VV10 C              =     1.0000E-02

   => Molecular Quadrature <=

    Radial Scheme          =       TREUTLER
    Pruning Scheme         =           FLAT
    Nuclear Scheme         =       TREUTLER

    BS radius alpha        =              1
    Pruning alpha          =              1
    Radial Points          =             75
    Spherical Points       =            302
    Total Points           =         113250
    Total Blocks           =            919
    Max Points             =            255
    Max Functions          =             59

   => Loading Basis Set <=

    Name: (AUG-CC-PV(D+D)Z AUX)
    Role: JKFIT
    Keyword: DF_BASIS_SCF
    atoms 1, 3-5 entry H          line    70 file /work/zw18965/.conda/envs/p4env/share/psi4/basis/aug-cc-pvdz-jkfit.gbs 
    atoms 2      entry C          line   154 file /work/zw18965/.conda/envs/p4env/share/psi4/basis/aug-cc-pvdz-jkfit.gbs 

  ==> Pre-Iterations <==

   -------------------------------------------------------
    Irrep   Nso     Nmo     Nalpha   Nbeta   Ndocc  Nsocc
   -------------------------------------------------------
     A         31      31       0       0       0       0
     B         28      28       0       0       0       0
   -------------------------------------------------------
    Total      59      59       5       5       5       0
   -------------------------------------------------------

  ==> Integral Setup <==

  ==> DiskDFJK: Density-Fitted J/K Matrices <==

    J tasked:                  Yes
    K tasked:                  Yes
    wK tasked:                 Yes
    Omega:               3.000E-01
    OpenMP threads:             24
    Integrals threads:          24
    Memory [MiB]:           102800
    Algorithm:                Core
    Integral Cache:           NONE
    Schwarz Cutoff:          1E-12
    Fitting Condition:       1E-10

   => Auxiliary Basis Set <=

  Basis Set: (AUG-CC-PV(D+D)Z AUX)
    Blend: AUG-CC-PVDZ-JKFIT
    Number of shells: 76
    Number of basis function: 214
    Number of Cartesian functions: 241
    Spherical Harmonics?: true
    Max angular momentum: 3

  Cached 100.0% of DFT collocation blocks in 0.192 [GiB].

  Minimum eigenvalue in the overlap matrix is 7.9529600777E-04.
  Using Symmetric Orthogonalization.

  SCF Guess: Superposition of Atomic Densities via on-the-fly atomic UHF.

  ==> Iterations <==

                           Total Energy        Delta E     RMS |[F,P]|

   @DF-RKS iter SAD:   -39.94632464636499   -3.99463e+01   0.00000e+00 
   @DF-RKS iter   1:   -40.37684264915996   -4.30518e-01   1.17598e-02 DIIS
   @DF-RKS iter   2:   -40.44825361038117   -7.14110e-02   7.60903e-03 DIIS
   @DF-RKS iter   3:   -40.50016572414970   -5.19121e-02   3.33236e-04 DIIS
   @DF-RKS iter   4:   -40.50043307819114   -2.67354e-04   6.02711e-05 DIIS
   @DF-RKS iter   5:   -40.50044044977753   -7.37159e-06   5.99925e-06 DIIS
   @DF-RKS iter   6:   -40.50044055322042   -1.03443e-07   6.15590e-07 DIIS
   @DF-RKS iter   7:   -40.50044055399396   -7.73539e-10   4.24534e-08 DIIS
   @DF-RKS iter   8:   -40.50044055399709   -3.12639e-12   5.24614e-09 DIIS
  Energy and wave function converged.


  ==> Post-Iterations <==

    Orbital Energies [Eh]
    ---------------------

    Doubly Occupied:                                                      

       1A    -10.263503     2A     -0.824283     1B     -0.498369  
       2B     -0.498215     3A     -0.498010  

    Virtual:                                                              

       4A      0.037469     3B      0.066353     4B      0.066362  
       5A      0.066387     6A      0.144085     5B      0.144154  
       6B      0.144166     7A      0.163314     7B      0.261040  
       8A      0.261102     8B      0.261380     9A      0.284924  
      10A      0.285064    11A      0.384841    12A      0.413375  
       9B      0.413411    10B      0.413545    11B      0.497217  
      13A      0.497353    12B      0.497410    14A      0.533742  
      13B      0.565078    15A      0.565126    14B      0.565139  
      16A      0.646301    15B      0.646490    16B      0.646597  
      17A      0.683339    18A      0.683436    17B      0.875013  
      18B      0.875193    19A      0.875513    20A      0.994345  
      19B      1.231165    21A      1.231168    20B      1.231785  
      22A      1.607994    23A      1.608446    21B      1.739372  
      24A      1.739942    22B      1.740066    25A      1.861700  
      23B      2.038485    26A      2.039569    24B      2.041061  
      25B      2.117194    27A      2.118187    26B      2.118430  
      28A      2.457080    29A      2.458261    30A      2.629250  
      27B      2.708842    31A      2.710731    28B      2.711415  

    Final Occupation by Irrep:
              A     B 
    DOCC [     3,    2 ]

  @DF-RKS Final Energy:   -40.50044055399709

   => Energetics <=

    Nuclear Repulsion Energy =             13.4519193429100721
    One-Electron Energy =                 -79.7989666162072808
    Two-Electron Energy =                  30.3456978936887722
    DFT Exchange-Correlation Energy =      -4.5404746389874040
    Empirical Dispersion Energy =           0.0000000000000000
    VV10 Nonlocal Energy =                  0.0413834645987532
    Total Energy =                        -40.5004405539970875

Computation Completed


Properties will be evaluated at   0.000000,   0.000000,   0.000000 [a0]

Properties computed using the SCF density matrix

  Nuclear Dipole Moment: [e a0]
     X:     0.0000      Y:     0.0000      Z:    -0.0000

  Electronic Dipole Moment: [e a0]
     X:     0.0000      Y:     0.0000      Z:     0.0007

  Dipole Moment: [e a0]
     X:     0.0000      Y:     0.0000      Z:     0.0007     Total:     0.0007

  Dipole Moment: [D]
     X:     0.0000      Y:     0.0000      Z:     0.0017     Total:     0.0017


*** tstop() called on bp1-compute00046.data.bp.acrc.priv at Wed Apr 28 13:24:51 2021
Module time:
	user time   =      79.04 seconds =       1.32 minutes
	system time =       2.15 seconds =       0.04 minutes
	total time  =          4 seconds =       0.07 minutes
Total time:
	user time   =     394.85 seconds =       6.58 minutes
	system time =      12.24 seconds =       0.20 minutes
	total time  =         18 seconds =       0.30 minutes

  //>>>>>>>>>>>>>>>>>>>>>>>>>>>>>>>>>>>//
  //    Loading displacement 6 of 11   //
  //<<<<<<<<<<<<<<<<<<<<<<<<<<<<<<<<<<<//

*** tstart() called on bp1-compute00046.data.bp.acrc.priv
*** at Wed Apr 28 13:24:51 2021

   => Loading Basis Set <=

    Name: AUG-CC-PV(D+D)Z
    Role: ORBITAL
    Keyword: BASIS
    atoms 1, 3-5 entry H          line    56 file /work/zw18965/.conda/envs/p4env/share/psi4/basis/aug-cc-pv_dpd_z.gbs 
    atoms 2      entry C          line   198 file /work/zw18965/.conda/envs/p4env/share/psi4/basis/aug-cc-pv_dpd_z.gbs 


         ---------------------------------------------------------
                                   SCF
               by Justin Turney, Rob Parrish, Andy Simmonett
                          and Daniel G. A. Smith
                              RKS Reference
                       24 Threads, 137329 MiB Core
         ---------------------------------------------------------

  ==> Geometry <==

    Molecular point group: c2
    Full point group: C2v

    Geometry (in Angstrom), charge = 0, multiplicity = 1:

       Center              X                  Y                   Z               Mass       
    ------------   -----------------  -----------------  -----------------  -----------------
         H            0.000000000007     0.888266630384    -0.629841910154     1.007825032230
         C           -0.000000000000     0.000000000000     0.000250603840    12.000000000000
         H            0.888266630391     0.000000000002     0.628349961661     1.007825032230
         H           -0.888266630391    -0.000000000002     0.628349961661     1.007825032230
         H           -0.000000000007    -0.888266630384    -0.629841910154     1.007825032230

  Running in c2 symmetry.

  Rotational constants: A =      5.29986  B =      5.29146  C =      5.29146 [cm^-1]
  Rotational constants: A = 158885.90516  B = 158633.85854  C = 158633.85854 [MHz]
  Nuclear repulsion =   13.454204798086776

  Charge       = 0
  Multiplicity = 1
  Electrons    = 10
  Nalpha       = 5
  Nbeta        = 5

  ==> Algorithm <==

  SCF Algorithm Type is DF.
  DIIS enabled.
  MOM disabled.
  Fractional occupation disabled.
  Guess Type is SAD.
  Energy threshold   = 1.00e-08
  Density threshold  = 1.00e-08
  Integral threshold = 0.00e+00

  ==> Primary Basis <==

  Basis Set: AUG-CC-PV(D+D)Z
    Blend: AUG-CC-PV(D+D)Z
    Number of shells: 29
    Number of basis function: 59
    Number of Cartesian functions: 61
    Spherical Harmonics?: true
    Max angular momentum: 2

  ==> DFT Potential <==

   => Composite Functional: WB97X-V <= 

    wB97X-V Hyb-GGA Exchange-Correlation Functional

    N. Mardirossian and M. Head-Gordon, Phys. Chem. Chem. Phys. 16, 9904 (2014)

    Deriv               =              1
    GGA                 =           TRUE
    Meta                =          FALSE

    Exchange Hybrid     =           TRUE
    MP2 Hybrid          =          FALSE

   => Exchange-Correlation Functionals <=

    1.0000   wB97X-V range-separated functional

   => Exact (HF) Exchange <=

    0.8330            HF,LR [omega = 0.3000]
    0.1670               HF 

   => VV10 Non-Local Parameters <=

    VV10 B              =     6.0000E+00
    VV10 C              =     1.0000E-02

   => Molecular Quadrature <=

    Radial Scheme          =       TREUTLER
    Pruning Scheme         =           FLAT
    Nuclear Scheme         =       TREUTLER

    BS radius alpha        =              1
    Pruning alpha          =              1
    Radial Points          =             75
    Spherical Points       =            302
    Total Points           =         113250
    Total Blocks           =            935
    Max Points             =            256
    Max Functions          =             59

   => Loading Basis Set <=

    Name: (AUG-CC-PV(D+D)Z AUX)
    Role: JKFIT
    Keyword: DF_BASIS_SCF
    atoms 1, 3-5 entry H          line    70 file /work/zw18965/.conda/envs/p4env/share/psi4/basis/aug-cc-pvdz-jkfit.gbs 
    atoms 2      entry C          line   154 file /work/zw18965/.conda/envs/p4env/share/psi4/basis/aug-cc-pvdz-jkfit.gbs 

  ==> Pre-Iterations <==

   -------------------------------------------------------
    Irrep   Nso     Nmo     Nalpha   Nbeta   Ndocc  Nsocc
   -------------------------------------------------------
     A         31      31       0       0       0       0
     B         28      28       0       0       0       0
   -------------------------------------------------------
    Total      59      59       5       5       5       0
   -------------------------------------------------------

  ==> Integral Setup <==

  ==> DiskDFJK: Density-Fitted J/K Matrices <==

    J tasked:                  Yes
    K tasked:                  Yes
    wK tasked:                 Yes
    Omega:               3.000E-01
    OpenMP threads:             24
    Integrals threads:          24
    Memory [MiB]:           102800
    Algorithm:                Core
    Integral Cache:           NONE
    Schwarz Cutoff:          1E-12
    Fitting Condition:       1E-10

   => Auxiliary Basis Set <=

  Basis Set: (AUG-CC-PV(D+D)Z AUX)
    Blend: AUG-CC-PVDZ-JKFIT
    Number of shells: 76
    Number of basis function: 214
    Number of Cartesian functions: 241
    Spherical Harmonics?: true
    Max angular momentum: 3

  Cached 100.0% of DFT collocation blocks in 0.192 [GiB].

  Minimum eigenvalue in the overlap matrix is 7.9595426921E-04.
  Using Symmetric Orthogonalization.

  SCF Guess: Superposition of Atomic Densities via on-the-fly atomic UHF.

  ==> Iterations <==

                           Total Energy        Delta E     RMS |[F,P]|

   @DF-RKS iter SAD:   -39.94655060439636   -3.99466e+01   0.00000e+00 
   @DF-RKS iter   1:   -40.37679874170306   -4.30248e-01   1.17624e-02 DIIS
   @DF-RKS iter   2:   -40.44824844022569   -7.14497e-02   7.60931e-03 DIIS
   @DF-RKS iter   3:   -40.50015838748752   -5.19099e-02   3.33216e-04 DIIS
   @DF-RKS iter   4:   -40.50042565130304   -2.67264e-04   6.02627e-05 DIIS
   @DF-RKS iter   5:   -40.50043302072716   -7.36942e-06   5.99836e-06 DIIS
   @DF-RKS iter   6:   -40.50043312415271   -1.03426e-07   6.14524e-07 DIIS
   @DF-RKS iter   7:   -40.50043312492461   -7.71898e-10   3.98853e-08 DIIS
   @DF-RKS iter   8:   -40.50043312492751   -2.90612e-12   2.18288e-09 DIIS
  Energy and wave function converged.


  ==> Post-Iterations <==

    Orbital Energies [Eh]
    ---------------------

    Doubly Occupied:                                                      

       1A    -10.263422     2A     -0.824341     3A     -0.498516  
       1B     -0.498362     2B     -0.497816  

    Virtual:                                                              

       4A      0.037469     5A      0.066334     3B      0.066359  
       4B      0.066405     5B      0.144068     6B      0.144135  
       6A      0.144213     7A      0.163320     7B      0.261031  
       8B      0.261296     8A      0.261324     9A      0.284900  
      10A      0.285109    11A      0.384910     9B      0.413383  
      10B      0.413394    12A      0.413545    13A      0.497318  
      11B      0.497379    12B      0.497381    14A      0.533755  
      13B      0.565001    15A      0.565128    14B      0.565306  
      15B      0.646214    16B      0.646486    16A      0.646721  
      17A      0.683324    18A      0.683475    19A      0.874908  
      17B      0.875013    18B      0.876044    20A      0.994524  
      19B      1.231117    20B      1.231241    21A      1.231641  
      22A      1.607898    23A      1.608573    24A      1.739671  
      21B      1.739916    22B      1.740093    25A      1.861687  
      23B      2.039475    26A      2.040185    24B      2.040277  
      27A      2.117694    25B      2.117816    26B      2.118747  
      28A      2.457077    29A      2.458852    30A      2.629762  
      27B      2.709837    31A      2.710143    28B      2.712107  

    Final Occupation by Irrep:
              A     B 
    DOCC [     3,    2 ]

  @DF-RKS Final Energy:   -40.50043312492751

   => Energetics <=

    Nuclear Repulsion Energy =             13.4542047980867761
    One-Electron Energy =                 -79.8032346627900182
    Two-Electron Energy =                  30.3478928600156337
    DFT Exchange-Correlation Energy =      -4.5406800561111780
    Empirical Dispersion Energy =           0.0000000000000000
    VV10 Nonlocal Energy =                  0.0413839358712725
    Total Energy =                        -40.5004331249275111

Computation Completed


Properties will be evaluated at   0.000000,   0.000000,   0.000000 [a0]

Properties computed using the SCF density matrix

  Nuclear Dipole Moment: [e a0]
     X:     0.0000      Y:     0.0000      Z:    -0.0028

  Electronic Dipole Moment: [e a0]
     X:     0.0000      Y:     0.0000      Z:     0.0028

  Dipole Moment: [e a0]
     X:     0.0000      Y:     0.0000      Z:    -0.0000     Total:     0.0000

  Dipole Moment: [D]
     X:     0.0000      Y:     0.0000      Z:    -0.0000     Total:     0.0000


*** tstop() called on bp1-compute00046.data.bp.acrc.priv at Wed Apr 28 13:24:54 2021
Module time:
	user time   =      78.11 seconds =       1.30 minutes
	system time =       2.11 seconds =       0.04 minutes
	total time  =          3 seconds =       0.05 minutes
Total time:
	user time   =     473.10 seconds =       7.88 minutes
	system time =      14.36 seconds =       0.24 minutes
	total time  =         21 seconds =       0.35 minutes

  //>>>>>>>>>>>>>>>>>>>>>>>>>>>>>>>>>>>//
  //    Loading displacement 7 of 11   //
  //<<<<<<<<<<<<<<<<<<<<<<<<<<<<<<<<<<<//

*** tstart() called on bp1-compute00046.data.bp.acrc.priv
*** at Wed Apr 28 13:24:54 2021

   => Loading Basis Set <=

    Name: AUG-CC-PV(D+D)Z
    Role: ORBITAL
    Keyword: BASIS
    atoms 1, 3-5 entry H          line    56 file /work/zw18965/.conda/envs/p4env/share/psi4/basis/aug-cc-pv_dpd_z.gbs 
    atoms 2      entry C          line   198 file /work/zw18965/.conda/envs/p4env/share/psi4/basis/aug-cc-pv_dpd_z.gbs 


         ---------------------------------------------------------
                                   SCF
               by Justin Turney, Rob Parrish, Andy Simmonett
                          and Daniel G. A. Smith
                              RKS Reference
                       24 Threads, 137329 MiB Core
         ---------------------------------------------------------

  ==> Geometry <==

    Molecular point group: c2
    Full point group: C2v

    Geometry (in Angstrom), charge = 0, multiplicity = 1:

       Center              X                  Y                   Z               Mass       
    ------------   -----------------  -----------------  -----------------  -----------------
         H            0.000000000007     0.888266630384    -0.626356805574     1.007825032230
         C           -0.000000000000     0.000000000000    -0.000250603827    12.000000000000
         H            0.888266630391     0.000000000002     0.627848753994     1.007825032230
         H           -0.888266630391    -0.000000000002     0.627848753994     1.007825032230
         H           -0.000000000007    -0.888266630384    -0.626356805574     1.007825032230

  Running in c2 symmetry.

  Rotational constants: A =      5.30827  B =      5.30827  C =      5.29986 [cm^-1]
  Rotational constants: A = 159138.05236  B = 159138.05236  C = 158885.90516 [MHz]
  Nuclear repulsion =   13.468443769812589

  Charge       = 0
  Multiplicity = 1
  Electrons    = 10
  Nalpha       = 5
  Nbeta        = 5

  ==> Algorithm <==

  SCF Algorithm Type is DF.
  DIIS enabled.
  MOM disabled.
  Fractional occupation disabled.
  Guess Type is SAD.
  Energy threshold   = 1.00e-08
  Density threshold  = 1.00e-08
  Integral threshold = 0.00e+00

  ==> Primary Basis <==

  Basis Set: AUG-CC-PV(D+D)Z
    Blend: AUG-CC-PV(D+D)Z
    Number of shells: 29
    Number of basis function: 59
    Number of Cartesian functions: 61
    Spherical Harmonics?: true
    Max angular momentum: 2

  ==> DFT Potential <==

   => Composite Functional: WB97X-V <= 

    wB97X-V Hyb-GGA Exchange-Correlation Functional

    N. Mardirossian and M. Head-Gordon, Phys. Chem. Chem. Phys. 16, 9904 (2014)

    Deriv               =              1
    GGA                 =           TRUE
    Meta                =          FALSE

    Exchange Hybrid     =           TRUE
    MP2 Hybrid          =          FALSE

   => Exchange-Correlation Functionals <=

    1.0000   wB97X-V range-separated functional

   => Exact (HF) Exchange <=

    0.8330            HF,LR [omega = 0.3000]
    0.1670               HF 

   => VV10 Non-Local Parameters <=

    VV10 B              =     6.0000E+00
    VV10 C              =     1.0000E-02

   => Molecular Quadrature <=

    Radial Scheme          =       TREUTLER
    Pruning Scheme         =           FLAT
    Nuclear Scheme         =       TREUTLER

    BS radius alpha        =              1
    Pruning alpha          =              1
    Radial Points          =             75
    Spherical Points       =            302
    Total Points           =         113250
    Total Blocks           =            936
    Max Points             =            255
    Max Functions          =             59

   => Loading Basis Set <=

    Name: (AUG-CC-PV(D+D)Z AUX)
    Role: JKFIT
    Keyword: DF_BASIS_SCF
    atoms 1, 3-5 entry H          line    70 file /work/zw18965/.conda/envs/p4env/share/psi4/basis/aug-cc-pvdz-jkfit.gbs 
    atoms 2      entry C          line   154 file /work/zw18965/.conda/envs/p4env/share/psi4/basis/aug-cc-pvdz-jkfit.gbs 

  ==> Pre-Iterations <==

   -------------------------------------------------------
    Irrep   Nso     Nmo     Nalpha   Nbeta   Ndocc  Nsocc
   -------------------------------------------------------
     A         31      31       0       0       0       0
     B         28      28       0       0       0       0
   -------------------------------------------------------
    Total      59      59       5       5       5       0
   -------------------------------------------------------

  ==> Integral Setup <==

  ==> DiskDFJK: Density-Fitted J/K Matrices <==

    J tasked:                  Yes
    K tasked:                  Yes
    wK tasked:                 Yes
    Omega:               3.000E-01
    OpenMP threads:             24
    Integrals threads:          24
    Memory [MiB]:           102800
    Algorithm:                Core
    Integral Cache:           NONE
    Schwarz Cutoff:          1E-12
    Fitting Condition:       1E-10

   => Auxiliary Basis Set <=

  Basis Set: (AUG-CC-PV(D+D)Z AUX)
    Blend: AUG-CC-PVDZ-JKFIT
    Number of shells: 76
    Number of basis function: 214
    Number of Cartesian functions: 241
    Spherical Harmonics?: true
    Max angular momentum: 3

  Cached 100.0% of DFT collocation blocks in 0.192 [GiB].

  Minimum eigenvalue in the overlap matrix is 7.9345145478E-04.
  Using Symmetric Orthogonalization.

  SCF Guess: Superposition of Atomic Densities via on-the-fly atomic UHF.

  ==> Iterations <==

                           Total Energy        Delta E     RMS |[F,P]|

   @DF-RKS iter SAD:   -39.94792930278468   -3.99479e+01   0.00000e+00 
   @DF-RKS iter   1:   -40.37651487546179   -4.28586e-01   1.17783e-02 DIIS
   @DF-RKS iter   2:   -40.44820639929019   -7.16915e-02   7.61099e-03 DIIS
   @DF-RKS iter   3:   -40.50010224347793   -5.18958e-02   3.33082e-04 DIIS
   @DF-RKS iter   4:   -40.50036892258771   -2.66679e-04   6.02042e-05 DIIS
   @DF-RKS iter   5:   -40.50037627645406   -7.35387e-06   5.99347e-06 DIIS
   @DF-RKS iter   6:   -40.50037637972591   -1.03272e-07   6.14364e-07 DIIS
   @DF-RKS iter   7:   -40.50037638049665   -7.70740e-10   3.98512e-08 DIIS
   @DF-RKS iter   8:   -40.50037638049955   -2.89191e-12   2.17579e-09 DIIS
  Energy and wave function converged.


  ==> Post-Iterations <==

    Orbital Energies [Eh]
    ---------------------

    Doubly Occupied:                                                      

       1A    -10.262924     2A     -0.824697     1B     -0.498855  
       2B     -0.498309     3A     -0.498153  

    Virtual:                                                              

       4A      0.037487     3B      0.066323     4B      0.066368  
       5A      0.066392     6A      0.144096     5B      0.144174  
       6B      0.144241     7A      0.163373     8A      0.261381  
       7B      0.261409     8B      0.261672     9A      0.284969  
      10A      0.285179    11A      0.385340    12A      0.413340  
       9B      0.413492    10B      0.413502    11B      0.497540  
      12B      0.497542    13A      0.497603    14A      0.533855  
      13B      0.565187    15A      0.565364    14B      0.565492  
      16A      0.646296    15B      0.646532    16B      0.646802  
      17A      0.683408    18A      0.683560    17B      0.875119  
      18B      0.876152    19A      0.876263    20A      0.995654  
      21A      1.230781    19B      1.231179    20B      1.231303  
      22A      1.608004    23A      1.608681    21B      1.740322  
      22B      1.740506    24A      1.740755    25A      1.861606  
      23B      2.041409    26A      2.041503    24B      2.042196  
      25B      2.118333    26B      2.119285    27A      2.119394  
      28A      2.458919    29A      2.460704    30A      2.632931  
      27B      2.711556    31A      2.713593    28B      2.713834  

    Final Occupation by Irrep:
              A     B 
    DOCC [     3,    2 ]

  @DF-RKS Final Energy:   -40.50037638049955

   => Energetics <=

    Nuclear Repulsion Energy =             13.4684437698125894
    One-Electron Energy =                 -79.8298129638418459
    Two-Electron Energy =                  30.3615661796220913
    DFT Exchange-Correlation Energy =      -4.5419591908356320
    Empirical Dispersion Energy =           0.0000000000000000
    VV10 Nonlocal Energy =                  0.0413858247432468
    Total Energy =                        -40.5003763804995529

Computation Completed


Properties will be evaluated at   0.000000,   0.000000,   0.000000 [a0]

Properties computed using the SCF density matrix

  Nuclear Dipole Moment: [e a0]
     X:     0.0000      Y:     0.0000      Z:     0.0028

  Electronic Dipole Moment: [e a0]
     X:     0.0000      Y:     0.0000      Z:    -0.0028

  Dipole Moment: [e a0]
     X:     0.0000      Y:     0.0000      Z:     0.0000     Total:     0.0000

  Dipole Moment: [D]
     X:     0.0000      Y:     0.0000      Z:     0.0000     Total:     0.0000


*** tstop() called on bp1-compute00046.data.bp.acrc.priv at Wed Apr 28 13:24:57 2021
Module time:
	user time   =      77.60 seconds =       1.29 minutes
	system time =       2.05 seconds =       0.03 minutes
	total time  =          3 seconds =       0.05 minutes
Total time:
	user time   =     550.85 seconds =       9.18 minutes
	system time =      16.41 seconds =       0.27 minutes
	total time  =         24 seconds =       0.40 minutes

  //>>>>>>>>>>>>>>>>>>>>>>>>>>>>>>>>>>>//
  //    Loading displacement 8 of 11   //
  //<<<<<<<<<<<<<<<<<<<<<<<<<<<<<<<<<<<//

*** tstart() called on bp1-compute00046.data.bp.acrc.priv
*** at Wed Apr 28 13:24:57 2021

   => Loading Basis Set <=

    Name: AUG-CC-PV(D+D)Z
    Role: ORBITAL
    Keyword: BASIS
    atoms 1, 3-5 entry H          line    56 file /work/zw18965/.conda/envs/p4env/share/psi4/basis/aug-cc-pv_dpd_z.gbs 
    atoms 2      entry C          line   198 file /work/zw18965/.conda/envs/p4env/share/psi4/basis/aug-cc-pv_dpd_z.gbs 


         ---------------------------------------------------------
                                   SCF
               by Justin Turney, Rob Parrish, Andy Simmonett
                          and Daniel G. A. Smith
                              RKS Reference
                       24 Threads, 137329 MiB Core
         ---------------------------------------------------------

  ==> Geometry <==

    Molecular point group: c2
    Full point group: C2v

    Geometry (in Angstrom), charge = 0, multiplicity = 1:

       Center              X                  Y                   Z               Mass       
    ------------   -----------------  -----------------  -----------------  -----------------
         H            0.000000000007     0.888266630384    -0.628099357864     1.007825032230
         C           -0.000000000000     0.000000000000    -0.000289655281    12.000000000000
         H            0.888266630391     0.000000000002     0.629823795766     1.007825032230
         H           -0.888266630391    -0.000000000002     0.629823795766     1.007825032230
         H           -0.000000000007    -0.888266630384    -0.628099357864     1.007825032230

  Running in c2 symmetry.

  Rotational constants: A =      5.29986  B =      5.29259  C =      5.29259 [cm^-1]
  Rotational constants: A = 158885.90516  B = 158667.74591  C = 158667.74591 [MHz]
  Nuclear repulsion =   13.455164558213795

  Charge       = 0
  Multiplicity = 1
  Electrons    = 10
  Nalpha       = 5
  Nbeta        = 5

  ==> Algorithm <==

  SCF Algorithm Type is DF.
  DIIS enabled.
  MOM disabled.
  Fractional occupation disabled.
  Guess Type is SAD.
  Energy threshold   = 1.00e-08
  Density threshold  = 1.00e-08
  Integral threshold = 0.00e+00

  ==> Primary Basis <==

  Basis Set: AUG-CC-PV(D+D)Z
    Blend: AUG-CC-PV(D+D)Z
    Number of shells: 29
    Number of basis function: 59
    Number of Cartesian functions: 61
    Spherical Harmonics?: true
    Max angular momentum: 2

  ==> DFT Potential <==

   => Composite Functional: WB97X-V <= 

    wB97X-V Hyb-GGA Exchange-Correlation Functional

    N. Mardirossian and M. Head-Gordon, Phys. Chem. Chem. Phys. 16, 9904 (2014)

    Deriv               =              1
    GGA                 =           TRUE
    Meta                =          FALSE

    Exchange Hybrid     =           TRUE
    MP2 Hybrid          =          FALSE

   => Exchange-Correlation Functionals <=

    1.0000   wB97X-V range-separated functional

   => Exact (HF) Exchange <=

    0.8330            HF,LR [omega = 0.3000]
    0.1670               HF 

   => VV10 Non-Local Parameters <=

    VV10 B              =     6.0000E+00
    VV10 C              =     1.0000E-02

   => Molecular Quadrature <=

    Radial Scheme          =       TREUTLER
    Pruning Scheme         =           FLAT
    Nuclear Scheme         =       TREUTLER

    BS radius alpha        =              1
    Pruning alpha          =              1
    Radial Points          =             75
    Spherical Points       =            302
    Total Points           =         113250
    Total Blocks           =            935
    Max Points             =            256
    Max Functions          =             59

   => Loading Basis Set <=

    Name: (AUG-CC-PV(D+D)Z AUX)
    Role: JKFIT
    Keyword: DF_BASIS_SCF
    atoms 1, 3-5 entry H          line    70 file /work/zw18965/.conda/envs/p4env/share/psi4/basis/aug-cc-pvdz-jkfit.gbs 
    atoms 2      entry C          line   154 file /work/zw18965/.conda/envs/p4env/share/psi4/basis/aug-cc-pvdz-jkfit.gbs 

  ==> Pre-Iterations <==

   -------------------------------------------------------
    Irrep   Nso     Nmo     Nalpha   Nbeta   Ndocc  Nsocc
   -------------------------------------------------------
     A         31      31       0       0       0       0
     B         28      28       0       0       0       0
   -------------------------------------------------------
    Total      59      59       5       5       5       0
   -------------------------------------------------------

  ==> Integral Setup <==

  ==> DiskDFJK: Density-Fitted J/K Matrices <==

    J tasked:                  Yes
    K tasked:                  Yes
    wK tasked:                 Yes
    Omega:               3.000E-01
    OpenMP threads:             24
    Integrals threads:          24
    Memory [MiB]:           102800
    Algorithm:                Core
    Integral Cache:           NONE
    Schwarz Cutoff:          1E-12
    Fitting Condition:       1E-10

   => Auxiliary Basis Set <=

  Basis Set: (AUG-CC-PV(D+D)Z AUX)
    Blend: AUG-CC-PVDZ-JKFIT
    Number of shells: 76
    Number of basis function: 214
    Number of Cartesian functions: 241
    Spherical Harmonics?: true
    Max angular momentum: 3

  Cached 100.0% of DFT collocation blocks in 0.192 [GiB].

  Minimum eigenvalue in the overlap matrix is 7.9571690222E-04.
  Using Symmetric Orthogonalization.

  SCF Guess: Superposition of Atomic Densities via on-the-fly atomic UHF.

  ==> Iterations <==

                           Total Energy        Delta E     RMS |[F,P]|

   @DF-RKS iter SAD:   -39.94664342418140   -3.99466e+01   0.00000e+00 
   @DF-RKS iter   1:   -40.37677951215601   -4.30136e-01   1.17634e-02 DIIS
   @DF-RKS iter   2:   -40.44824552988174   -7.14660e-02   7.60943e-03 DIIS
   @DF-RKS iter   3:   -40.50015459051164   -5.19091e-02   3.33207e-04 DIIS
   @DF-RKS iter   4:   -40.50042181497442   -2.67224e-04   6.02587e-05 DIIS
   @DF-RKS iter   5:   -40.50042918335324   -7.36838e-06   5.99803e-06 DIIS
   @DF-RKS iter   6:   -40.50042928676849   -1.03415e-07   6.14517e-07 DIIS
   @DF-RKS iter   7:   -40.50042928754019   -7.71699e-10   3.98890e-08 DIIS
   @DF-RKS iter   8:   -40.50042928754313   -2.93454e-12   2.19381e-09 DIIS
  Energy and wave function converged.


  ==> Post-Iterations <==

    Orbital Energies [Eh]
    ---------------------

    Doubly Occupied:                                                      

       1A    -10.263389     2A     -0.824365     3A     -0.498492  
       1B     -0.498438     2B     -0.497807  

    Virtual:                                                              

       4A      0.037470     5A      0.066338     3B      0.066353  
       4B      0.066406     5B      0.144069     6B      0.144147  
       6A      0.144205     7A      0.163324     7B      0.261036  
       8A      0.261327     8B      0.261342     9A      0.284919  
      10A      0.285100    11A      0.384939     9B      0.413389  
      10B      0.413402    12A      0.413531    13A      0.497337  
      11B      0.497390    12B      0.497392    14A      0.533762  
      13B      0.564990    15A      0.565144    14B      0.565343  
      15B      0.646214    16B      0.646528    16A      0.646692  
      17A      0.683340    18A      0.683470    17B      0.874940  
      19A      0.874999    18B      0.876132    20A      0.994600  
      19B      1.231111    20B      1.231255    21A      1.231583  
      22A      1.607951    23A      1.608534    24A      1.739744  
      21B      1.739930    22B      1.740135    25A      1.861681  
      23B      2.039541    26A      2.040274    24B      2.040467  
      25B      2.117780    27A      2.117809    26B      2.118859  
      28A      2.457321    29A      2.458856    30A      2.629967  
      27B      2.709776    31A      2.710386    28B      2.712400  

    Final Occupation by Irrep:
              A     B 
    DOCC [     3,    2 ]

  @DF-RKS Final Energy:   -40.50042928754313

   => Energetics <=

    Nuclear Repulsion Energy =             13.4551645582137951
    One-Electron Energy =                 -79.8050258909252506
    Two-Electron Energy =                  30.3488142665094571
    DFT Exchange-Correlation Energy =      -4.5407662846160957
    Empirical Dispersion Energy =           0.0000000000000000
    VV10 Nonlocal Energy =                  0.0413840632749665
    Total Energy =                        -40.5004292875431275

Computation Completed


Properties will be evaluated at   0.000000,   0.000000,   0.000000 [a0]

Properties computed using the SCF density matrix

  Nuclear Dipole Moment: [e a0]
     X:     0.0000      Y:     0.0000      Z:     0.0032

  Electronic Dipole Moment: [e a0]
     X:     0.0000      Y:     0.0000      Z:    -0.0032

  Dipole Moment: [e a0]
     X:     0.0000      Y:     0.0000      Z:     0.0000     Total:     0.0000

  Dipole Moment: [D]
     X:     0.0000      Y:     0.0000      Z:     0.0000     Total:     0.0000


*** tstop() called on bp1-compute00046.data.bp.acrc.priv at Wed Apr 28 13:25:01 2021
Module time:
	user time   =      77.57 seconds =       1.29 minutes
	system time =       1.98 seconds =       0.03 minutes
	total time  =          4 seconds =       0.07 minutes
Total time:
	user time   =     628.54 seconds =      10.48 minutes
	system time =      18.40 seconds =       0.31 minutes
	total time  =         28 seconds =       0.47 minutes

  //>>>>>>>>>>>>>>>>>>>>>>>>>>>>>>>>>>>//
  //    Loading displacement 9 of 11   //
  //<<<<<<<<<<<<<<<<<<<<<<<<<<<<<<<<<<<//

*** tstart() called on bp1-compute00046.data.bp.acrc.priv
*** at Wed Apr 28 13:25:01 2021

   => Loading Basis Set <=

    Name: AUG-CC-PV(D+D)Z
    Role: ORBITAL
    Keyword: BASIS
    atoms 1, 3-5 entry H          line    56 file /work/zw18965/.conda/envs/p4env/share/psi4/basis/aug-cc-pv_dpd_z.gbs 
    atoms 2      entry C          line   198 file /work/zw18965/.conda/envs/p4env/share/psi4/basis/aug-cc-pv_dpd_z.gbs 


         ---------------------------------------------------------
                                   SCF
               by Justin Turney, Rob Parrish, Andy Simmonett
                          and Daniel G. A. Smith
                              RKS Reference
                       24 Threads, 137329 MiB Core
         ---------------------------------------------------------

  ==> Geometry <==

    Molecular point group: c2
    Full point group: C2v

    Geometry (in Angstrom), charge = 0, multiplicity = 1:

       Center              X                  Y                   Z               Mass       
    ------------   -----------------  -----------------  -----------------  -----------------
         H            0.000000000007     0.888266630384    -0.628099357864     1.007825032230
[...]
   @DF-RKS iter   6:   -40.50059308420939   -1.57030e-12   3.55884e-09 DIIS
   @DF-RKS iter   7:   -40.50059308420938    7.10543e-15   4.04317e-10 DIIS
   @DF-RKS iter   8:   -40.50059308420933    4.97380e-14   5.02298e-11 DIIS
  Energy and wave function converged.


  ==> Post-Iterations <==

    Orbital Energies [Eh]
    ---------------------

    Doubly Occupied:                                                      

       1A    -10.269015     2A     -0.820351     3A     -0.496425  
       1B     -0.495856     2B     -0.495430  

    Virtual:                                                              

       4A      0.037250     5A      0.066358     3B      0.066421  
       4B      0.066477     5B      0.143668     6B      0.143752  
       6A      0.143919     7A      0.162685     7B      0.258018  
       8B      0.258053     8A      0.258335     9A      0.284030  
      10A      0.284420    11A      0.380031     9B      0.413271  
      10B      0.413381    12A      0.413607    13A      0.494997  
      11B      0.495022    12B      0.495205    14A      0.532595  
      13B      0.562726    15A      0.562816    14B      0.562985  
      15B      0.645261    16B      0.645653    16A      0.646104  
      17A      0.682317    18A      0.682600    19A      0.868818  
      17B      0.869507    18B      0.870423    20A      0.982049  
      19B      1.233563    20B      1.234003    21A      1.234641  
      22A      1.606440    23A      1.607716    24A      1.732582  
      21B      1.732776    22B      1.733570    25A      1.862233  
      23B      2.019232    26A      2.020496    24B      2.020689  
      25B      2.107395    27A      2.107444    26B      2.109395  
      28A      2.435609    29A      2.438808    30A      2.595363  
      31A      2.684656    27B      2.686182    28B      2.686230  

    Final Occupation by Irrep:
              A     B 
    DOCC [     3,    2 ]

  @DF-RKS Final Energy:   -40.50059308420933

   => Energetics <=

    Nuclear Repulsion Energy =             13.2954517069413356
    One-Electron Energy =                 -79.5060232126201640
    Two-Electron Energy =                  30.1950099981338163
    DFT Exchange-Correlation Energy =      -4.5263942596824025
    Empirical Dispersion Energy =           0.0000000000000000
    VV10 Nonlocal Energy =                  0.0413626830180759
    Total Energy =                        -40.5005930842093420

Computation Completed


Properties will be evaluated at   0.000000,   0.000000,   0.000000 [a0]

Properties computed using the SCF density matrix

  Nuclear Dipole Moment: [e a0]
     X:     0.0000      Y:     0.0000      Z:    -0.0030

  Electronic Dipole Moment: [e a0]
     X:     0.0000      Y:     0.0000      Z:     0.0024

  Dipole Moment: [e a0]
     X:     0.0000      Y:     0.0000      Z:    -0.0006     Total:     0.0006

  Dipole Moment: [D]
     X:     0.0000      Y:     0.0000      Z:    -0.0015     Total:     0.0015


*** tstop() called on bp1-compute00046.data.bp.acrc.priv at Wed Apr 28 13:30:56 2021
Module time:
	user time   =      65.26 seconds =       1.09 minutes
	system time =       1.46 seconds =       0.02 minutes
	total time  =          3 seconds =       0.05 minutes
Total time:
	user time   =    8905.11 seconds =     148.42 minutes
	system time =     212.37 seconds =       3.54 minutes
	total time  =        383 seconds =       6.38 minutes

  //>>>>>>>>>>>>>>>>>>>>>>>>>>>>>>>>>>>//
  //   Loading displacement 31 of 47   //
  //<<<<<<<<<<<<<<<<<<<<<<<<<<<<<<<<<<<//

*** tstart() called on bp1-compute00046.data.bp.acrc.priv
*** at Wed Apr 28 13:30:56 2021

   => Loading Basis Set <=

    Name: AUG-CC-PV(D+D)Z
    Role: ORBITAL
    Keyword: BASIS
    atoms 1, 3-5 entry H          line    56 file /work/zw18965/.conda/envs/p4env/share/psi4/basis/aug-cc-pv_dpd_z.gbs 
    atoms 2      entry C          line   198 file /work/zw18965/.conda/envs/p4env/share/psi4/basis/aug-cc-pv_dpd_z.gbs 


         ---------------------------------------------------------
                                   SCF
               by Justin Turney, Rob Parrish, Andy Simmonett
                          and Daniel G. A. Smith
                              RKS Reference
                       24 Threads, 137329 MiB Core
         ---------------------------------------------------------

  ==> Geometry <==

    Molecular point group: c2
    Full point group: C2

    Geometry (in Angstrom), charge = 0, multiplicity = 1:

       Center              X                  Y                   Z               Mass       
    ------------   -----------------  -----------------  -----------------  -----------------
         H            0.000040397297     0.897586969798    -0.637975191716     1.007825032230
         C            0.000000000000     0.000000000000    -0.000313510410    12.000000000000
         H            0.895612994221     0.000040313345     0.639841649088     1.007825032230
         H           -0.895612994221    -0.000040313345     0.639841649088     1.007825032230
         H           -0.000040397297    -0.897586969798    -0.637975191716     1.007825032230

  Running in c2 symmetry.

  Rotational constants: A =      5.20180  B =      5.16726  C =      5.15597 [cm^-1]
  Rotational constants: A = 155945.94560  B = 154910.52533  C = 154572.19304 [MHz]
  Nuclear repulsion =   13.301733508412589

  Charge       = 0
  Multiplicity = 1
  Electrons    = 10
  Nalpha       = 5
  Nbeta        = 5

  ==> Algorithm <==

  SCF Algorithm Type is DF.
  DIIS enabled.
  MOM disabled.
  Fractional occupation disabled.
  Guess Type is READ.
  Energy threshold   = 1.00e-10
  Density threshold  = 1.00e-10
  Integral threshold = 0.00e+00

  ==> Primary Basis <==

  Basis Set: AUG-CC-PV(D+D)Z
    Blend: AUG-CC-PV(D+D)Z
    Number of shells: 29
    Number of basis function: 59
    Number of Cartesian functions: 61
    Spherical Harmonics?: true
    Max angular momentum: 2

  ==> DFT Potential <==

   => Composite Functional: WB97X-V <= 

    wB97X-V Hyb-GGA Exchange-Correlation Functional

    N. Mardirossian and M. Head-Gordon, Phys. Chem. Chem. Phys. 16, 9904 (2014)

    Deriv               =              1
    GGA                 =           TRUE
    Meta                =          FALSE

    Exchange Hybrid     =           TRUE
    MP2 Hybrid          =          FALSE

   => Exchange-Correlation Functionals <=

    1.0000   wB97X-V range-separated functional

   => Exact (HF) Exchange <=

    0.8330            HF,LR [omega = 0.3000]
    0.1670               HF 

   => VV10 Non-Local Parameters <=

    VV10 B              =     6.0000E+00
    VV10 C              =     1.0000E-02

   => Molecular Quadrature <=

    Radial Scheme          =       TREUTLER
    Pruning Scheme         =           FLAT
    Nuclear Scheme         =       TREUTLER

    BS radius alpha        =              1
    Pruning alpha          =              1
    Radial Points          =             75
    Spherical Points       =            302
    Total Points           =         113250
    Total Blocks           =            917
    Max Points             =            255
    Max Functions          =             59

   => Loading Basis Set <=

    Name: (AUG-CC-PV(D+D)Z AUX)
    Role: JKFIT
    Keyword: DF_BASIS_SCF
    atoms 1, 3-5 entry H          line    70 file /work/zw18965/.conda/envs/p4env/share/psi4/basis/aug-cc-pvdz-jkfit.gbs 
    atoms 2      entry C          line   154 file /work/zw18965/.conda/envs/p4env/share/psi4/basis/aug-cc-pvdz-jkfit.gbs 

   => Loading Basis Set <=

    Name: AUG-CC-PV(D+D)Z
    Role: ORBITAL
    Keyword: BASIS
    atoms 1, 3-5 entry H          line    56 file /work/zw18965/.conda/envs/p4env/share/psi4/basis/aug-cc-pv_dpd_z.gbs 
    atoms 2      entry C          line   198 file /work/zw18965/.conda/envs/p4env/share/psi4/basis/aug-cc-pv_dpd_z.gbs 

  Reading orbitals from file 180, no projection.

  ==> Pre-Iterations <==

   -------------------------------------------------------
    Irrep   Nso     Nmo     Nalpha   Nbeta   Ndocc  Nsocc
   -------------------------------------------------------
     A         31      31       0       0       0       0
     B         28      28       0       0       0       0
   -------------------------------------------------------
    Total      59      59       5       5       5       0
   -------------------------------------------------------

  ==> Integral Setup <==

  ==> DiskDFJK: Density-Fitted J/K Matrices <==

    J tasked:                  Yes
    K tasked:                  Yes
    wK tasked:                 Yes
    Omega:               3.000E-01
    OpenMP threads:             24
    Integrals threads:          24
    Memory [MiB]:           102800
    Algorithm:                Core
    Integral Cache:           NONE
    Schwarz Cutoff:          1E-12
    Fitting Condition:       1E-10

   => Auxiliary Basis Set <=

  Basis Set: (AUG-CC-PV(D+D)Z AUX)
    Blend: AUG-CC-PVDZ-JKFIT
    Number of shells: 76
    Number of basis function: 214
    Number of Cartesian functions: 241
    Spherical Harmonics?: true
    Max angular momentum: 3

  Cached 100.0% of DFT collocation blocks in 0.192 [GiB].

  Minimum eigenvalue in the overlap matrix is 8.2487218898E-04.
  Using Symmetric Orthogonalization.

  SCF Guess: Orbitals guess was supplied from a previous computation.

  ==> Iterations <==

                           Total Energy        Delta E     RMS |[F,P]|

   @DF-RKS iter   0:   -40.50073835179519   -4.05007e+01   4.26925e-05 
   @DF-RKS iter   1:   -40.50059408606730    1.44266e-04   7.54479e-06 DIIS
   @DF-RKS iter   2:   -40.50059415837593   -7.23086e-08   1.42150e-06 DIIS
   @DF-RKS iter   3:   -40.50059416314392   -4.76799e-09   4.22060e-07 DIIS
   @DF-RKS iter   4:   -40.50059416351825   -3.74328e-10   1.31195e-07 DIIS
   @DF-RKS iter   5:   -40.50059416354000   -2.17497e-11   3.51374e-08 DIIS
   @DF-RKS iter   6:   -40.50059416354147   -1.47082e-12   3.69719e-09 DIIS
   @DF-RKS iter   7:   -40.50059416354154   -6.39488e-14   4.05942e-10 DIIS
   @DF-RKS iter   8:   -40.50059416354152    1.42109e-14   5.03023e-11 DIIS
  Energy and wave function converged.


  ==> Post-Iterations <==

    Orbital Energies [Eh]
    ---------------------

    Doubly Occupied:                                                      

       1A    -10.268793     2A     -0.820511     3A     -0.497365  
       1B     -0.495568     2B     -0.495053  

    Virtual:                                                              

       4A      0.037259     5A      0.066261     3B      0.066461  
       4B      0.066528     5B      0.143563     6B      0.143660  
       6A      0.144159     7A      0.162712     7B      0.257984  
       8B      0.258008     8A      0.258783     9A      0.283736  
      10A      0.284769    11A      0.380238     9B      0.413115  
      10B      0.413236    12A      0.413913    13A      0.494964  
      11B      0.495160    12B      0.495364    14A      0.532643  
      13B      0.562816    15A      0.562863    14B      0.563124  
      15B      0.644903    16B      0.645364    16A      0.646821  
      17A      0.682107    18A      0.682860    19A      0.867824  
      17B      0.870275    18B      0.871373    20A      0.982570  
      19B      1.232972    20B      1.233459    21A      1.235473  
      22A      1.605436    23A      1.608786    24A      1.732209  
      21B      1.733290    22B      1.734177    25A      1.862215  
      23B      2.019705    24B      2.021317    26A      2.021895  
      27A      2.106765    25B      2.108141    26B      2.110438  
      28A      2.433832    29A      2.442241    30A      2.596751  
      31A      2.683947    27B      2.687953    28B      2.688103  

    Final Occupation by Irrep:
              A     B 
    DOCC [     3,    2 ]

  @DF-RKS Final Energy:   -40.50059416354152

   => Energetics <=

    Nuclear Repulsion Energy =             13.3017335084125889
    One-Electron Energy =                 -79.5177986997086634
    Two-Electron Energy =                  30.2010656394849164
    DFT Exchange-Correlation Energy =      -4.5269581186095511
    Empirical Dispersion Energy =           0.0000000000000000
    VV10 Nonlocal Energy =                  0.0413635068791973
    Total Energy =                        -40.5005941635415141

Computation Completed


Properties will be evaluated at   0.000000,   0.000000,   0.000000 [a0]

Properties computed using the SCF density matrix

  Nuclear Dipole Moment: [e a0]
     X:     0.0000      Y:     0.0000      Z:     0.0035

  Electronic Dipole Moment: [e a0]
     X:     0.0000      Y:     0.0000      Z:    -0.0028

  Dipole Moment: [e a0]
     X:     0.0000      Y:     0.0000      Z:     0.0007     Total:     0.0007

  Dipole Moment: [D]
     X:     0.0000      Y:     0.0000      Z:     0.0017     Total:     0.0017


*** tstop() called on bp1-compute00046.data.bp.acrc.priv at Wed Apr 28 13:30:59 2021
Module time:
	user time   =      66.46 seconds =       1.11 minutes
	system time =       1.52 seconds =       0.03 minutes
	total time  =          3 seconds =       0.05 minutes
Total time:
	user time   =    8971.70 seconds =     149.53 minutes
	system time =     213.90 seconds =       3.56 minutes
	total time  =        386 seconds =       6.43 minutes

  //>>>>>>>>>>>>>>>>>>>>>>>>>>>>>>>>>>>//
  //   Loading displacement 32 of 47   //
  //<<<<<<<<<<<<<<<<<<<<<<<<<<<<<<<<<<<//

*** tstart() called on bp1-compute00046.data.bp.acrc.priv
*** at Wed Apr 28 13:30:59 2021

   => Loading Basis Set <=

    Name: AUG-CC-PV(D+D)Z
    Role: ORBITAL
    Keyword: BASIS
    atoms 1, 3-5 entry H          line    56 file /work/zw18965/.conda/envs/p4env/share/psi4/basis/aug-cc-pv_dpd_z.gbs 
    atoms 2      entry C          line   198 file /work/zw18965/.conda/envs/p4env/share/psi4/basis/aug-cc-pv_dpd_z.gbs 


         ---------------------------------------------------------
                                   SCF
               by Justin Turney, Rob Parrish, Andy Simmonett
                          and Daniel G. A. Smith
                              RKS Reference
                       24 Threads, 137329 MiB Core
         ---------------------------------------------------------

  ==> Geometry <==

    Molecular point group: c1
    Full point group: C1

    Geometry (in Angstrom), charge = 0, multiplicity = 1:

       Center              X                  Y                   Z               Mass       
    ------------   -----------------  -----------------  -----------------  -----------------
         H           -0.001430555384     0.897586943236    -0.637975191515     1.007825032230
         C            0.000296898007    -0.000000000001    -0.000023855123    12.000000000000
         H            0.897180036680     0.000040423799     0.638951908002     1.007825032230
         H           -0.897773245021    -0.000040370663     0.637282514297     1.007825032230
         H           -0.001511349978    -0.897586996360    -0.637975191916     1.007825032230

  Running in c1 symmetry.

  Rotational constants: A =      5.19180  B =      5.16365  C =      5.16216 [cm^-1]
  Rotational constants: A = 155646.35092  B = 154802.34282  C = 154757.68382 [MHz]
  Nuclear repulsion =   13.298599804021119

  Charge       = 0
  Multiplicity = 1
  Electrons    = 10
  Nalpha       = 5
  Nbeta        = 5

  ==> Algorithm <==

  SCF Algorithm Type is DF.
  DIIS enabled.
  MOM disabled.
  Fractional occupation disabled.
  Guess Type is READ.
  Energy threshold   = 1.00e-10
  Density threshold  = 1.00e-10
  Integral threshold = 0.00e+00

  ==> Primary Basis <==

  Basis Set: AUG-CC-PV(D+D)Z
    Blend: AUG-CC-PV(D+D)Z
    Number of shells: 29
    Number of basis function: 59
    Number of Cartesian functions: 61
    Spherical Harmonics?: true
    Max angular momentum: 2

  ==> DFT Potential <==

   => Composite Functional: WB97X-V <= 

    wB97X-V Hyb-GGA Exchange-Correlation Functional

    N. Mardirossian and M. Head-Gordon, Phys. Chem. Chem. Phys. 16, 9904 (2014)

    Deriv               =              1
    GGA                 =           TRUE
    Meta                =          FALSE

    Exchange Hybrid     =           TRUE
    MP2 Hybrid          =          FALSE

   => Exchange-Correlation Functionals <=

    1.0000   wB97X-V range-separated functional

   => Exact (HF) Exchange <=

    0.8330            HF,LR [omega = 0.3000]
    0.1670               HF 

   => VV10 Non-Local Parameters <=

    VV10 B              =     6.0000E+00
    VV10 C              =     1.0000E-02

   => Molecular Quadrature <=

    Radial Scheme          =       TREUTLER
    Pruning Scheme         =           FLAT
    Nuclear Scheme         =       TREUTLER

    BS radius alpha        =              1
    Pruning alpha          =              1
    Radial Points          =             75
    Spherical Points       =            302
    Total Points           =         113250
    Total Blocks           =            930
    Max Points             =            256
    Max Functions          =             59

   => Loading Basis Set <=

    Name: (AUG-CC-PV(D+D)Z AUX)
    Role: JKFIT
    Keyword: DF_BASIS_SCF
    atoms 1, 3-5 entry H          line    70 file /work/zw18965/.conda/envs/p4env/share/psi4/basis/aug-cc-pvdz-jkfit.gbs 
    atoms 2      entry C          line   154 file /work/zw18965/.conda/envs/p4env/share/psi4/basis/aug-cc-pvdz-jkfit.gbs 

   => Loading Basis Set <=

    Name: AUG-CC-PV(D+D)Z
    Role: ORBITAL
    Keyword: BASIS
    atoms 1, 3-5 entry H          line    56 file /work/zw18965/.conda/envs/p4env/share/psi4/basis/aug-cc-pv_dpd_z.gbs 
    atoms 2      entry C          line   198 file /work/zw18965/.conda/envs/p4env/share/psi4/basis/aug-cc-pv_dpd_z.gbs 


Traceback (most recent call last):
  File "/work/zw18965/.conda/envs/p4env/bin/psi4", line 287, in <module>
    exec(content)
  File "<string>", line 33, in <module>
  File "/work/zw18965/.conda/envs/p4env/lib//python3.7/site-packages/psi4/driver/driver.py", line 1079, in optimize
    frequencies(hessian_with_method, molecule=moleculeclone, **kwargs)
  File "/work/zw18965/.conda/envs/p4env/lib//python3.7/site-packages/psi4/driver/driver.py", line 1464, in frequency
    H, wfn = hessian(name, return_wfn=True, molecule=molecule, **kwargs)
  File "/work/zw18965/.conda/envs/p4env/lib//python3.7/site-packages/psi4/driver/driver.py", line 1344, in hessian
    energy, lowername, molecule, displacement, n, ndisp, write_orbitals=False, **kwargs)
  File "/work/zw18965/.conda/envs/p4env/lib//python3.7/site-packages/psi4/driver/driver.py", line 183, in _process_displacement
    derivative, wfn = derivfunc(method, return_wfn=True, molecule=clone, **kwargs)
  File "/work/zw18965/.conda/envs/p4env/lib//python3.7/site-packages/psi4/driver/driver.py", line 556, in energy
    wfn = procedures['energy'][lowername](lowername, molecule=molecule, **kwargs)
  File "/work/zw18965/.conda/envs/p4env/lib//python3.7/site-packages/psi4/driver/procrouting/proc.py", line 2002, in run_scf
    scf_wfn = scf_helper(name, post_scf=False, **kwargs)
  File "/work/zw18965/.conda/envs/p4env/lib//python3.7/site-packages/psi4/driver/procrouting/proc.py", line 1294, in scf_helper
    raise ValidationError("Cannot compute projection of different symmetries.")

psi4.driver.p4util.exceptions.ValidationError: Cannot compute projection of different symmetries.


Printing out the relevant lines from the Psithon --> Python processed input file:
    """)
    core.IO.set_default_namespace("")
    core.set_global_option("DYNAMIC_LEVEL", 1)
    core.set_global_option("BASIS", "aug-cc-pV(D+d)Z")
    core.set_global_option("FULL_HESS_EVERY", 1)
--> optimize("wB97X-V")
    frequencies("wB97X-V")

    Psi4 stopped on: Wednesday, 28 April 2021 01:30PM
    Psi4 wall time for execution: 0:06:26.67

*** Psi4 encountered an error. Buy a developer more coffee!
*** Resources and help at github.com/psi4/psi4.
