
    -----------------------------------------------------------------------
          Psi4: An Open-Source Ab Initio Electronic Structure Package
                               Psi4 1.3.2 release

                         Git: Rev {HEAD} ecbda83 


    R. M. Parrish, L. A. Burns, D. G. A. Smith, A. C. Simmonett,
    A. E. DePrince III, E. G. Hohenstein, U. Bozkaya, A. Yu. Sokolov,
    R. Di Remigio, R. M. Richard, J. F. Gonthier, A. M. James,
    H. R. McAlexander, A. Kumar, M. Saitow, X. Wang, B. P. Pritchard,
    P. Verma, H. F. Schaefer III, K. Patkowski, R. A. King, E. F. Valeev,
    F. A. Evangelista, J. M. Turney, T. D. Crawford, and C. D. Sherrill,
    J. Chem. Theory Comput. 13(7) pp 3185--3197 (2017).
    (doi: 10.1021/acs.jctc.7b00174)


                         Additional Contributions by
    P. Kraus, H. Kruse, M. H. Lechner, M. C. Schieber, R. A. Shaw,
    A. Alenaizan, R. Galvelis, Z. L. Glick, S. Lehtola, and J. P. Misiewicz

    -----------------------------------------------------------------------


    Psi4 started on: Tuesday, 27 April 2021 05:50PM

    Process ID: 196923
    Host:       bp1-compute00105.data.bp.acrc.priv
    PSIDATADIR: /work/zw18965/.conda/envs/p4env/share/psi4
    Memory:     500.0 MiB
    Threads:    24
    
  ==> Input File <==

--------------------------------------------------------------------------
memory 144 GB

molecule {
0 1
Cl 0.0000000000 0.0000000000 0.0000000000
Cl 0.0000000000 0.0000000000 1.9965761200
}

set dynamic_level 1
set basis aug-cc-pV(D+d)Z
 
optimize("wB97X-V")
frequencies("wB97X-V")
--------------------------------------------------------------------------

  Memory set to 134.110 GiB by Python driver.
gradient() will perform gradient computation by finite difference of analytic energies.

         ----------------------------------------------------------
                                   FINDIF
                     R. A. King and Jonathon Misiewicz
         ---------------------------------------------------------

  Using finite-differences of energies to determine gradients.
    Generating geometries for use with 3-point formula.
    Displacement size will be 5.00e-03.
    Number of atoms is 2.
    Number of symmetric SALCs is 1.
    Translations projected? 1. Rotations projected? 1.
    Number of geometries (including reference) is 3.

  //>>>>>>>>>>>>>>>>>>>>>>>>>>>>>>>>>>>//
  //    Loading displacement 1 of 3    //
  //<<<<<<<<<<<<<<<<<<<<<<<<<<<<<<<<<<<//

*** tstart() called on bp1-compute00105.data.bp.acrc.priv
*** at Tue Apr 27 17:50:36 2021

   => Loading Basis Set <=

    Name: AUG-CC-PV(D+D)Z
    Role: ORBITAL
    Keyword: BASIS
    atoms 1-2 entry CL         line   792 file /work/zw18965/.conda/envs/p4env/share/psi4/basis/aug-cc-pv_dpd_z.gbs 


         ---------------------------------------------------------
                                   SCF
               by Justin Turney, Rob Parrish, Andy Simmonett
                          and Daniel G. A. Smith
                              RKS Reference
                       24 Threads, 137329 MiB Core
         ---------------------------------------------------------

  ==> Geometry <==

    Molecular point group: d2h
    Full point group: D_inf_h

    Geometry (in Angstrom), charge = 0, multiplicity = 1:

       Center              X                  Y                   Z               Mass       
    ------------   -----------------  -----------------  -----------------  -----------------
         CL           0.000000000000     0.000000000000    -0.998288060000    34.968852682000
         CL           0.000000000000     0.000000000000     0.998288060000    34.968852682000

  Running in d2h symmetry.

  Rotational constants: A = ************  B =      0.24187  C =      0.24187 [cm^-1]
  Rotational constants: A = ************  B =   7250.93591  C =   7250.93591 [MHz]
  Nuclear repulsion =   76.597236815408763

  Charge       = 0
  Multiplicity = 1
  Electrons    = 34
  Nalpha       = 17
  Nbeta        = 17

  ==> Algorithm <==

  SCF Algorithm Type is DF.
  DIIS enabled.
  MOM disabled.
  Fractional occupation disabled.
  Guess Type is SAD.
  Energy threshold   = 1.00e-08
  Density threshold  = 1.00e-08
  Integral threshold = 0.00e+00

  ==> Primary Basis <==

  Basis Set: AUG-CC-PV(D+D)Z
    Blend: AUG-CC-PV(D+D)Z
    Number of shells: 24
    Number of basis function: 64
    Number of Cartesian functions: 70
    Spherical Harmonics?: true
    Max angular momentum: 2

  ==> DFT Potential <==

   => Composite Functional: WB97X-V <= 

    wB97X-V Hyb-GGA Exchange-Correlation Functional

    N. Mardirossian and M. Head-Gordon, Phys. Chem. Chem. Phys. 16, 9904 (2014)

    Deriv               =              1
    GGA                 =           TRUE
    Meta                =          FALSE

    Exchange Hybrid     =           TRUE
    MP2 Hybrid          =          FALSE

   => Exchange-Correlation Functionals <=

    1.0000   wB97X-V range-separated functional

   => Exact (HF) Exchange <=

    0.8330            HF,LR [omega = 0.3000]
    0.1670               HF 

   => VV10 Non-Local Parameters <=

    VV10 B              =     6.0000E+00
    VV10 C              =     1.0000E-02

   => Molecular Quadrature <=

    Radial Scheme          =       TREUTLER
    Pruning Scheme         =           FLAT
    Nuclear Scheme         =       TREUTLER

    BS radius alpha        =              1
    Pruning alpha          =              1
    Radial Points          =             75
    Spherical Points       =            302
    Total Points           =          44714
    Total Blocks           =            424
    Max Points             =            255
    Max Functions          =             64

   => Loading Basis Set <=

    Name: (AUG-CC-PV(D+D)Z AUX)
    Role: JKFIT
    Keyword: DF_BASIS_SCF
    atoms 1-2 entry CL         line   772 file /work/zw18965/.conda/envs/p4env/share/psi4/basis/aug-cc-pvdz-jkfit.gbs 

  ==> Pre-Iterations <==

   -------------------------------------------------------
    Irrep   Nso     Nmo     Nalpha   Nbeta   Ndocc  Nsocc
   -------------------------------------------------------
     Ag        15      15       0       0       0       0
     B1g        3       3       0       0       0       0
     B2g        7       7       0       0       0       0
     B3g        7       7       0       0       0       0
     Au         3       3       0       0       0       0
     B1u       15      15       0       0       0       0
     B2u        7       7       0       0       0       0
     B3u        7       7       0       0       0       0
   -------------------------------------------------------
    Total      64      64      17      17      17       0
   -------------------------------------------------------

  ==> Integral Setup <==

  ==> DiskDFJK: Density-Fitted J/K Matrices <==

    J tasked:                  Yes
    K tasked:                  Yes
    wK tasked:                 Yes
    Omega:               3.000E-01
    OpenMP threads:             24
    Integrals threads:          24
    Memory [MiB]:           102922
    Algorithm:                Core
    Integral Cache:           NONE
    Schwarz Cutoff:          1E-12
    Fitting Condition:       1E-10

   => Auxiliary Basis Set <=

  Basis Set: (AUG-CC-PV(D+D)Z AUX)
    Blend: AUG-CC-PVDZ-JKFIT
    Number of shells: 80
    Number of basis function: 256
    Number of Cartesian functions: 300
    Spherical Harmonics?: true
    Max angular momentum: 3

  Cached 100.0% of DFT collocation blocks in 0.073 [GiB].

  Minimum eigenvalue in the overlap matrix is 3.0418971277E-03.
  Using Symmetric Orthogonalization.

  SCF Guess: Superposition of Atomic Densities via on-the-fly atomic UHF.

  ==> Iterations <==

                           Total Energy        Delta E     RMS |[F,P]|

   @DF-RKS iter SAD:  -920.13796109717998   -9.20138e+02   0.00000e+00 
   @DF-RKS iter   1:  -920.22280779335495   -8.48467e-02   6.65044e-03 DIIS
   @DF-RKS iter   2:  -920.23360453119108   -1.07967e-02   3.99244e-03 DIIS
   @DF-RKS iter   3:  -920.23684686450895   -3.24233e-03   3.62021e-04 DIIS
   @DF-RKS iter   4:  -920.23692656292280   -7.96984e-05   1.20756e-04 DIIS
   @DF-RKS iter   5:  -920.23693491137578   -8.34845e-06   2.12850e-05 DIIS
   @DF-RKS iter   6:  -920.23693525314809   -3.41772e-07   2.41577e-06 DIIS
   @DF-RKS iter   7:  -920.23693525649151   -3.34342e-09   2.14871e-07 DIIS
   @DF-RKS iter   8:  -920.23693525652141   -2.98996e-11   2.72123e-08 DIIS
   @DF-RKS iter   9:  -920.23693525652163   -2.27374e-13   1.58168e-09 DIIS
  Energy and wave function converged.


  ==> Post-Iterations <==

    Orbital Energies [Eh]
    ---------------------

    Doubly Occupied:                                                      

       1B1u -101.591396     1Ag  -101.591396     2B1u   -9.617502  
       2Ag    -9.617427     3Ag    -7.376925     3B1u   -7.376785  
       1B2g   -7.360948     1B3g   -7.360948     1B3u   -7.360947  
       1B2u   -7.360947     4Ag    -1.073550     4B1u   -0.897626  
       5Ag    -0.577114     2B2u   -0.523825     2B3u   -0.523825  
       2B3g   -0.412314     2B2g   -0.412314  

    Virtual:                                                              

       5B1u   -0.038077     6B1u    0.102929     6Ag     0.111626  
       3B2u    0.126435     3B3u    0.126435     7Ag     0.138113  
       3B2g    0.158004     3B3g    0.158004     7B1u    0.276141  
       4B3u    0.311770     4B2u    0.311770     8Ag     0.325131  
       1B1g    0.325132     9Ag     0.430530     8B1u    0.449527  
       1Au     0.449527     4B2g    0.586186     4B3g    0.586186  
       9B1u    0.613900     5B3u    0.772331     5B2u    0.772331  
      10B1u    0.866342     5B2g    0.882283     5B3g    0.882283  
      10Ag     0.901990    11Ag     1.018414    12Ag     1.085565  
       2B1g    1.085571     6B3u    1.108980     6B2u    1.108980  
      11B1u    1.138566     2Au     1.138573    13Ag     1.173258  
       6B2g    1.187099     6B3g    1.187099    12B1u    1.242922  
      13B1u    1.705714    14Ag     5.406533     7B3u    5.461437  
       7B2u    5.461437     3B1g    5.504097    15Ag     5.504119  
       3Au     5.533082    14B1u    5.533103     7B2g    5.585205  
       7B3g    5.585205    15B1u    5.717328  

    Final Occupation by Irrep:
             Ag   B1g   B2g   B3g    Au   B1u   B2u   B3u 
    DOCC [     5,    0,    2,    2,    0,    4,    2,    2 ]

  @DF-RKS Final Energy:  -920.23693525652163

   => Energetics <=

    Nuclear Repulsion Energy =             76.5972368154087633
    One-Electron Energy =               -1422.4663340627928392
    Two-Electron Energy =                 468.2086478378818697
    DFT Exchange-Correlation Energy =     -42.7188445083051676
    Empirical Dispersion Energy =           0.0000000000000000
    VV10 Nonlocal Energy =                  0.1423586612858864
    Total Energy =                       -920.2369352565215195

Computation Completed


Properties will be evaluated at   0.000000,   0.000000,   0.000000 [a0]

Properties computed using the SCF density matrix

  Nuclear Dipole Moment: [e a0]
     X:     0.0000      Y:     0.0000      Z:     0.0000

  Electronic Dipole Moment: [e a0]
     X:     0.0000      Y:     0.0000      Z:     0.0000

  Dipole Moment: [e a0]
     X:     0.0000      Y:     0.0000      Z:     0.0000     Total:     0.0000

  Dipole Moment: [D]
     X:     0.0000      Y:     0.0000      Z:     0.0000     Total:     0.0000


*** tstop() called on bp1-compute00105.data.bp.acrc.priv at Tue Apr 27 17:50:38 2021
Module time:
	user time   =      43.00 seconds =       0.72 minutes
	system time =       1.64 seconds =       0.03 minutes
	total time  =          2 seconds =       0.03 minutes
Total time:
	user time   =      43.00 seconds =       0.72 minutes
	system time =       1.64 seconds =       0.03 minutes
	total time  =          2 seconds =       0.03 minutes

  //>>>>>>>>>>>>>>>>>>>>>>>>>>>>>>>>>>>//
  //    Loading displacement 2 of 3    //
  //<<<<<<<<<<<<<<<<<<<<<<<<<<<<<<<<<<<//

*** tstart() called on bp1-compute00105.data.bp.acrc.priv
*** at Tue Apr 27 17:50:38 2021

   => Loading Basis Set <=

    Name: AUG-CC-PV(D+D)Z
    Role: ORBITAL
    Keyword: BASIS
    atoms 1-2 entry CL         line   792 file /work/zw18965/.conda/envs/p4env/share/psi4/basis/aug-cc-pv_dpd_z.gbs 


         ---------------------------------------------------------
                                   SCF
               by Justin Turney, Rob Parrish, Andy Simmonett
                          and Daniel G. A. Smith
                              RKS Reference
                       24 Threads, 137329 MiB Core
         ---------------------------------------------------------

  ==> Geometry <==

    Molecular point group: d2h
    Full point group: D_inf_h

    Geometry (in Angstrom), charge = 0, multiplicity = 1:

       Center              X                  Y                   Z               Mass       
    ------------   -----------------  -----------------  -----------------  -----------------
         CL           0.000000000000     0.000000000000    -0.998604444681    34.968852682000
         CL           0.000000000000     0.000000000000     0.998604444681    34.968852682000

  Running in d2h symmetry.

  Rotational constants: A = ************  B =      0.24171  C =      0.24171 [cm^-1]
  Rotational constants: A = ************  B =   7246.34206  C =   7246.34206 [MHz]
  Nuclear repulsion =   76.572968755638541

  Charge       = 0
  Multiplicity = 1
  Electrons    = 34
  Nalpha       = 17
  Nbeta        = 17

  ==> Algorithm <==

  SCF Algorithm Type is DF.
  DIIS enabled.
  MOM disabled.
  Fractional occupation disabled.
  Guess Type is SAD.
  Energy threshold   = 1.00e-08
  Density threshold  = 1.00e-08
  Integral threshold = 0.00e+00

  ==> Primary Basis <==

  Basis Set: AUG-CC-PV(D+D)Z
    Blend: AUG-CC-PV(D+D)Z
    Number of shells: 24
    Number of basis function: 64
    Number of Cartesian functions: 70
    Spherical Harmonics?: true
    Max angular momentum: 2

  ==> DFT Potential <==

   => Composite Functional: WB97X-V <= 

    wB97X-V Hyb-GGA Exchange-Correlation Functional

    N. Mardirossian and M. Head-Gordon, Phys. Chem. Chem. Phys. 16, 9904 (2014)

    Deriv               =              1
    GGA                 =           TRUE
    Meta                =          FALSE

    Exchange Hybrid     =           TRUE
    MP2 Hybrid          =          FALSE

   => Exchange-Correlation Functionals <=

    1.0000   wB97X-V range-separated functional

   => Exact (HF) Exchange <=

    0.8330            HF,LR [omega = 0.3000]
    0.1670               HF 

   => VV10 Non-Local Parameters <=

    VV10 B              =     6.0000E+00
    VV10 C              =     1.0000E-02

   => Molecular Quadrature <=

    Radial Scheme          =       TREUTLER
    Pruning Scheme         =           FLAT
    Nuclear Scheme         =       TREUTLER

    BS radius alpha        =              1
    Pruning alpha          =              1
    Radial Points          =             75
    Spherical Points       =            302
    Total Points           =          44714
    Total Blocks           =            424
    Max Points             =            255
    Max Functions          =             64

   => Loading Basis Set <=

    Name: (AUG-CC-PV(D+D)Z AUX)
    Role: JKFIT
    Keyword: DF_BASIS_SCF
    atoms 1-2 entry CL         line   772 file /work/zw18965/.conda/envs/p4env/share/psi4/basis/aug-cc-pvdz-jkfit.gbs 

  ==> Pre-Iterations <==

   -------------------------------------------------------
    Irrep   Nso     Nmo     Nalpha   Nbeta   Ndocc  Nsocc
   -------------------------------------------------------
     Ag        15      15       0       0       0       0
     B1g        3       3       0       0       0       0
     B2g        7       7       0       0       0       0
     B3g        7       7       0       0       0       0
     Au         3       3       0       0       0       0
     B1u       15      15       0       0       0       0
     B2u        7       7       0       0       0       0
     B3u        7       7       0       0       0       0
   -------------------------------------------------------
    Total      64      64      17      17      17       0
   -------------------------------------------------------

  ==> Integral Setup <==

  ==> DiskDFJK: Density-Fitted J/K Matrices <==

    J tasked:                  Yes
    K tasked:                  Yes
    wK tasked:                 Yes
    Omega:               3.000E-01
    OpenMP threads:             24
    Integrals threads:          24
    Memory [MiB]:           102922
    Algorithm:                Core
    Integral Cache:           NONE
    Schwarz Cutoff:          1E-12
    Fitting Condition:       1E-10

   => Auxiliary Basis Set <=

  Basis Set: (AUG-CC-PV(D+D)Z AUX)
    Blend: AUG-CC-PVDZ-JKFIT
    Number of shells: 80
    Number of basis function: 256
    Number of Cartesian functions: 300
    Spherical Harmonics?: true
    Max angular momentum: 3

  Cached 100.0% of DFT collocation blocks in 0.073 [GiB].

  Minimum eigenvalue in the overlap matrix is 3.0480526331E-03.
  Using Symmetric Orthogonalization.

  SCF Guess: Superposition of Atomic Densities via on-the-fly atomic UHF.

  ==> Iterations <==

                           Total Energy        Delta E     RMS |[F,P]|

   @DF-RKS iter SAD:  -920.13716749048046   -9.20137e+02   0.00000e+00 
   @DF-RKS iter   1:  -920.22281933982413   -8.56518e-02   6.64741e-03 DIIS
   @DF-RKS iter   2:  -920.23360485933915   -1.07855e-02   3.99039e-03 DIIS
   @DF-RKS iter   3:  -920.23684446238724   -3.23960e-03   3.61868e-04 DIIS
   @DF-RKS iter   4:  -920.23692409748287   -7.96351e-05   1.20679e-04 DIIS
   @DF-RKS iter   5:  -920.23693243876278   -8.34128e-06   2.12756e-05 DIIS
   @DF-RKS iter   6:  -920.23693278030248   -3.41540e-07   2.41616e-06 DIIS
   @DF-RKS iter   7:  -920.23693278364465   -3.34217e-09   2.14755e-07 DIIS
   @DF-RKS iter   8:  -920.23693278367341   -2.87628e-11   2.72235e-08 DIIS
   @DF-RKS iter   9:  -920.23693278367364   -2.27374e-13   1.58113e-09 DIIS
  Energy and wave function converged.


  ==> Post-Iterations <==

    Orbital Energies [Eh]
    ---------------------

    Doubly Occupied:                                                      

       1B1u -101.591432     1Ag  -101.591431     2B1u   -9.617524  
       2Ag    -9.617449     3Ag    -7.376949     3B1u   -7.376810  
       1B3g   -7.360970     1B2g   -7.360970     1B2u   -7.360969  
       1B3u   -7.360969     4Ag    -1.073385     4B1u   -0.897694  
       5Ag    -0.577039     2B3u   -0.523748     2B2u   -0.523748  
       2B2g   -0.412372     2B3g   -0.412372  

    Virtual:                                                              

       5B1u   -0.038275     6B1u    0.102906     6Ag     0.111624  
       3B3u    0.126444     3B2u    0.126444     7Ag     0.138131  
       3B3g    0.157999     3B2g    0.157999     7B1u    0.276128  
       4B2u    0.311750     4B3u    0.311750     8Ag     0.325172  
       1B1g    0.325172     9Ag     0.430535     8B1u    0.449478  
       1Au     0.449478     4B2g    0.586071     4B3g    0.586071  
       9B1u    0.613725     5B2u    0.772318     5B3u    0.772318  
      10B1u    0.866499     5B3g    0.882242     5B2g    0.882242  
      10Ag     0.901914    11Ag     1.018295    12Ag     1.085567  
       2B1g    1.085573     6B2u    1.109090     6B3u    1.109090  
      11B1u    1.138557     2Au     1.138564    13Ag     1.173478  
       6B2g    1.187027     6B3g    1.187027    12B1u    1.242694  
      13B1u    1.705291    14Ag     5.406584     7B2u    5.461575  
       7B3u    5.461575     3B1g    5.504101    15Ag     5.504123  
       3Au     5.533050    14B1u    5.533071     7B3g    5.585018  
       7B2g    5.585018    15B1u    5.717046  

    Final Occupation by Irrep:
             Ag   B1g   B2g   B3g    Au   B1u   B2u   B3u 
    DOCC [     5,    0,    2,    2,    0,    4,    2,    2 ]

  @DF-RKS Final Energy:  -920.23693278367364

   => Energetics <=

    Nuclear Repulsion Energy =             76.5729687556385414
    One-Electron Energy =               -1422.4178294512771572
    Two-Electron Energy =                 468.1842138673270028
    DFT Exchange-Correlation Energy =     -42.7186458092575236
    Empirical Dispersion Energy =           0.0000000000000000
    VV10 Nonlocal Energy =                  0.1423598538954444
    Total Energy =                       -920.2369327836736375

Computation Completed


Properties will be evaluated at   0.000000,   0.000000,   0.000000 [a0]

Properties computed using the SCF density matrix

  Nuclear Dipole Moment: [e a0]
     X:     0.0000      Y:     0.0000      Z:     0.0000

  Electronic Dipole Moment: [e a0]
     X:     0.0000      Y:     0.0000      Z:     0.0000

  Dipole Moment: [e a0]
     X:     0.0000      Y:     0.0000      Z:     0.0000     Total:     0.0000

  Dipole Moment: [D]
     X:     0.0000      Y:     0.0000      Z:     0.0000     Total:     0.0000


*** tstop() called on bp1-compute00105.data.bp.acrc.priv at Tue Apr 27 17:50:40 2021
Module time:
	user time   =      44.64 seconds =       0.74 minutes
	system time =       2.18 seconds =       0.04 minutes
	total time  =          2 seconds =       0.03 minutes
Total time:
	user time   =      87.77 seconds =       1.46 minutes
	system time =       3.83 seconds =       0.06 minutes
	total time  =          4 seconds =       0.07 minutes

  //>>>>>>>>>>>>>>>>>>>>>>>>>>>>>>>>>>>//
  //    Loading displacement 3 of 3    //
  //<<<<<<<<<<<<<<<<<<<<<<<<<<<<<<<<<<<//

*** tstart() called on bp1-compute00105.data.bp.acrc.priv
*** at Tue Apr 27 17:50:40 2021

   => Loading Basis Set <=

    Name: AUG-CC-PV(D+D)Z
    Role: ORBITAL
    Keyword: BASIS
    atoms 1-2 entry CL         line   792 file /work/zw18965/.conda/envs/p4env/share/psi4/basis/aug-cc-pv_dpd_z.gbs 


         ---------------------------------------------------------
                                   SCF
               by Justin Turney, Rob Parrish, Andy Simmonett
                          and Daniel G. A. Smith
                              RKS Reference
                       24 Threads, 137329 MiB Core
         ---------------------------------------------------------

  ==> Geometry <==

    Molecular point group: d2h
    Full point group: D_inf_h

    Geometry (in Angstrom), charge = 0, multiplicity = 1:

       Center              X                  Y                   Z               Mass       
    ------------   -----------------  -----------------  -----------------  -----------------
         CL           0.000000000000     0.000000000000    -0.997971675319    34.968852682000
         CL           0.000000000000     0.000000000000     0.997971675319    34.968852682000

  Running in d2h symmetry.

  Rotational constants: A = ************  B =      0.24202  C =      0.24202 [cm^-1]
  Rotational constants: A = ************  B =   7255.53414  C =   7255.53414 [MHz]
  Nuclear repulsion =   76.621520262474121

  Charge       = 0
  Multiplicity = 1
  Electrons    = 34
  Nalpha       = 17
  Nbeta        = 17

  ==> Algorithm <==

  SCF Algorithm Type is DF.
  DIIS enabled.
  MOM disabled.
  Fractional occupation disabled.
  Guess Type is SAD.
  Energy threshold   = 1.00e-08
  Density threshold  = 1.00e-08
  Integral threshold = 0.00e+00

  ==> Primary Basis <==

  Basis Set: AUG-CC-PV(D+D)Z
    Blend: AUG-CC-PV(D+D)Z
    Number of shells: 24
    Number of basis function: 64
    Number of Cartesian functions: 70
    Spherical Harmonics?: true
    Max angular momentum: 2

  ==> DFT Potential <==

   => Composite Functional: WB97X-V <= 

    wB97X-V Hyb-GGA Exchange-Correlation Functional

    N. Mardirossian and M. Head-Gordon, Phys. Chem. Chem. Phys. 16, 9904 (2014)

    Deriv               =              1
    GGA                 =           TRUE
    Meta                =          FALSE

    Exchange Hybrid     =           TRUE
    MP2 Hybrid          =          FALSE

   => Exchange-Correlation Functionals <=

    1.0000   wB97X-V range-separated functional

   => Exact (HF) Exchange <=

    0.8330            HF,LR [omega = 0.3000]
    0.1670               HF 

   => VV10 Non-Local Parameters <=

    VV10 B              =     6.0000E+00
    VV10 C              =     1.0000E-02

   => Molecular Quadrature <=

    Radial Scheme          =       TREUTLER
    Pruning Scheme         =           FLAT
    Nuclear Scheme         =       TREUTLER

    BS radius alpha        =              1
    Pruning alpha          =              1
    Radial Points          =             75
    Spherical Points       =            302
    Total Points           =          44714
    Total Blocks           =            424
    Max Points             =            255
    Max Functions          =             64

   => Loading Basis Set <=

    Name: (AUG-CC-PV(D+D)Z AUX)
    Role: JKFIT
    Keyword: DF_BASIS_SCF
    atoms 1-2 entry CL         line   772 file /work/zw18965/.conda/envs/p4env/share/psi4/basis/aug-cc-pvdz-jkfit.gbs 

  ==> Pre-Iterations <==

   -------------------------------------------------------
    Irrep   Nso     Nmo     Nalpha   Nbeta   Ndocc  Nsocc
   -------------------------------------------------------
     Ag        15      15       0       0       0       0
     B1g        3       3       0       0       0       0
     B2g        7       7       0       0       0       0
     B3g        7       7       0       0       0       0
     Au         3       3       0       0       0       0
     B1u       15      15       0       0       0       0
     B2u        7       7       0       0       0       0
     B3u        7       7       0       0       0       0
   -------------------------------------------------------
    Total      64      64      17      17      17       0
   -------------------------------------------------------

  ==> Integral Setup <==

  ==> DiskDFJK: Density-Fitted J/K Matrices <==

    J tasked:                  Yes
    K tasked:                  Yes
    wK tasked:                 Yes
    Omega:               3.000E-01
    OpenMP threads:             24
    Integrals threads:          24
    Memory [MiB]:           102922
    Algorithm:                Core
    Integral Cache:           NONE
    Schwarz Cutoff:          1E-12
    Fitting Condition:       1E-10

   => Auxiliary Basis Set <=

  Basis Set: (AUG-CC-PV(D+D)Z AUX)
    Blend: AUG-CC-PVDZ-JKFIT
    Number of shells: 80
    Number of basis function: 256
    Number of Cartesian functions: 300
    Spherical Harmonics?: true
    Max angular momentum: 3

  Cached 100.0% of DFT collocation blocks in 0.073 [GiB].

  Minimum eigenvalue in the overlap matrix is 3.0357507528E-03.
  Using Symmetric Orthogonalization.

  SCF Guess: Superposition of Atomic Densities via on-the-fly atomic UHF.

  ==> Iterations <==

                           Total Energy        Delta E     RMS |[F,P]|

   @DF-RKS iter SAD:  -920.13881807625307   -9.20139e+02   0.00000e+00 
   @DF-RKS iter   1:  -920.22279463877919   -8.39766e-02   6.65352e-03 DIIS
   @DF-RKS iter   2:  -920.23360379046346   -1.08092e-02   3.99451e-03 DIIS
   @DF-RKS iter   3:  -920.23684892425797   -3.24513e-03   3.62219e-04 DIIS
   @DF-RKS iter   4:  -920.23692871265985   -7.97884e-05   1.20847e-04 DIIS
   @DF-RKS iter   5:  -920.23693707099517   -8.35834e-06   2.12970e-05 DIIS
   @DF-RKS iter   6:  -920.23693741305283   -3.42058e-07   2.41546e-06 DIIS
   @DF-RKS iter   7:  -920.23693741639875   -3.34592e-09   2.14995e-07 DIIS
   @DF-RKS iter   8:  -920.23693741642774   -2.89901e-11   2.72050e-08 DIIS
   @DF-RKS iter   9:  -920.23693741642865   -9.09495e-13   1.58256e-09 DIIS
  Energy and wave function converged.


  ==> Post-Iterations <==

    Orbital Energies [Eh]
    ---------------------

    Doubly Occupied:                                                      

       1B1u -101.591361     1Ag  -101.591360     2B1u   -9.617480  
       2Ag    -9.617405     3Ag    -7.376901     3B1u   -7.376760  
       1B3g   -7.360925     1B2g   -7.360925     1B2u   -7.360924  
       1B3u   -7.360924     4Ag    -1.073714     4B1u   -0.897558  
       5Ag    -0.577188     2B3u   -0.523903     2B2u   -0.523903  
       2B2g   -0.412257     2B3g   -0.412257  

    Virtual:                                                              

       5B1u   -0.037878     6B1u    0.102952     6Ag     0.111628  
       3B3u    0.126425     3B2u    0.126425     7Ag     0.138095  
       3B3g    0.158009     3B2g    0.158009     7B1u    0.276154  
       4B3u    0.311790     4B2u    0.311790     8Ag     0.325091  
       1B1g    0.325091     9Ag     0.430525     8B1u    0.449575  
       1Au     0.449576     4B3g    0.586300     4B2g    0.586300  
       9B1u    0.614075     5B3u    0.772344     5B2u    0.772344  
      10B1u    0.866185     5B3g    0.882325     5B2g    0.882325  
      10Ag     0.902066    11Ag     1.018534    12Ag     1.085563  
       2B1g    1.085569     6B2u    1.108871     6B3u    1.108871  
      11B1u    1.138576     2Au     1.138583    13Ag     1.173039  
       6B3g    1.187171     6B2g    1.187171    12B1u    1.243150  
      13B1u    1.706137    14Ag     5.406483     7B3u    5.461299  
       7B2u    5.461299     3B1g    5.504094    15Ag     5.504115  
       3Au     5.533114    14B1u    5.533135     7B3g    5.585391  
       7B2g    5.585391    15B1u    5.717609  

    Final Occupation by Irrep:
             Ag   B1g   B2g   B3g    Au   B1u   B2u   B3u 
    DOCC [     5,    0,    2,    2,    0,    4,    2,    2 ]

  @DF-RKS Final Energy:  -920.23693741642865

   => Energetics <=

    Nuclear Repulsion Energy =             76.6215202624741210
    One-Electron Energy =               -1422.5148684801072250
    Two-Electron Energy =                 468.2330967848949399
    DFT Exchange-Correlation Energy =     -42.7190434525441276
    Empirical Dispersion Energy =           0.0000000000000000
    VV10 Nonlocal Energy =                  0.1423574688536107
    Total Energy =                       -920.2369374164286455

Computation Completed


Properties will be evaluated at   0.000000,   0.000000,   0.000000 [a0]

Properties computed using the SCF density matrix

  Nuclear Dipole Moment: [e a0]
     X:     0.0000      Y:     0.0000      Z:     0.0000

  Electronic Dipole Moment: [e a0]
     X:     0.0000      Y:     0.0000      Z:     0.0000

  Dipole Moment: [e a0]
     X:     0.0000      Y:     0.0000      Z:     0.0000     Total:     0.0000

  Dipole Moment: [D]
     X:     0.0000      Y:     0.0000      Z:     0.0000     Total:     0.0000


*** tstop() called on bp1-compute00105.data.bp.acrc.priv at Tue Apr 27 17:50:42 2021
Module time:
	user time   =      41.98 seconds =       0.70 minutes
	system time =       1.57 seconds =       0.03 minutes
	total time  =          2 seconds =       0.03 minutes
Total time:
	user time   =     129.88 seconds =       2.16 minutes
	system time =       5.40 seconds =       0.09 minutes
	total time  =          6 seconds =       0.10 minutes

         ----------------------------------------------------------
                                   FINDIF
                     R. A. King and Jonathon Misiewicz
         ---------------------------------------------------------

  Computing gradient from energies.
    Using 3-point formula.
    Energy without displacement: -920.2369352565
    Check energies below for precision!
    Forces are for mass-weighted, symmetry-adapted cartesians (in au).

     Coord      Energy(-1)        Energy(+1)            Force
        0   -920.2369327837   -920.2369374164     -0.0004632755


-------------------------------------------------------------
  ## New Matrix (Symmetry 0) ##
  Irrep: 1 Size: 2 x 3

                 1                   2                   3

    1     0.00000000000000     0.00000000000000    -0.00193715792719
    2     0.00000000000000     0.00000000000000     0.00193715792719




			-----------------------------------------
			 OPTKING 2.0: for geometry optimizations 
			  - R.A. King,  Bethel University        
			-----------------------------------------
	At level 1: Red. Int., RFO, no backsteps, dynamic trust

	Internal coordinates to be generated automatically.
	Detected frag 1 with atoms:  1 2
	---Fragment 1 Bond Connectivity---
	 1 : 2
	 2 : 1

	---Fragment 1 Geometry and Gradient---
	 CL          0.0000000000        0.0000000000       -1.8864910277
	 CL          0.0000000000        0.0000000000        1.8864910277
	             0.0000000000        0.0000000000       -0.0019371579
	             0.0000000000        0.0000000000        0.0019371579

	Previous optimization step data not found.  Starting new optimization.

	---Fragment 1 Intrafragment Coordinates---
	 - Coordinate -           - BOHR/RAD -       - ANG/DEG -
	 R(1,2)           =         3.772982	       1.996576

	Current energy   :      -920.2369352565

	Generating empirical Hessian (Schlegel '84) for each fragment.
	Taking RFO optimization step.
	Going to follow RFO solution 1.
	Using RFO vector 1.
	Norm of target step-size    0.00554
	Projected energy change by RFO approximation:         0.0000046024

	Back-transformation to cartesian coordinates...
	Successfully converged to displaced geometry.

	--- Internal Coordinate Step in ANG or DEG, aJ/ANG or AJ/DEG ---
	 ---------------------------------------------------------------------------
	   Coordinate                Previous        Force       Change         New 
	   ----------                --------       ------       ------       ------
	    1 R(1,2)          =      1.996576    -0.015960    -0.002930     1.993646
	 ---------------------------------------------------------------------------
	Successfully symmetrized geometry.

  ==> Convergence Check <==

  Measures of convergence in internal coordinates in au.
  Criteria marked as inactive (o), active & met (*), and active & unmet ( ).
  --------------------------------------------------------------------------------------------- ~
   Step     Total Energy     Delta E     MAX Force     RMS Force      MAX Disp      RMS Disp    ~
  --------------------------------------------------------------------------------------------- ~
    Convergence Criteria    1.00e-06 *    3.00e-04 *             o    1.20e-03 *             o  ~
  --------------------------------------------------------------------------------------------- ~
      1    -920.23693526   -9.20e+02      1.94e-03      1.94e-03 o    5.54e-03      5.54e-03 o  ~
  ---------------------------------------------------------------------------------------------

	Writing optimization data to binary file.
	Structure for next step:
	Cartesian Geometry (in Angstrom)
	   CL     0.0000000000   0.0000000000  -0.9968230710
	   CL     0.0000000000   0.0000000000   0.9968230710
			--------------------------
			 OPTKING Finished Execution 
			--------------------------

    Structure for next step:
    Molecular point group: d2h
    Full point group: D_inf_h

    Geometry (in Angstrom), charge = 0, multiplicity = 1:

    CL           0.000000000000     0.000000000000    -0.996823074941
    CL           0.000000000000     0.000000000000     0.996823074941

gradient() will perform gradient computation by finite difference of analytic energies.

         ----------------------------------------------------------
                                   FINDIF
                     R. A. King and Jonathon Misiewicz
         ---------------------------------------------------------

  Using finite-differences of energies to determine gradients.
    Generating geometries for use with 3-point formula.
    Displacement size will be 5.00e-03.
    Number of atoms is 2.
    Number of symmetric SALCs is 1.
    Translations projected? 1. Rotations projected? 1.
    Number of geometries (including reference) is 3.

  //>>>>>>>>>>>>>>>>>>>>>>>>>>>>>>>>>>>//
  //    Loading displacement 1 of 3    //
  //<<<<<<<<<<<<<<<<<<<<<<<<<<<<<<<<<<<//

*** tstart() called on bp1-compute00105.data.bp.acrc.priv
*** at Tue Apr 27 17:50:42 2021

   => Loading Basis Set <=

    Name: AUG-CC-PV(D+D)Z
    Role: ORBITAL
    Keyword: BASIS
    atoms 1-2 entry CL         line   792 file /work/zw18965/.conda/envs/p4env/share/psi4/basis/aug-cc-pv_dpd_z.gbs 


         ---------------------------------------------------------
                                   SCF
               by Justin Turney, Rob Parrish, Andy Simmonett
                          and Daniel G. A. Smith
                              RKS Reference
                       24 Threads, 137329 MiB Core
         ---------------------------------------------------------

  ==> Geometry <==

    Molecular point group: d2h
    Full point group: D_inf_h

    Geometry (in Angstrom), charge = 0, multiplicity = 1:

       Center              X                  Y                   Z               Mass       
    ------------   -----------------  -----------------  -----------------  -----------------
         CL           0.000000000000     0.000000000000    -0.996823074941    34.968852682000
         CL           0.000000000000     0.000000000000     0.996823074941    34.968852682000

  Running in d2h symmetry.

  Rotational constants: A = ************  B =      0.24258  C =      0.24258 [cm^-1]
  Rotational constants: A = ************  B =   7272.26431  C =   7272.26431 [MHz]
  Nuclear repulsion =   76.709808253903191

  Charge       = 0
  Multiplicity = 1
  Electrons    = 34
  Nalpha       = 17
  Nbeta        = 17

  ==> Algorithm <==

  SCF Algorithm Type is DF.
  DIIS enabled.
  MOM disabled.
  Fractional occupation disabled.
  Guess Type is READ.
  Energy threshold   = 1.00e-08
  Density threshold  = 1.00e-08
  Integral threshold = 0.00e+00

  ==> Primary Basis <==

  Basis Set: AUG-CC-PV(D+D)Z
    Blend: AUG-CC-PV(D+D)Z
    Number of shells: 24
    Number of basis function: 64
    Number of Cartesian functions: 70
    Spherical Harmonics?: true
    Max angular momentum: 2

  ==> DFT Potential <==

   => Composite Functional: WB97X-V <= 

    wB97X-V Hyb-GGA Exchange-Correlation Functional

    N. Mardirossian and M. Head-Gordon, Phys. Chem. Chem. Phys. 16, 9904 (2014)

    Deriv               =              1
    GGA                 =           TRUE
    Meta                =          FALSE

    Exchange Hybrid     =           TRUE
    MP2 Hybrid          =          FALSE

   => Exchange-Correlation Functionals <=

    1.0000   wB97X-V range-separated functional

   => Exact (HF) Exchange <=

    0.8330            HF,LR [omega = 0.3000]
    0.1670               HF 

   => VV10 Non-Local Parameters <=

    VV10 B              =     6.0000E+00
    VV10 C              =     1.0000E-02

   => Molecular Quadrature <=

    Radial Scheme          =       TREUTLER
    Pruning Scheme         =           FLAT
    Nuclear Scheme         =       TREUTLER

    BS radius alpha        =              1
    Pruning alpha          =              1
    Radial Points          =             75
    Spherical Points       =            302
    Total Points           =          44714
    Total Blocks           =            424
    Max Points             =            253
    Max Functions          =             64

   => Loading Basis Set <=

    Name: (AUG-CC-PV(D+D)Z AUX)
    Role: JKFIT
    Keyword: DF_BASIS_SCF
    atoms 1-2 entry CL         line   772 file /work/zw18965/.conda/envs/p4env/share/psi4/basis/aug-cc-pvdz-jkfit.gbs 

   => Loading Basis Set <=

    Name: AUG-CC-PV(D+D)Z
    Role: ORBITAL
    Keyword: BASIS
    atoms 1-2 entry CL         line   792 file /work/zw18965/.conda/envs/p4env/share/psi4/basis/aug-cc-pv_dpd_z.gbs 

  Reading orbitals from file 180, no projection.

  ==> Pre-Iterations <==

   -------------------------------------------------------
    Irrep   Nso     Nmo     Nalpha   Nbeta   Ndocc  Nsocc
   -------------------------------------------------------
     Ag        15      15       0       0       0       0
     B1g        3       3       0       0       0       0
     B2g        7       7       0       0       0       0
     B3g        7       7       0       0       0       0
     Au         3       3       0       0       0       0
     B1u       15      15       0       0       0       0
     B2u        7       7       0       0       0       0
     B3u        7       7       0       0       0       0
   -------------------------------------------------------
    Total      64      64      17      17      17       0
   -------------------------------------------------------

  ==> Integral Setup <==

  ==> DiskDFJK: Density-Fitted J/K Matrices <==

    J tasked:                  Yes
    K tasked:                  Yes
    wK tasked:                 Yes
    Omega:               3.000E-01
    OpenMP threads:             24
    Integrals threads:          24
    Memory [MiB]:           102922
    Algorithm:                Core
    Integral Cache:           NONE
    Schwarz Cutoff:          1E-12
    Fitting Condition:       1E-10

   => Auxiliary Basis Set <=

  Basis Set: (AUG-CC-PV(D+D)Z AUX)
    Blend: AUG-CC-PVDZ-JKFIT
    Number of shells: 80
    Number of basis function: 256
    Number of Cartesian functions: 300
    Spherical Harmonics?: true
    Max angular momentum: 3

  Cached 100.0% of DFT collocation blocks in 0.073 [GiB].

  Minimum eigenvalue in the overlap matrix is 3.0135138425E-03.
  Using Symmetric Orthogonalization.

  SCF Guess: Orbitals guess was supplied from a previous computation.

  ==> Iterations <==

                           Total Energy        Delta E     RMS |[F,P]|

   @DF-RKS iter   0:  -920.23847873950922   -9.20238e+02   2.33487e-04 
   @DF-RKS iter   1:  -920.23694204389199    1.53670e-03   4.33629e-05 DIIS
   @DF-RKS iter   2:  -920.23694241371879   -3.69827e-07   2.99140e-05 DIIS
   @DF-RKS iter   3:  -920.23694260505533   -1.91337e-07   1.75515e-06 DIIS
   @DF-RKS iter   4:  -920.23694260677428   -1.71894e-09   4.11665e-07 DIIS
   @DF-RKS iter   5:  -920.23694260686739   -9.31095e-11   1.18467e-07 DIIS
   @DF-RKS iter   6:  -920.23694260687307   -5.68434e-12   6.77644e-09 DIIS
  Energy and wave function converged.


  ==> Post-Iterations <==

    Orbital Energies [Eh]
    ---------------------

    Doubly Occupied:                                                      

       1B1u -101.591232     1Ag  -101.591232     2B1u   -9.617400  
       2Ag    -9.617325     3Ag    -7.376813     3B1u   -7.376670  
       1B2g   -7.360843     1B3g   -7.360843     1B3u   -7.360842  
       1B2u   -7.360842     4Ag    -1.074313     4B1u   -0.897311  
       5Ag    -0.577457     2B2u   -0.524185     2B3u   -0.524185  
       2B3g   -0.412047     2B2g   -0.412047  

    Virtual:                                                              

       5B1u   -0.037155     6B1u    0.103036     6Ag     0.111634  
       3B2u    0.126392     3B3u    0.126392     7Ag     0.138031  
       3B3g    0.158026     3B2g    0.158026     7B1u    0.276201  
       4B2u    0.311863     4B3u    0.311863     8Ag     0.324944  
       1B1g    0.324944     9Ag     0.430506     8B1u    0.449753  
       1Au     0.449754     4B3g    0.586717     4B2g    0.586717  
       9B1u    0.614711     5B2u    0.772389     5B3u    0.772389  
      10B1u    0.865613     5B3g    0.882474     5B2g    0.882474  
      10Ag     0.902341    11Ag     1.018971    12Ag     1.085555  
       2B1g    1.085561     6B3u    1.108470     6B2u    1.108470  
      11B1u    1.138611     2Au     1.138618    13Ag     1.172243  
       6B2g    1.187434     6B3g    1.187434    12B1u    1.243981  
      13B1u    1.707675    14Ag     5.406311     7B2u    5.460796  
       7B3u    5.460796     3B1g    5.504079    15Ag     5.504100  
       3Au     5.533231    14B1u    5.533252     7B3g    5.586070  
       7B2g    5.586070    15B1u    5.718627  

    Final Occupation by Irrep:
             Ag   B1g   B2g   B3g    Au   B1u   B2u   B3u 
    DOCC [     5,    0,    2,    2,    0,    4,    2,    2 ]

  @DF-RKS Final Energy:  -920.23694260687307

   => Energetics <=

    Nuclear Repulsion Energy =             76.7098082539031907
    One-Electron Energy =               -1422.6913193498739929
    Two-Electron Energy =                 468.3219831524499455
    DFT Exchange-Correlation Energy =     -42.7197678047263878
    Empirical Dispersion Energy =           0.0000000000000000
    VV10 Nonlocal Energy =                  0.1423531413741264
    Total Energy =                       -920.2369426068730718

Computation Completed


Properties will be evaluated at   0.000000,   0.000000,   0.000000 [a0]

Properties computed using the SCF density matrix

  Nuclear Dipole Moment: [e a0]
     X:     0.0000      Y:     0.0000      Z:    -0.0000

  Electronic Dipole Moment: [e a0]
     X:     0.0000      Y:     0.0000      Z:     0.0000

  Dipole Moment: [e a0]
     X:     0.0000      Y:     0.0000      Z:    -0.0000     Total:     0.0000

  Dipole Moment: [D]
     X:     0.0000      Y:     0.0000      Z:    -0.0000     Total:     0.0000


*** tstop() called on bp1-compute00105.data.bp.acrc.priv at Tue Apr 27 17:50:44 2021
Module time:
	user time   =      33.70 seconds =       0.56 minutes
	system time =       1.28 seconds =       0.02 minutes
	total time  =          2 seconds =       0.03 minutes
Total time:
	user time   =     163.92 seconds =       2.73 minutes
	system time =       6.70 seconds =       0.11 minutes
	total time  =          8 seconds =       0.13 minutes

  //>>>>>>>>>>>>>>>>>>>>>>>>>>>>>>>>>>>//
  //    Loading displacement 2 of 3    //
  //<<<<<<<<<<<<<<<<<<<<<<<<<<<<<<<<<<<//

*** tstart() called on bp1-compute00105.data.bp.acrc.priv
*** at Tue Apr 27 17:50:44 2021

   => Loading Basis Set <=

    Name: AUG-CC-PV(D+D)Z
    Role: ORBITAL
    Keyword: BASIS
    atoms 1-2 entry CL         line   792 file /work/zw18965/.conda/envs/p4env/share/psi4/basis/aug-cc-pv_dpd_z.gbs 


         ---------------------------------------------------------
                                   SCF
               by Justin Turney, Rob Parrish, Andy Simmonett
                          and Daniel G. A. Smith
                              RKS Reference
                       24 Threads, 137329 MiB Core
         ---------------------------------------------------------

  ==> Geometry <==

    Molecular point group: d2h
    Full point group: D_inf_h

    Geometry (in Angstrom), charge = 0, multiplicity = 1:

       Center              X                  Y                   Z               Mass       
    ------------   -----------------  -----------------  -----------------  -----------------
         CL           0.000000000000     0.000000000000    -0.997139459623    34.968852682000
         CL           0.000000000000     0.000000000000     0.997139459623    34.968852682000

  Running in d2h symmetry.

  Rotational constants: A = ************  B =      0.24242  C =      0.24242 [cm^-1]
  Rotational constants: A = ************  B =   7267.65017  C =   7267.65017 [MHz]
  Nuclear repulsion =   76.685468821745744

  Charge       = 0
  Multiplicity = 1
  Electrons    = 34
  Nalpha       = 17
  Nbeta        = 17

  ==> Algorithm <==

  SCF Algorithm Type is DF.
  DIIS enabled.
  MOM disabled.
  Fractional occupation disabled.
  Guess Type is READ.
  Energy threshold   = 1.00e-08
  Density threshold  = 1.00e-08
  Integral threshold = 0.00e+00

  ==> Primary Basis <==

  Basis Set: AUG-CC-PV(D+D)Z
    Blend: AUG-CC-PV(D+D)Z
    Number of shells: 24
    Number of basis function: 64
    Number of Cartesian functions: 70
    Spherical Harmonics?: true
    Max angular momentum: 2

  ==> DFT Potential <==

   => Composite Functional: WB97X-V <= 

    wB97X-V Hyb-GGA Exchange-Correlation Functional

    N. Mardirossian and M. Head-Gordon, Phys. Chem. Chem. Phys. 16, 9904 (2014)

    Deriv               =              1
    GGA                 =           TRUE
    Meta                =          FALSE

    Exchange Hybrid     =           TRUE
    MP2 Hybrid          =          FALSE

   => Exchange-Correlation Functionals <=

    1.0000   wB97X-V range-separated functional

   => Exact (HF) Exchange <=

    0.8330            HF,LR [omega = 0.3000]
    0.1670               HF 

   => VV10 Non-Local Parameters <=

    VV10 B              =     6.0000E+00
    VV10 C              =     1.0000E-02

   => Molecular Quadrature <=

    Radial Scheme          =       TREUTLER
    Pruning Scheme         =           FLAT
    Nuclear Scheme         =       TREUTLER

    BS radius alpha        =              1
    Pruning alpha          =              1
    Radial Points          =             75
    Spherical Points       =            302
    Total Points           =          44714
    Total Blocks           =            424
    Max Points             =            255
    Max Functions          =             64

   => Loading Basis Set <=

    Name: (AUG-CC-PV(D+D)Z AUX)
    Role: JKFIT
    Keyword: DF_BASIS_SCF
    atoms 1-2 entry CL         line   772 file /work/zw18965/.conda/envs/p4env/share/psi4/basis/aug-cc-pvdz-jkfit.gbs 

   => Loading Basis Set <=

    Name: AUG-CC-PV(D+D)Z
    Role: ORBITAL
    Keyword: BASIS
    atoms 1-2 entry CL         line   792 file /work/zw18965/.conda/envs/p4env/share/psi4/basis/aug-cc-pv_dpd_z.gbs 

  Reading orbitals from file 180, no projection.

  ==> Pre-Iterations <==

   -------------------------------------------------------
    Irrep   Nso     Nmo     Nalpha   Nbeta   Ndocc  Nsocc
   -------------------------------------------------------
     Ag        15      15       0       0       0       0
     B1g        3       3       0       0       0       0
     B2g        7       7       0       0       0       0
     B3g        7       7       0       0       0       0
     Au         3       3       0       0       0       0
     B1u       15      15       0       0       0       0
     B2u        7       7       0       0       0       0
     B3u        7       7       0       0       0       0
   -------------------------------------------------------
    Total      64      64      17      17      17       0
   -------------------------------------------------------

  ==> Integral Setup <==

  ==> DiskDFJK: Density-Fitted J/K Matrices <==

    J tasked:                  Yes
    K tasked:                  Yes
    wK tasked:                 Yes
    Omega:               3.000E-01
    OpenMP threads:             24
    Integrals threads:          24
    Memory [MiB]:           102922
    Algorithm:                Core
    Integral Cache:           NONE
    Schwarz Cutoff:          1E-12
    Fitting Condition:       1E-10

   => Auxiliary Basis Set <=

  Basis Set: (AUG-CC-PV(D+D)Z AUX)
    Blend: AUG-CC-PVDZ-JKFIT
    Number of shells: 80
    Number of basis function: 256
    Number of Cartesian functions: 300
    Spherical Harmonics?: true
    Max angular momentum: 3

  Cached 100.0% of DFT collocation blocks in 0.073 [GiB].

  Minimum eigenvalue in the overlap matrix is 3.0196270188E-03.
  Using Symmetric Orthogonalization.

  SCF Guess: Orbitals guess was supplied from a previous computation.

  ==> Iterations <==

                           Total Energy        Delta E     RMS |[F,P]|

   @DF-RKS iter   0:  -920.23660976281326   -9.20237e+02   5.04815e-05 
   @DF-RKS iter   1:  -920.23694156693398   -3.31804e-04   9.37425e-06 DIIS
   @DF-RKS iter   2:  -920.23694158422632   -1.72923e-08   6.46414e-06 DIIS
   @DF-RKS iter   3:  -920.23694159315812   -8.93181e-09   3.79590e-07 DIIS
   @DF-RKS iter   4:  -920.23694159323793   -7.98082e-11   8.91963e-08 DIIS
   @DF-RKS iter   5:  -920.23694159324225   -4.32010e-12   2.56286e-08 DIIS
   @DF-RKS iter   6:  -920.23694159324282   -5.68434e-13   1.46565e-09 DIIS
  Energy and wave function converged.


  ==> Post-Iterations <==

    Orbital Energies [Eh]
    ---------------------

    Doubly Occupied:                                                      

       1B1u -101.591268     1Ag  -101.591267     2B1u   -9.617422  
       2Ag    -9.617347     3Ag    -7.376837     3B1u   -7.376695  
       1B2g   -7.360865     1B3g   -7.360865     1B3u   -7.360865  
       1B2u   -7.360865     4Ag    -1.074148     4B1u   -0.897380  
       5Ag    -0.577383     2B3u   -0.524107     2B2u   -0.524107  
       2B2g   -0.412105     2B3g   -0.412105  

    Virtual:                                                              

       5B1u   -0.037354     6B1u    0.103013     6Ag     0.111633  
       3B2u    0.126401     3B3u    0.126401     7Ag     0.138049  
       3B3g    0.158021     3B2g    0.158021     7B1u    0.276188  
       4B2u    0.311842     4B3u    0.311842     8Ag     0.324984  
       1B1g    0.324985     9Ag     0.430512     8B1u    0.449704  
       1Au     0.449705     4B3g    0.586602     4B2g    0.586602  
       9B1u    0.614535     5B3u    0.772377     5B2u    0.772377  
      10B1u    0.865771     5B3g    0.882433     5B2g    0.882433  
      10Ag     0.902266    11Ag     1.018850    12Ag     1.085557  
       2B1g    1.085563     6B3u    1.108581     6B2u    1.108581  
      11B1u    1.138601     2Au     1.138608    13Ag     1.172463  
       6B3g    1.187361     6B2g    1.187361    12B1u    1.243752  
      13B1u    1.707251    14Ag     5.406357     7B2u    5.460935  
       7B3u    5.460935     3B1g    5.504083    15Ag     5.504104  
       3Au     5.533199    14B1u    5.533220     7B3g    5.585883  
       7B2g    5.585883    15B1u    5.718347  

    Final Occupation by Irrep:
             Ag   B1g   B2g   B3g    Au   B1u   B2u   B3u 
    DOCC [     5,    0,    2,    2,    0,    4,    2,    2 ]

  @DF-RKS Final Energy:  -920.23694159324282

   => Energetics <=

    Nuclear Repulsion Energy =             76.6854688217457436
    One-Electron Energy =               -1422.6426753782727701
    Two-Electron Energy =                 468.2974785490163754
    DFT Exchange-Correlation Energy =     -42.7195679188511406
    Empirical Dispersion Energy =           0.0000000000000000
    VV10 Nonlocal Energy =                  0.1423543331190721
    Total Energy =                       -920.2369415932427046

Computation Completed


Properties will be evaluated at   0.000000,   0.000000,   0.000000 [a0]

Properties computed using the SCF density matrix

  Nuclear Dipole Moment: [e a0]
     X:     0.0000      Y:     0.0000      Z:     0.0000

  Electronic Dipole Moment: [e a0]
     X:     0.0000      Y:     0.0000      Z:     0.0000

  Dipole Moment: [e a0]
     X:     0.0000      Y:     0.0000      Z:     0.0000     Total:     0.0000

  Dipole Moment: [D]
     X:     0.0000      Y:     0.0000      Z:     0.0000     Total:     0.0000


*** tstop() called on bp1-compute00105.data.bp.acrc.priv at Tue Apr 27 17:50:45 2021
Module time:
	user time   =      34.96 seconds =       0.58 minutes
	system time =       1.39 seconds =       0.02 minutes
	total time  =          1 seconds =       0.02 minutes
Total time:
	user time   =     199.01 seconds =       3.32 minutes
	system time =       8.09 seconds =       0.13 minutes
	total time  =          9 seconds =       0.15 minutes

  //>>>>>>>>>>>>>>>>>>>>>>>>>>>>>>>>>>>//
  //    Loading displacement 3 of 3    //
  //<<<<<<<<<<<<<<<<<<<<<<<<<<<<<<<<<<<//

*** tstart() called on bp1-compute00105.data.bp.acrc.priv
*** at Tue Apr 27 17:50:45 2021

   => Loading Basis Set <=

    Name: AUG-CC-PV(D+D)Z
    Role: ORBITAL
    Keyword: BASIS
    atoms 1-2 entry CL         line   792 file /work/zw18965/.conda/envs/p4env/share/psi4/basis/aug-cc-pv_dpd_z.gbs 


         ---------------------------------------------------------
                                   SCF
               by Justin Turney, Rob Parrish, Andy Simmonett
                          and Daniel G. A. Smith
                              RKS Reference
                       24 Threads, 137329 MiB Core
         ---------------------------------------------------------

  ==> Geometry <==

    Molecular point group: d2h
    Full point group: D_inf_h

    Geometry (in Angstrom), charge = 0, multiplicity = 1:

       Center              X                  Y                   Z               Mass       
    ------------   -----------------  -----------------  -----------------  -----------------
         CL           0.000000000000     0.000000000000    -0.996506690260    34.968852682000
         CL           0.000000000000     0.000000000000     0.996506690260    34.968852682000

  Running in d2h symmetry.

  Rotational constants: A = ************  B =      0.24273  C =      0.24273 [cm^-1]
  Rotational constants: A = ************  B =   7276.88284  C =   7276.88284 [MHz]
  Nuclear repulsion =   76.734163141297557

  Charge       = 0
  Multiplicity = 1
  Electrons    = 34
  Nalpha       = 17
  Nbeta        = 17

  ==> Algorithm <==

  SCF Algorithm Type is DF.
  DIIS enabled.
  MOM disabled.
  Fractional occupation disabled.
  Guess Type is READ.
  Energy threshold   = 1.00e-08
  Density threshold  = 1.00e-08
  Integral threshold = 0.00e+00

  ==> Primary Basis <==

  Basis Set: AUG-CC-PV(D+D)Z
    Blend: AUG-CC-PV(D+D)Z
    Number of shells: 24
    Number of basis function: 64
    Number of Cartesian functions: 70
    Spherical Harmonics?: true
    Max angular momentum: 2

  ==> DFT Potential <==

   => Composite Functional: WB97X-V <= 

    wB97X-V Hyb-GGA Exchange-Correlation Functional

    N. Mardirossian and M. Head-Gordon, Phys. Chem. Chem. Phys. 16, 9904 (2014)

    Deriv               =              1
    GGA                 =           TRUE
    Meta                =          FALSE

    Exchange Hybrid     =           TRUE
    MP2 Hybrid          =          FALSE

   => Exchange-Correlation Functionals <=

    1.0000   wB97X-V range-separated functional

   => Exact (HF) Exchange <=

    0.8330            HF,LR [omega = 0.3000]
    0.1670               HF 

   => VV10 Non-Local Parameters <=

    VV10 B              =     6.0000E+00
    VV10 C              =     1.0000E-02

   => Molecular Quadrature <=

    Radial Scheme          =       TREUTLER
    Pruning Scheme         =           FLAT
    Nuclear Scheme         =       TREUTLER

    BS radius alpha        =              1
    Pruning alpha          =              1
    Radial Points          =             75
    Spherical Points       =            302
    Total Points           =          44714
    Total Blocks           =            424
    Max Points             =            253
    Max Functions          =             64

   => Loading Basis Set <=

    Name: (AUG-CC-PV(D+D)Z AUX)
    Role: JKFIT
    Keyword: DF_BASIS_SCF
    atoms 1-2 entry CL         line   772 file /work/zw18965/.conda/envs/p4env/share/psi4/basis/aug-cc-pvdz-jkfit.gbs 

   => Loading Basis Set <=

    Name: AUG-CC-PV(D+D)Z
    Role: ORBITAL
    Keyword: BASIS
    atoms 1-2 entry CL         line   792 file /work/zw18965/.conda/envs/p4env/share/psi4/basis/aug-cc-pv_dpd_z.gbs 

  Reading orbitals from file 180, no projection.

  ==> Pre-Iterations <==

   -------------------------------------------------------
    Irrep   Nso     Nmo     Nalpha   Nbeta   Ndocc  Nsocc
   -------------------------------------------------------
     Ag        15      15       0       0       0       0
     B1g        3       3       0       0       0       0
     B2g        7       7       0       0       0       0
     B3g        7       7       0       0       0       0
     Au         3       3       0       0       0       0
     B1u       15      15       0       0       0       0
     B2u        7       7       0       0       0       0
     B3u        7       7       0       0       0       0
   -------------------------------------------------------
    Total      64      64      17      17      17       0
   -------------------------------------------------------

  ==> Integral Setup <==

  ==> DiskDFJK: Density-Fitted J/K Matrices <==

    J tasked:                  Yes
    K tasked:                  Yes
    wK tasked:                 Yes
    Omega:               3.000E-01
    OpenMP threads:             24
    Integrals threads:          24
    Memory [MiB]:           102922
    Algorithm:                Core
    Integral Cache:           NONE
    Schwarz Cutoff:          1E-12
    Fitting Condition:       1E-10

   => Auxiliary Basis Set <=

  Basis Set: (AUG-CC-PV(D+D)Z AUX)
    Blend: AUG-CC-PVDZ-JKFIT
    Number of shells: 80
    Number of basis function: 256
    Number of Cartesian functions: 300
    Spherical Harmonics?: true
    Max angular momentum: 3

  Cached 100.0% of DFT collocation blocks in 0.073 [GiB].

  Minimum eigenvalue in the overlap matrix is 3.0074098247E-03.
  Using Symmetric Orthogonalization.

  SCF Guess: Orbitals guess was supplied from a previous computation.

  ==> Iterations <==

                           Total Energy        Delta E     RMS |[F,P]|

   @DF-RKS iter   0:  -920.23727581322123   -9.20237e+02   5.05509e-05 
   @DF-RKS iter   1:  -920.23694327674457    3.32536e-04   9.38051e-06 DIIS
   @DF-RKS iter   2:  -920.23694329406055   -1.73160e-08   6.46773e-06 DIIS
   @DF-RKS iter   3:  -920.23694330299975   -8.93920e-09   3.79981e-07 DIIS
   @DF-RKS iter   4:  -920.23694330308012   -8.03766e-11   8.92868e-08 DIIS
   @DF-RKS iter   5:  -920.23694330308444   -4.32010e-12   2.56385e-08 DIIS
   @DF-RKS iter   6:  -920.23694330308513   -6.82121e-13   1.46517e-09 DIIS
  Energy and wave function converged.


  ==> Post-Iterations <==

    Orbital Energies [Eh]
    ---------------------

    Doubly Occupied:                                                      

       1B1u -101.591197     1Ag  -101.591196     2B1u   -9.617377  
       2Ag    -9.617303     3Ag    -7.376788     3B1u   -7.376645  
       1B2g   -7.360820     1B3g   -7.360820     1B3u   -7.360819  
       1B2u   -7.360819     4Ag    -1.074478     4B1u   -0.897243  
       5Ag    -0.577532     2B2u   -0.524263     2B3u   -0.524263  
       2B3g   -0.411989     2B2g   -0.411989  

    Virtual:                                                              

       5B1u   -0.036956     6B1u    0.103059     6Ag     0.111636  
       3B3u    0.126382     3B2u    0.126382     7Ag     0.138014  
       3B3g    0.158031     3B2g    0.158031     7B1u    0.276214  
       4B3u    0.311883     4B2u    0.311883     8Ag     0.324903  
       1B1g    0.324904     9Ag     0.430501     8B1u    0.449802  
       1Au     0.449803     4B3g    0.586832     4B2g    0.586832  
       9B1u    0.614887     5B2u    0.772402     5B3u    0.772402  
      10B1u    0.865455     5B3g    0.882515     5B2g    0.882515  
      10Ag     0.902416    11Ag     1.019091    12Ag     1.085553  
       2B1g    1.085559     6B2u    1.108359     6B3u    1.108359  
      11B1u    1.138620     2Au     1.138627    13Ag     1.172024  
       6B3g    1.187507     6B2g    1.187507    12B1u    1.244211  
      13B1u    1.708099    14Ag     5.406266     7B3u    5.460658  
       7B2u    5.460658     3B1g    5.504075    15Ag     5.504096  
       3Au     5.533263    14B1u    5.533284     7B2g    5.586258  
       7B3g    5.586258    15B1u    5.718906  

    Final Occupation by Irrep:
             Ag   B1g   B2g   B3g    Au   B1u   B2u   B3u 
    DOCC [     5,    0,    2,    2,    0,    4,    2,    2 ]

  @DF-RKS Final Energy:  -920.23694330308513

   => Energetics <=

    Nuclear Repulsion Energy =             76.7341631412975573
    One-Electron Energy =               -1422.7399913893600569
    Two-Electron Energy =                 468.3465008509381846
    DFT Exchange-Correlation Energy =     -42.7199678557047093
    Empirical Dispersion Energy =           0.0000000000000000
    VV10 Nonlocal Energy =                  0.1423519497438020
    Total Energy =                       -920.2369433030852406

Computation Completed


Properties will be evaluated at   0.000000,   0.000000,   0.000000 [a0]

Properties computed using the SCF density matrix

  Nuclear Dipole Moment: [e a0]
     X:     0.0000      Y:     0.0000      Z:    -0.0000

  Electronic Dipole Moment: [e a0]
     X:     0.0000      Y:     0.0000      Z:     0.0000

  Dipole Moment: [e a0]
     X:     0.0000      Y:     0.0000      Z:    -0.0000     Total:     0.0000

  Dipole Moment: [D]
     X:     0.0000      Y:     0.0000      Z:    -0.0000     Total:     0.0000


*** tstop() called on bp1-compute00105.data.bp.acrc.priv at Tue Apr 27 17:50:47 2021
Module time:
	user time   =      32.96 seconds =       0.55 minutes
	system time =       1.24 seconds =       0.02 minutes
	total time  =          2 seconds =       0.03 minutes
Total time:
	user time   =     232.11 seconds =       3.87 minutes
	system time =       9.33 seconds =       0.16 minutes
	total time  =         11 seconds =       0.18 minutes

         ----------------------------------------------------------
                                   FINDIF
                     R. A. King and Jonathon Misiewicz
         ---------------------------------------------------------

  Computing gradient from energies.
    Using 3-point formula.
    Energy without displacement: -920.2369426069
    Check energies below for precision!
    Forces are for mass-weighted, symmetry-adapted cartesians (in au).

     Coord      Energy(-1)        Energy(+1)            Force
        0   -920.2369415932   -920.2369433031     -0.0001709842


-------------------------------------------------------------
  ## New Matrix (Symmetry 0) ##
  Irrep: 1 Size: 2 x 3

                 1                   2                   3

    1     0.00000000000000     0.00000000000000    -0.00071496001335
    2     0.00000000000000     0.00000000000000     0.00071496001335




			-----------------------------------------
			 OPTKING 2.0: for geometry optimizations 
			  - R.A. King,  Bethel University        
			-----------------------------------------
	At level 1: Red. Int., RFO, no backsteps, dynamic trust

	Previous internal coordinate definitions found.
	---Fragment 1 Geometry and Gradient---
	 CL          0.0000000000        0.0000000000       -1.8837226072
	 CL          0.0000000000        0.0000000000        1.8837226072
	             0.0000000000        0.0000000000       -0.0007149600
	             0.0000000000        0.0000000000        0.0007149600

	---Fragment 1 Intrafragment Coordinates---
	 - Coordinate -           - BOHR/RAD -       - ANG/DEG -
	 R(1,2)           =         3.767445	       1.993646

	Current energy   :      -920.2369426069

	Energy change for the previous step:
		Projected    :         0.0000046024
		Actual       :        -0.0000073504

	Performing BFGS update.
	Previous computed or guess Hessian on step 1.
	Steps to be used in Hessian update: 1
	Taking RFO optimization step.
	Going to follow RFO solution 1.
	Using RFO vector 1.
	Norm of target step-size    0.00324
	Projected energy change by RFO approximation:         0.0000029295

	Back-transformation to cartesian coordinates...
	Successfully converged to displaced geometry.

	--- Internal Coordinate Step in ANG or DEG, aJ/ANG or AJ/DEG ---
	 ---------------------------------------------------------------------------
	   Coordinate                Previous        Force       Change         New 
	   ----------                --------       ------       ------       ------
	    1 R(1,2)          =      1.993646    -0.005890    -0.001714     1.991932
	 ---------------------------------------------------------------------------
	Successfully symmetrized geometry.

  ==> Convergence Check <==

  Measures of convergence in internal coordinates in au.
  Criteria marked as inactive (o), active & met (*), and active & unmet ( ).
  ---------------------------------------------------------------------------------------------
   Step     Total Energy     Delta E     MAX Force     RMS Force      MAX Disp      RMS Disp   
  ---------------------------------------------------------------------------------------------
    Convergence Criteria    1.00e-06 *    3.00e-04 *             o    1.20e-03 *             o
  ---------------------------------------------------------------------------------------------
      2    -920.23694261   -7.35e-06      7.15e-04      7.15e-04 o    3.24e-03      3.24e-03 o  ~
  ---------------------------------------------------------------------------------------------

	Writing optimization data to binary file.
	Structure for next step:
	Cartesian Geometry (in Angstrom)
	   CL     0.0000000000   0.0000000000  -0.9959660946
	   CL     0.0000000000   0.0000000000   0.9959660946
			--------------------------
			 OPTKING Finished Execution 
			--------------------------

    Structure for next step:
    Molecular point group: d2h
    Full point group: D_inf_h

    Geometry (in Angstrom), charge = 0, multiplicity = 1:

    CL           0.000000000000     0.000000000000    -0.995966098557
    CL           0.000000000000     0.000000000000     0.995966098557

gradient() will perform gradient computation by finite difference of analytic energies.

         ----------------------------------------------------------
                                   FINDIF
                     R. A. King and Jonathon Misiewicz
         ---------------------------------------------------------

  Using finite-differences of energies to determine gradients.
    Generating geometries for use with 3-point formula.
    Displacement size will be 5.00e-03.
    Number of atoms is 2.
    Number of symmetric SALCs is 1.
    Translations projected? 1. Rotations projected? 1.
    Number of geometries (including reference) is 3.

  //>>>>>>>>>>>>>>>>>>>>>>>>>>>>>>>>>>>//
  //    Loading displacement 1 of 3    //
  //<<<<<<<<<<<<<<<<<<<<<<<<<<<<<<<<<<<//

*** tstart() called on bp1-compute00105.data.bp.acrc.priv
*** at Tue Apr 27 17:50:47 2021

   => Loading Basis Set <=

    Name: AUG-CC-PV(D+D)Z
    Role: ORBITAL
    Keyword: BASIS
    atoms 1-2 entry CL         line   792 file /work/zw18965/.conda/envs/p4env/share/psi4/basis/aug-cc-pv_dpd_z.gbs 


         ---------------------------------------------------------
                                   SCF
               by Justin Turney, Rob Parrish, Andy Simmonett
                          and Daniel G. A. Smith
                              RKS Reference
                       24 Threads, 137329 MiB Core
         ---------------------------------------------------------

  ==> Geometry <==

    Molecular point group: d2h
    Full point group: D_inf_h

    Geometry (in Angstrom), charge = 0, multiplicity = 1:

       Center              X                  Y                   Z               Mass       
    ------------   -----------------  -----------------  -----------------  -----------------
         CL           0.000000000000     0.000000000000    -0.995966098557    34.968852682000
         CL           0.000000000000     0.000000000000     0.995966098557    34.968852682000

  Running in d2h symmetry.

  Rotational constants: A = ************  B =      0.24299  C =      0.24299 [cm^-1]
  Rotational constants: A = ************  B =   7284.78449  C =   7284.78449 [MHz]
  Nuclear repulsion =   76.775813004693873

  Charge       = 0
  Multiplicity = 1
  Electrons    = 34
  Nalpha       = 17
  Nbeta        = 17

  ==> Algorithm <==

  SCF Algorithm Type is DF.
  DIIS enabled.
  MOM disabled.
  Fractional occupation disabled.
  Guess Type is READ.
  Energy threshold   = 1.00e-08
  Density threshold  = 1.00e-08
  Integral threshold = 0.00e+00

  ==> Primary Basis <==

  Basis Set: AUG-CC-PV(D+D)Z
    Blend: AUG-CC-PV(D+D)Z
    Number of shells: 24
    Number of basis function: 64
    Number of Cartesian functions: 70
    Spherical Harmonics?: true
    Max angular momentum: 2

  ==> DFT Potential <==

   => Composite Functional: WB97X-V <= 

    wB97X-V Hyb-GGA Exchange-Correlation Functional

    N. Mardirossian and M. Head-Gordon, Phys. Chem. Chem. Phys. 16, 9904 (2014)

    Deriv               =              1
    GGA                 =           TRUE
    Meta                =          FALSE

    Exchange Hybrid     =           TRUE
    MP2 Hybrid          =          FALSE

   => Exchange-Correlation Functionals <=

    1.0000   wB97X-V range-separated functional

   => Exact (HF) Exchange <=

    0.8330            HF,LR [omega = 0.3000]
    0.1670               HF 

   => VV10 Non-Local Parameters <=

    VV10 B              =     6.0000E+00
    VV10 C              =     1.0000E-02

   => Molecular Quadrature <=

    Radial Scheme          =       TREUTLER
    Pruning Scheme         =           FLAT
    Nuclear Scheme         =       TREUTLER

    BS radius alpha        =              1
    Pruning alpha          =              1
    Radial Points          =             75
    Spherical Points       =            302
    Total Points           =          44714
    Total Blocks           =            424
    Max Points             =            253
    Max Functions          =             64

   => Loading Basis Set <=

    Name: (AUG-CC-PV(D+D)Z AUX)
    Role: JKFIT
    Keyword: DF_BASIS_SCF
    atoms 1-2 entry CL         line   772 file /work/zw18965/.conda/envs/p4env/share/psi4/basis/aug-cc-pvdz-jkfit.gbs 

   => Loading Basis Set <=

    Name: AUG-CC-PV(D+D)Z
    Role: ORBITAL
    Keyword: BASIS
    atoms 1-2 entry CL         line   792 file /work/zw18965/.conda/envs/p4env/share/psi4/basis/aug-cc-pv_dpd_z.gbs 

  Reading orbitals from file 180, no projection.

  ==> Pre-Iterations <==

   -------------------------------------------------------
    Irrep   Nso     Nmo     Nalpha   Nbeta   Ndocc  Nsocc
   -------------------------------------------------------
     Ag        15      15       0       0       0       0
     B1g        3       3       0       0       0       0
     B2g        7       7       0       0       0       0
     B3g        7       7       0       0       0       0
     Au         3       3       0       0       0       0
     B1u       15      15       0       0       0       0
     B2u        7       7       0       0       0       0
     B3u        7       7       0       0       0       0
   -------------------------------------------------------
    Total      64      64      17      17      17       0
   -------------------------------------------------------

  ==> Integral Setup <==

  ==> DiskDFJK: Density-Fitted J/K Matrices <==

    J tasked:                  Yes
    K tasked:                  Yes
    wK tasked:                 Yes
    Omega:               3.000E-01
    OpenMP threads:             24
    Integrals threads:          24
    Memory [MiB]:           102922
    Algorithm:                Core
    Integral Cache:           NONE
    Schwarz Cutoff:          1E-12
    Fitting Condition:       1E-10

   => Auxiliary Basis Set <=

  Basis Set: (AUG-CC-PV(D+D)Z AUX)
    Blend: AUG-CC-PVDZ-JKFIT
    Number of shells: 80
    Number of basis function: 256
    Number of Cartesian functions: 300
    Spherical Harmonics?: true
    Max angular momentum: 3

  Cached 100.0% of DFT collocation blocks in 0.073 [GiB].

  Minimum eigenvalue in the overlap matrix is 2.9970013845E-03.
  Using Symmetric Orthogonalization.

  SCF Guess: Orbitals guess was supplied from a previous computation.

  ==> Iterations <==

                           Total Energy        Delta E     RMS |[F,P]|

   @DF-RKS iter   0:  -920.23784598452357   -9.20238e+02   1.37086e-04 
   @DF-RKS iter   1:  -920.23694356051624    9.02424e-04   2.54231e-05 DIIS
   @DF-RKS iter   2:  -920.23694368771498   -1.27199e-07   1.75273e-05 DIIS
   @DF-RKS iter   3:  -920.23694375335231   -6.56373e-08   1.03014e-06 DIIS
   @DF-RKS iter   4:  -920.23694375394234   -5.90035e-10   2.42047e-07 DIIS
   @DF-RKS iter   5:  -920.23694375397531   -3.29692e-11   6.94658e-08 DIIS
   @DF-RKS iter   6:  -920.23694375397656   -1.25056e-12   3.96748e-09 DIIS
  Energy and wave function converged.


  ==> Post-Iterations <==

    Orbital Energies [Eh]
    ---------------------

    Doubly Occupied:                                                      

       1B1u -101.591136     1Ag  -101.591135     2B1u   -9.617340  
       2Ag    -9.617265     3Ag    -7.376747     3B1u   -7.376602  
       1B2g   -7.360781     1B3g   -7.360781     1B2u   -7.360781  
       1B3u   -7.360781     4Ag    -1.074761     4B1u   -0.897127  
       5Ag    -0.577658     2B3u   -0.524396     2B2u   -0.524396  
       2B2g   -0.411890     2B3g   -0.411890  

    Virtual:                                                              

       5B1u   -0.036615     6B1u    0.103099     6Ag     0.111639  
       3B3u    0.126366     3B2u    0.126366     7Ag     0.137984  
       3B3g    0.158039     3B2g    0.158039     7B1u    0.276236  
       4B2u    0.311917     4B3u    0.311917     8Ag     0.324834  
       1B1g    0.324834     9Ag     0.430491     8B1u    0.449886  
       1Au     0.449887     4B3g    0.587029     4B2g    0.587029  
       9B1u    0.615188     5B3u    0.772423     5B2u    0.772423  
      10B1u    0.865186     5B2g    0.882584     5B3g    0.882584  
      10Ag     0.902544    11Ag     1.019298    12Ag     1.085549  
       2B1g    1.085555     6B2u    1.108169     6B3u    1.108169  
      11B1u    1.138637     2Au     1.138644    13Ag     1.171650  
       6B3g    1.187632     6B2g    1.187632    12B1u    1.244605  
      13B1u    1.708825    14Ag     5.406192     7B2u    5.460420  
       7B3u    5.460420     3B1g    5.504068    15Ag     5.504088  
       3Au     5.533319    14B1u    5.533340     7B3g    5.586579  
       7B2g    5.586579    15B1u    5.719382  

    Final Occupation by Irrep:
             Ag   B1g   B2g   B3g    Au   B1u   B2u   B3u 
    DOCC [     5,    0,    2,    2,    0,    4,    2,    2 ]

  @DF-RKS Final Energy:  -920.23694375397656

   => Energetics <=

    Nuclear Repulsion Energy =             76.7758130046938732
    One-Electron Energy =               -1422.8232259403216631
    Two-Electron Energy =                 468.3884295812494543
    DFT Exchange-Correlation Energy =     -42.7203103137316447
    Empirical Dispersion Energy =           0.0000000000000000
    VV10 Nonlocal Energy =                  0.1423499141334885
    Total Energy =                       -920.2369437539764476

Computation Completed


Properties will be evaluated at   0.000000,   0.000000,   0.000000 [a0]

Properties computed using the SCF density matrix

  Nuclear Dipole Moment: [e a0]
     X:     0.0000      Y:     0.0000      Z:     0.0000

  Electronic Dipole Moment: [e a0]
     X:     0.0000      Y:     0.0000      Z:     0.0000

  Dipole Moment: [e a0]
     X:     0.0000      Y:     0.0000      Z:     0.0000     Total:     0.0000

  Dipole Moment: [D]
     X:     0.0000      Y:     0.0000      Z:     0.0000     Total:     0.0000


*** tstop() called on bp1-compute00105.data.bp.acrc.priv at Tue Apr 27 17:50:48 2021
Module time:
	user time   =      34.01 seconds =       0.57 minutes
	system time =       1.30 seconds =       0.02 minutes
	total time  =          1 seconds =       0.02 minutes
Total time:
	user time   =     266.42 seconds =       4.44 minutes
	system time =      10.64 seconds =       0.18 minutes
	total time  =         12 seconds =       0.20 minutes

  //>>>>>>>>>>>>>>>>>>>>>>>>>>>>>>>>>>>//
  //    Loading displacement 2 of 3    //
  //<<<<<<<<<<<<<<<<<<<<<<<<<<<<<<<<<<<//

*** tstart() called on bp1-compute00105.data.bp.acrc.priv
*** at Tue Apr 27 17:50:48 2021

   => Loading Basis Set <=

    Name: AUG-CC-PV(D+D)Z
    Role: ORBITAL
    Keyword: BASIS
    atoms 1-2 entry CL         line   792 file /work/zw18965/.conda/envs/p4env/share/psi4/basis/aug-cc-pv_dpd_z.gbs 


         ---------------------------------------------------------
                                   SCF
               by Justin Turney, Rob Parrish, Andy Simmonett
                          and Daniel G. A. Smith
                              RKS Reference
[...]

       1B1u -101.591172     1Ag  -101.591171     2B1u   -9.617362  
       2Ag    -9.617287     3Ag    -7.376771     3B1u   -7.376627  
       1B3g   -7.360804     1B2g   -7.360804     1B2u   -7.360803  
       1B3u   -7.360803     4Ag    -1.074596     4B1u   -0.897195  
       5Ag    -0.577584     2B2u   -0.524318     2B3u   -0.524318  
       2B3g   -0.411948     2B2g   -0.411948  

    Virtual:                                                              

       5B1u   -0.036814     6B1u    0.103076     6Ag     0.111637  
       3B3u    0.126376     3B2u    0.126376     7Ag     0.138001  
       3B3g    0.158035     3B2g    0.158035     7B1u    0.276223  
       4B2u    0.311897     4B3u    0.311897     8Ag     0.324875  
       1B1g    0.324875     9Ag     0.430497     8B1u    0.449837  
       1Au     0.449838     4B2g    0.586914     4B3g    0.586914  
       9B1u    0.615012     5B3u    0.772411     5B2u    0.772411  
      10B1u    0.865344     5B2g    0.882544     5B3g    0.882544  
      10Ag     0.902469    11Ag     1.019177    12Ag     1.085551  
       2B1g    1.085557     6B2u    1.108281     6B3u    1.108281  
      11B1u    1.138627     2Au     1.138634    13Ag     1.171869  
       6B2g    1.187559     6B3g    1.187559    12B1u    1.244374  
      13B1u    1.708400    14Ag     5.406235     7B2u    5.460559  
       7B3u    5.460559     3B1g    5.504072    15Ag     5.504093  
       3Au     5.533287    14B1u    5.533307     7B2g    5.586391  
       7B3g    5.586391    15B1u    5.719103  

    Final Occupation by Irrep:
             Ag   B1g   B2g   B3g    Au   B1u   B2u   B3u 
    DOCC [     5,    0,    2,    2,    0,    4,    2,    2 ]

  @DF-RKS Final Energy:  -920.23694360313073

   => Energetics <=

    Nuclear Repulsion Energy =             76.7514316755731585
    One-Electron Energy =               -1422.7745014369481851
    Two-Electron Energy =                 468.3638848385566575
    DFT Exchange-Correlation Energy =     -42.7201097857240626
    Empirical Dispersion Energy =           0.0000000000000000
    VV10 Nonlocal Energy =                  0.1423511054115802
    Total Energy =                       -920.2369436031307259

Computation Completed


Properties will be evaluated at   0.000000,   0.000000,   0.000000 [a0]

Properties computed using the SCF density matrix

  Nuclear Dipole Moment: [e a0]
     X:     0.0000      Y:     0.0000      Z:     0.0000

  Electronic Dipole Moment: [e a0]
     X:     0.0000      Y:     0.0000      Z:     0.0000

  Dipole Moment: [e a0]
     X:     0.0000      Y:     0.0000      Z:     0.0000     Total:     0.0000

  Dipole Moment: [D]
     X:     0.0000      Y:     0.0000      Z:     0.0000     Total:     0.0000


*** tstop() called on bp1-compute00105.data.bp.acrc.priv at Tue Apr 27 17:51:01 2021
Module time:
	user time   =      47.22 seconds =       0.79 minutes
	system time =       1.96 seconds =       0.03 minutes
	total time  =          2 seconds =       0.03 minutes
Total time:
	user time   =     556.59 seconds =       9.28 minutes
	system time =      21.68 seconds =       0.36 minutes
	total time  =         25 seconds =       0.42 minutes

  //>>>>>>>>>>>>>>>>>>>>>>>>>>>>>>>>>>>//
  //    Loading displacement 3 of 3    //
  //<<<<<<<<<<<<<<<<<<<<<<<<<<<<<<<<<<<//

*** tstart() called on bp1-compute00105.data.bp.acrc.priv
*** at Tue Apr 27 17:51:01 2021

   => Loading Basis Set <=

    Name: AUG-CC-PV(D+D)Z
    Role: ORBITAL
    Keyword: BASIS
    atoms 1-2 entry CL         line   792 file /work/zw18965/.conda/envs/p4env/share/psi4/basis/aug-cc-pv_dpd_z.gbs 


         ---------------------------------------------------------
                                   SCF
               by Justin Turney, Rob Parrish, Andy Simmonett
                          and Daniel G. A. Smith
                              RKS Reference
                       24 Threads, 137329 MiB Core
         ---------------------------------------------------------

  ==> Geometry <==

    Molecular point group: d2h
    Full point group: D_inf_h

    Geometry (in Angstrom), charge = 0, multiplicity = 1:

       Center              X                  Y                   Z               Mass       
    ------------   -----------------  -----------------  -----------------  -----------------
         CL           0.000000000000     0.000000000000    -0.995649713876    34.968852682000
         CL           0.000000000000     0.000000000000     0.995649713876    34.968852682000

  Running in d2h symmetry.

  Rotational constants: A = ************  B =      0.24315  C =      0.24315 [cm^-1]
  Rotational constants: A = ************  B =   7289.41496  C =   7289.41496 [MHz]
  Nuclear repulsion =   76.800209828981139

  Charge       = 0
  Multiplicity = 1
  Electrons    = 34
  Nalpha       = 17
  Nbeta        = 17

  ==> Algorithm <==

  SCF Algorithm Type is DF.
  DIIS enabled.
  MOM disabled.
  Fractional occupation disabled.
  Guess Type is SAD.
  Energy threshold   = 1.00e-10
  Density threshold  = 1.00e-10
  Integral threshold = 0.00e+00

  ==> Primary Basis <==

  Basis Set: AUG-CC-PV(D+D)Z
    Blend: AUG-CC-PV(D+D)Z
    Number of shells: 24
    Number of basis function: 64
    Number of Cartesian functions: 70
    Spherical Harmonics?: true
    Max angular momentum: 2

  ==> DFT Potential <==

   => Composite Functional: WB97X-V <= 

    wB97X-V Hyb-GGA Exchange-Correlation Functional

    N. Mardirossian and M. Head-Gordon, Phys. Chem. Chem. Phys. 16, 9904 (2014)

    Deriv               =              1
    GGA                 =           TRUE
    Meta                =          FALSE

    Exchange Hybrid     =           TRUE
    MP2 Hybrid          =          FALSE

   => Exchange-Correlation Functionals <=

    1.0000   wB97X-V range-separated functional

   => Exact (HF) Exchange <=

    0.8330            HF,LR [omega = 0.3000]
    0.1670               HF 

   => VV10 Non-Local Parameters <=

    VV10 B              =     6.0000E+00
    VV10 C              =     1.0000E-02

   => Molecular Quadrature <=

    Radial Scheme          =       TREUTLER
    Pruning Scheme         =           FLAT
    Nuclear Scheme         =       TREUTLER

    BS radius alpha        =              1
    Pruning alpha          =              1
    Radial Points          =             75
    Spherical Points       =            302
    Total Points           =          44714
    Total Blocks           =            424
    Max Points             =            253
    Max Functions          =             64

   => Loading Basis Set <=

    Name: (AUG-CC-PV(D+D)Z AUX)
    Role: JKFIT
    Keyword: DF_BASIS_SCF
    atoms 1-2 entry CL         line   772 file /work/zw18965/.conda/envs/p4env/share/psi4/basis/aug-cc-pvdz-jkfit.gbs 

  ==> Pre-Iterations <==

   -------------------------------------------------------
    Irrep   Nso     Nmo     Nalpha   Nbeta   Ndocc  Nsocc
   -------------------------------------------------------
     Ag        15      15       0       0       0       0
     B1g        3       3       0       0       0       0
     B2g        7       7       0       0       0       0
     B3g        7       7       0       0       0       0
     Au         3       3       0       0       0       0
     B1u       15      15       0       0       0       0
     B2u        7       7       0       0       0       0
     B3u        7       7       0       0       0       0
   -------------------------------------------------------
    Total      64      64      17      17      17       0
   -------------------------------------------------------

  ==> Integral Setup <==

  ==> DiskDFJK: Density-Fitted J/K Matrices <==

    J tasked:                  Yes
    K tasked:                  Yes
    wK tasked:                 Yes
    Omega:               3.000E-01
    OpenMP threads:             24
    Integrals threads:          24
    Memory [MiB]:           102922
    Algorithm:                Core
    Integral Cache:           NONE
    Schwarz Cutoff:          1E-12
    Fitting Condition:       1E-10

   => Auxiliary Basis Set <=

  Basis Set: (AUG-CC-PV(D+D)Z AUX)
    Blend: AUG-CC-PVDZ-JKFIT
    Number of shells: 80
    Number of basis function: 256
    Number of Cartesian functions: 300
    Spherical Harmonics?: true
    Max angular momentum: 3

  Cached 100.0% of DFT collocation blocks in 0.073 [GiB].

  Minimum eigenvalue in the overlap matrix is 2.9909222021E-03.
  Using Symmetric Orthogonalization.

  SCF Guess: Superposition of Atomic Densities via on-the-fly atomic UHF.

  ==> Iterations <==

                           Total Energy        Delta E     RMS |[F,P]|

   @DF-RKS iter SAD:  -920.14485517880473   -9.20145e+02   0.00000e+00 
   @DF-RKS iter   1:  -920.22269418834185   -7.78390e-02   6.67587e-03 DIIS
   @DF-RKS iter   2:  -920.23358925497109   -1.08951e-02   4.00952e-03 DIIS
   @DF-RKS iter   3:  -920.23685449178333   -3.26524e-03   3.63477e-04 DIIS
   @DF-RKS iter   4:  -920.23693481858834   -8.03268e-05   1.21452e-04 DIIS
   @DF-RKS iter   5:  -920.23694323707934   -8.41849e-06   2.13733e-05 DIIS
   @DF-RKS iter   6:  -920.23694358099556   -3.43916e-07   2.41290e-06 DIIS
   @DF-RKS iter   7:  -920.23694358435421   -3.35865e-09   2.15862e-07 DIIS
   @DF-RKS iter   8:  -920.23694358438308   -2.88765e-11   2.71361e-08 DIIS
   @DF-RKS iter   9:  -920.23694358438445   -1.36424e-12   1.58791e-09 DIIS
   @DF-RKS iter  10:  -920.23694358438411    3.41061e-13   1.43572e-10 DIIS
   @DF-RKS iter  11:  -920.23694358438411    0.00000e+00   1.32518e-11 DIIS
  Energy and wave function converged.


  ==> Post-Iterations <==

    Orbital Energies [Eh]
    ---------------------

    Doubly Occupied:                                                      

       1B1u -101.591101     1Ag  -101.591100     2B1u   -9.617318  
       2Ag    -9.617243     3Ag    -7.376723     3B1u   -7.376577  
       1B3g   -7.360759     1B2g   -7.360759     1B2u   -7.360758  
       1B3u   -7.360758     4Ag    -1.074927     4B1u   -0.897059  
       5Ag    -0.577732     2B2u   -0.524475     2B3u   -0.524475  
       2B3g   -0.411831     2B2g   -0.411831  

    Virtual:                                                              

       5B1u   -0.036415     6B1u    0.103123     6Ag     0.111641  
       3B3u    0.126357     3B2u    0.126357     7Ag     0.137966  
       3B2g    0.158044     3B3g    0.158044     7B1u    0.276249  
       4B2u    0.311938     4B3u    0.311938     8Ag     0.324793  
       1B1g    0.324794     9Ag     0.430485     8B1u    0.449935  
       1Au     0.449936     4B2g    0.587144     4B3g    0.587144  
       9B1u    0.615365     5B2u    0.772436     5B3u    0.772436  
      10B1u    0.865028     5B3g    0.882625     5B2g    0.882625  
      10Ag     0.902618    11Ag     1.019419    12Ag     1.085546  
       2B1g    1.085552     6B3u    1.108058     6B2u    1.108058  
      11B1u    1.138646     2Au     1.138653    13Ag     1.171431  
       6B2g    1.187705     6B3g    1.187705    12B1u    1.244835  
      13B1u    1.709250    14Ag     5.406149     7B3u    5.460282  
       7B2u    5.460282     3B1g    5.504063    15Ag     5.504084  
       3Au     5.533352    14B1u    5.533372     7B2g    5.586768  
       7B3g    5.586768    15B1u    5.719660  

    Final Occupation by Irrep:
             Ag   B1g   B2g   B3g    Au   B1u   B2u   B3u 
    DOCC [     5,    0,    2,    2,    0,    4,    2,    2 ]

  @DF-RKS Final Energy:  -920.23694358438411

   => Energetics <=

    Nuclear Repulsion Energy =             76.8002098289811386
    One-Electron Energy =               -1422.8719793599309469
    Two-Electron Energy =                 468.4129882652526362
    DFT Exchange-Correlation Energy =     -42.7205110416864926
    Empirical Dispersion Energy =           0.0000000000000000
    VV10 Nonlocal Energy =                  0.1423487229994572
    Total Energy =                       -920.2369435843841075

Computation Completed


Properties will be evaluated at   0.000000,   0.000000,   0.000000 [a0]

Properties computed using the SCF density matrix

  Nuclear Dipole Moment: [e a0]
     X:     0.0000      Y:     0.0000      Z:     0.0000

  Electronic Dipole Moment: [e a0]
     X:     0.0000      Y:     0.0000      Z:     0.0000

  Dipole Moment: [e a0]
     X:     0.0000      Y:     0.0000      Z:     0.0000     Total:     0.0000

  Dipole Moment: [D]
     X:     0.0000      Y:     0.0000      Z:     0.0000     Total:     0.0000


*** tstop() called on bp1-compute00105.data.bp.acrc.priv at Tue Apr 27 17:51:03 2021
Module time:
	user time   =      45.40 seconds =       0.76 minutes
	system time =       1.69 seconds =       0.03 minutes
	total time  =          2 seconds =       0.03 minutes
Total time:
	user time   =     602.12 seconds =      10.04 minutes
	system time =      23.37 seconds =       0.39 minutes
	total time  =         27 seconds =       0.45 minutes

         ----------------------------------------------------------
                                   FINDIF
                     R. A. King and Jonathon Misiewicz
         ---------------------------------------------------------

  Computing second-derivative from energies using projected, 
  symmetry-adapted, cartesian coordinates.

  3 energies passed in, including the reference geometry.
    Using 3-point formula.
    Energy without displacement: -920.2369437537
    Check energies below for precision!
    0: -1 :      -920.2369436031
    0: 1  :      -920.2369435844

-------------------------------------------------------------


  ==> Harmonic Vibrational Analysis <==

  non-mass-weighted Hessian:       Symmetric? True   Hermitian? True   Lin Dep Dim?  5 (0)
  projection of translations (True) and rotations (True) removed 5 degrees of freedom (5)
  total projector:                 Symmetric? True   Hermitian? True   Lin Dep Dim?  5 (5)
  mass-weighted Hessian:           Symmetric? True   Hermitian? True   Lin Dep Dim?  5 (0)
  pre-proj  low-frequency mode:    0.0000  [cm^-1]
  pre-proj  low-frequency mode:    0.0000  [cm^-1]
  pre-proj  low-frequency mode:    0.0000  [cm^-1]
  pre-proj  low-frequency mode:    0.0000  [cm^-1]
  pre-proj  low-frequency mode:    0.0000  [cm^-1]
  pre-proj  all modes:['0.0000' '0.0000' '0.0000' '0.0000' '0.0000' '581.5295']
  projected mass-weighted Hessian: Symmetric? True   Hermitian? True   Lin Dep Dim?  5 (5)
  post-proj low-frequency mode:    0.0000  [cm^-1] (TR)
  post-proj low-frequency mode:    0.0000  [cm^-1] (TR)
  post-proj low-frequency mode:    0.0000  [cm^-1] (TR)
  post-proj low-frequency mode:    0.0000  [cm^-1] (TR)
  post-proj low-frequency mode:    0.0000  [cm^-1] (TR)
  post-proj  all modes:['0.0000' '0.0000' '0.0000' '0.0000' '0.0000' '581.5295']

  Vibration                       6           
  Freq [cm^-1]                 581.5295       
  Irrep                           Ag          
  Reduced mass [u]             34.9689        
  Force const [mDyne/A]         6.9675        
  Turning point v=0 [a0]        0.0769        
  RMS dev v=0 [a0 u^1/2]        0.3217        
  Char temp [K]                836.6915       
  ----------------------------------------------------------------------------------
      1   CL               0.00  0.00  0.71   
      2   CL               0.00  0.00 -0.71   

  ==> Thermochemistry Components <==

  Entropy, S
    Electronic S            0.000 [cal/(mol K)]        0.000 [J/(mol K)]       0.00000000 [mEh/K] (multiplicity = 1)
    Translational S        38.652 [cal/(mol K)]      161.721 [J/(mol K)]       0.06159614 [mEh/K] (mol. weight = 69.9377 [u], P = 101325.00 [Pa])
    Rotational S           14.020 [cal/(mol K)]       58.662 [J/(mol K)]       0.02234303 [mEh/K] (symmetry no. = 2)
    Vibrational S           0.483 [cal/(mol K)]        2.019 [J/(mol K)]       0.00076897 [mEh/K]
  Total S                  53.155 [cal/(mol K)]      222.401 [J/(mol K)]       0.08470814 [mEh/K]
  Correction S              0.000 [cal/(mol K)]        0.000 [J/(mol K)]       0.00000000 [mEh/K]

  Constant volume heat capacity, Cv
    Electronic Cv           0.000 [cal/(mol K)]        0.000 [J/(mol K)]       0.00000000 [mEh/K]
    Translational Cv        2.981 [cal/(mol K)]       12.472 [J/(mol K)]       0.00475022 [mEh/K]
    Rotational Cv           1.987 [cal/(mol K)]        8.314 [J/(mol K)]       0.00316681 [mEh/K]
    Vibrational Cv          1.071 [cal/(mol K)]        4.482 [J/(mol K)]       0.00170716 [mEh/K]
  Total Cv                  6.039 [cal/(mol K)]       25.268 [J/(mol K)]       0.00962418 [mEh/K]
  Correction Cv             0.000 [cal/(mol K)]        0.000 [J/(mol K)]       0.00000000 [mEh/K]

  Constant pressure heat capacity, Cp
    Electronic Cp           0.000 [cal/(mol K)]        0.000 [J/(mol K)]       0.00000000 [mEh/K]
    Translational Cp        4.968 [cal/(mol K)]       20.786 [J/(mol K)]       0.00791703 [mEh/K]
    Rotational Cp           1.987 [cal/(mol K)]        8.314 [J/(mol K)]       0.00316681 [mEh/K]
    Vibrational Cp          1.071 [cal/(mol K)]        4.482 [J/(mol K)]       0.00170716 [mEh/K]
  Total Cp                  8.026 [cal/(mol K)]       33.583 [J/(mol K)]       0.01279100 [mEh/K]
  Correction Cp             0.000 [cal/(mol K)]        0.000 [J/(mol K)]       0.00000000 [mEh/K]

  ==> Thermochemistry Energy Analysis <==

  Raw electronic energy, E0
  Total E0, Electronic energy at well bottom at 0 [K]                 -920.23694375 [Eh]

  Zero-point energy, ZPE_vib = Sum_i nu_i / 2
    Electronic ZPE          0.000 [kcal/mol]        0.000 [kJ/mol]       0.00000000 [Eh]
    Translational ZPE       0.000 [kcal/mol]        0.000 [kJ/mol]       0.00000000 [Eh]
    Rotational ZPE          0.000 [kcal/mol]        0.000 [kJ/mol]       0.00000000 [Eh]
    Vibrational ZPE         0.831 [kcal/mol]        3.478 [kJ/mol]       0.00132482 [Eh]         290.765 [cm^-1]
  Correction ZPE            0.831 [kcal/mol]        3.478 [kJ/mol]       0.00132482 [Eh]         290.765 [cm^-1]
  Total ZPE, Electronic energy at 0 [K]                               -920.23561893 [Eh]

  Thermal Energy, E (includes ZPE)
    Electronic E            0.000 [kcal/mol]        0.000 [kJ/mol]       0.00000000 [Eh]
    Translational E         0.889 [kcal/mol]        3.718 [kJ/mol]       0.00141628 [Eh]
    Rotational E            0.592 [kcal/mol]        2.479 [kJ/mol]       0.00094418 [Eh]
    Vibrational E           0.938 [kcal/mol]        3.926 [kJ/mol]       0.00149524 [Eh]
  Correction E              2.419 [kcal/mol]       10.123 [kJ/mol]       0.00385570 [Eh]
  Total E, Electronic energy at  298.15 [K]                           -920.23308806 [Eh]

  Enthalpy, H_trans = E_trans + k_B * T
    Electronic H            0.000 [kcal/mol]        0.000 [kJ/mol]       0.00000000 [Eh]
    Translational H         1.481 [kcal/mol]        6.197 [kJ/mol]       0.00236046 [Eh]
    Rotational H            0.592 [kcal/mol]        2.479 [kJ/mol]       0.00094418 [Eh]
    Vibrational H           0.938 [kcal/mol]        3.926 [kJ/mol]       0.00149524 [Eh]
  Correction H              3.012 [kcal/mol]       12.602 [kJ/mol]       0.00479988 [Eh]
  Total H, Enthalpy at  298.15 [K]                                    -920.23214387 [Eh]

  Gibbs free energy, G = H - T * S
    Electronic G            0.000 [kcal/mol]        0.000 [kJ/mol]       0.00000000 [Eh]
    Translational G       -10.043 [kcal/mol]      -42.020 [kJ/mol]      -0.01600443 [Eh]
    Rotational G           -3.588 [kcal/mol]      -15.011 [kJ/mol]      -0.00571739 [Eh]
    Vibrational G           0.794 [kcal/mol]        3.324 [kJ/mol]       0.00126597 [Eh]
  Correction G            -12.836 [kcal/mol]      -53.707 [kJ/mol]      -0.02045585 [Eh]
  Total G, Free enthalpy at  298.15 [K]                               -920.25739960 [Eh]

    Psi4 stopped on: Tuesday, 27 April 2021 05:51PM
    Psi4 wall time for execution: 0:00:26.98

*** Psi4 exiting successfully. Buy a developer a beer!
