
    -----------------------------------------------------------------------
          Psi4: An Open-Source Ab Initio Electronic Structure Package
                               Psi4 1.3.2 release

                         Git: Rev {HEAD} ecbda83 


    R. M. Parrish, L. A. Burns, D. G. A. Smith, A. C. Simmonett,
    A. E. DePrince III, E. G. Hohenstein, U. Bozkaya, A. Yu. Sokolov,
    R. Di Remigio, R. M. Richard, J. F. Gonthier, A. M. James,
    H. R. McAlexander, A. Kumar, M. Saitow, X. Wang, B. P. Pritchard,
    P. Verma, H. F. Schaefer III, K. Patkowski, R. A. King, E. F. Valeev,
    F. A. Evangelista, J. M. Turney, T. D. Crawford, and C. D. Sherrill,
    J. Chem. Theory Comput. 13(7) pp 3185--3197 (2017).
    (doi: 10.1021/acs.jctc.7b00174)


                         Additional Contributions by
    P. Kraus, H. Kruse, M. H. Lechner, M. C. Schieber, R. A. Shaw,
    A. Alenaizan, R. Galvelis, Z. L. Glick, S. Lehtola, and J. P. Misiewicz

    -----------------------------------------------------------------------


    Psi4 started on: Tuesday, 27 April 2021 05:51PM

    Process ID: 212841
    Host:       bp1-compute00099.data.bp.acrc.priv
    PSIDATADIR: /work/zw18965/.conda/envs/p4env/share/psi4
    Memory:     500.0 MiB
    Threads:    24
    
  ==> Input File <==

--------------------------------------------------------------------------
memory 144 GB

molecule {
0 1
F 0.0000000000 0.0000000000 0.0000000000
F 0.0000000000 0.0000000000 1.4129000000
}

set dynamic_level 1
set basis aug-cc-pV(D+d)Z
 
optimize("wB97X-V")
frequencies("wB97X-V")
--------------------------------------------------------------------------

  Memory set to 134.110 GiB by Python driver.
gradient() will perform gradient computation by finite difference of analytic energies.

         ----------------------------------------------------------
                                   FINDIF
                     R. A. King and Jonathon Misiewicz
         ---------------------------------------------------------

  Using finite-differences of energies to determine gradients.
    Generating geometries for use with 3-point formula.
    Displacement size will be 5.00e-03.
    Number of atoms is 2.
    Number of symmetric SALCs is 1.
    Translations projected? 1. Rotations projected? 1.
    Number of geometries (including reference) is 3.

  //>>>>>>>>>>>>>>>>>>>>>>>>>>>>>>>>>>>//
  //    Loading displacement 1 of 3    //
  //<<<<<<<<<<<<<<<<<<<<<<<<<<<<<<<<<<<//

*** tstart() called on bp1-compute00099.data.bp.acrc.priv
*** at Tue Apr 27 17:51:56 2021

   => Loading Basis Set <=

    Name: AUG-CC-PV(D+D)Z
    Role: ORBITAL
    Keyword: BASIS
    atoms 1-2 entry F          line   306 file /work/zw18965/.conda/envs/p4env/share/psi4/basis/aug-cc-pv_dpd_z.gbs 


         ---------------------------------------------------------
                                   SCF
               by Justin Turney, Rob Parrish, Andy Simmonett
                          and Daniel G. A. Smith
                              RKS Reference
                       24 Threads, 137329 MiB Core
         ---------------------------------------------------------

  ==> Geometry <==

    Molecular point group: d2h
    Full point group: D_inf_h

    Geometry (in Angstrom), charge = 0, multiplicity = 1:

       Center              X                  Y                   Z               Mass       
    ------------   -----------------  -----------------  -----------------  -----------------
         F            0.000000000000     0.000000000000    -0.706450000000    18.998403162730
         F            0.000000000000     0.000000000000     0.706450000000    18.998403162730

  Running in d2h symmetry.

  Rotational constants: A = ************  B =      0.88897  C =      0.88897 [cm^-1]
  Rotational constants: A = ************  B =  26650.61560  C =  26650.61560 [MHz]
  Nuclear repulsion =   30.337146340342564

  Charge       = 0
  Multiplicity = 1
  Electrons    = 18
  Nalpha       = 9
  Nbeta        = 9

  ==> Algorithm <==

  SCF Algorithm Type is DF.
  DIIS enabled.
  MOM disabled.
  Fractional occupation disabled.
  Guess Type is SAD.
  Energy threshold   = 1.00e-08
  Density threshold  = 1.00e-08
  Integral threshold = 0.00e+00

  ==> Primary Basis <==

  Basis Set: AUG-CC-PV(D+D)Z
    Blend: AUG-CC-PV(D+D)Z
    Number of shells: 18
    Number of basis function: 46
    Number of Cartesian functions: 50
    Spherical Harmonics?: true
    Max angular momentum: 2

  ==> DFT Potential <==

   => Composite Functional: WB97X-V <= 

    wB97X-V Hyb-GGA Exchange-Correlation Functional

    N. Mardirossian and M. Head-Gordon, Phys. Chem. Chem. Phys. 16, 9904 (2014)

    Deriv               =              1
    GGA                 =           TRUE
    Meta                =          FALSE

    Exchange Hybrid     =           TRUE
    MP2 Hybrid          =          FALSE

   => Exchange-Correlation Functionals <=

    1.0000   wB97X-V range-separated functional

   => Exact (HF) Exchange <=

    0.8330            HF,LR [omega = 0.3000]
    0.1670               HF 

   => VV10 Non-Local Parameters <=

    VV10 B              =     6.0000E+00
    VV10 C              =     1.0000E-02

   => Molecular Quadrature <=

    Radial Scheme          =       TREUTLER
    Pruning Scheme         =           FLAT
    Nuclear Scheme         =       TREUTLER

    BS radius alpha        =              1
    Pruning alpha          =              1
    Radial Points          =             75
    Spherical Points       =            302
    Total Points           =          44696
    Total Blocks           =            412
    Max Points             =            255
    Max Functions          =             46

   => Loading Basis Set <=

    Name: (AUG-CC-PV(D+D)Z AUX)
    Role: JKFIT
    Keyword: DF_BASIS_SCF
    atoms 1-2 entry F          line   328 file /work/zw18965/.conda/envs/p4env/share/psi4/basis/aug-cc-pvdz-jkfit.gbs 

  ==> Pre-Iterations <==

   -------------------------------------------------------
    Irrep   Nso     Nmo     Nalpha   Nbeta   Ndocc  Nsocc
   -------------------------------------------------------
     Ag        11      11       0       0       0       0
     B1g        2       2       0       0       0       0
     B2g        5       5       0       0       0       0
     B3g        5       5       0       0       0       0
     Au         2       2       0       0       0       0
     B1u       11      11       0       0       0       0
     B2u        5       5       0       0       0       0
     B3u        5       5       0       0       0       0
   -------------------------------------------------------
    Total      46      46       9       9       9       0
   -------------------------------------------------------

  ==> Integral Setup <==

  ==> DiskDFJK: Density-Fitted J/K Matrices <==

    J tasked:                  Yes
    K tasked:                  Yes
    wK tasked:                 Yes
    Omega:               3.000E-01
    OpenMP threads:             24
    Integrals threads:          24
    Memory [MiB]:           102939
    Algorithm:                Core
    Integral Cache:           NONE
    Schwarz Cutoff:          1E-12
    Fitting Condition:       1E-10

   => Auxiliary Basis Set <=

  Basis Set: (AUG-CC-PV(D+D)Z AUX)
    Blend: AUG-CC-PVDZ-JKFIT
    Number of shells: 56
    Number of basis function: 172
    Number of Cartesian functions: 202
    Spherical Harmonics?: true
    Max angular momentum: 3

  Cached 100.0% of DFT collocation blocks in 0.056 [GiB].

  Minimum eigenvalue in the overlap matrix is 3.7678792010E-03.
  Using Symmetric Orthogonalization.

  SCF Guess: Superposition of Atomic Densities via on-the-fly atomic UHF.

  ==> Iterations <==

                           Total Energy        Delta E     RMS |[F,P]|

   @DF-RKS iter SAD:  -199.05839606360772   -1.99058e+02   0.00000e+00 
   @DF-RKS iter   1:  -199.44841570771189   -3.90020e-01   1.18086e-02 DIIS
   @DF-RKS iter   2:  -199.46395838856887   -1.55427e-02   4.97428e-03 DIIS
   @DF-RKS iter   3:  -199.46593190138938   -1.97351e-03   4.78443e-04 DIIS
   @DF-RKS iter   4:  -199.46596281375014   -3.09124e-05   2.47538e-04 DIIS
   @DF-RKS iter   5:  -199.46596978381959   -6.97007e-06   1.93671e-05 DIIS
   @DF-RKS iter   6:  -199.46596984666539   -6.28458e-08   5.82919e-07 DIIS
   @DF-RKS iter   7:  -199.46596984674750   -8.21103e-11   5.71931e-08 DIIS
   @DF-RKS iter   8:  -199.46596984674827   -7.67386e-13   4.44130e-09 DIIS
  Energy and wave function converged.


  ==> Post-Iterations <==

    Orbital Energies [Eh]
    ---------------------

    Doubly Occupied:                                                      

       1B1u  -24.902082     1Ag   -24.902026     2Ag    -1.490193  
       2B1u   -1.248759     3Ag    -0.717767     1B2u   -0.662767  
       1B3u   -0.662767     1B3g   -0.531324     1B2g   -0.531324  

    Virtual:                                                              

       3B1u   -0.058051     4B1u    0.176344     4Ag     0.190322  
       2B3u    0.221545     2B2u    0.221545     2B3g    0.282906  
       2B2g    0.282906     5Ag     0.293845     5B1u    0.490039  
       1B1g    1.079232     6Ag     1.079235     3B3u    1.118244  
       3B2u    1.118244     7Ag     1.291797     1Au     1.369967  
       6B1u    1.369970     4B3u    1.389996     4B2u    1.389996  
       7B1u    1.408128     3B3g    1.416774     3B2g    1.416774  
       8B1u    1.711611     8Ag     1.852260     4B3g    1.928020  
       4B2g    1.928020     9Ag     2.057539     9B1u    3.831493  
       2B1g    4.420518    10Ag     4.420522     2Au     4.510133  
      10B1u    4.510138     5B2u    4.511224     5B3u    4.511224  
      11Ag     4.513816     5B3g    4.571047     5B2g    4.571047  
      11B1u    4.756021  

    Final Occupation by Irrep:
             Ag   B1g   B2g   B3g    Au   B1u   B2u   B3u 
    DOCC [     3,    0,    1,    1,    0,    2,    1,    1 ]

  @DF-RKS Final Energy:  -199.46596984674827

   => Energetics <=

    Nuclear Repulsion Energy =             30.3371463403425636
    One-Electron Energy =                -338.1891087165092245
    Two-Electron Energy =                 123.2942015647698781
    DFT Exchange-Correlation Energy =     -14.9852581193993721
    Empirical Dispersion Energy =           0.0000000000000000
    VV10 Nonlocal Energy =                  0.0770490840479378
    Total Energy =                       -199.4659698467482372

Computation Completed


Properties will be evaluated at   0.000000,   0.000000,   0.000000 [a0]

Properties computed using the SCF density matrix

  Nuclear Dipole Moment: [e a0]
     X:     0.0000      Y:     0.0000      Z:     0.0000

  Electronic Dipole Moment: [e a0]
     X:     0.0000      Y:     0.0000      Z:     0.0000

  Dipole Moment: [e a0]
     X:     0.0000      Y:     0.0000      Z:     0.0000     Total:     0.0000

  Dipole Moment: [D]
     X:     0.0000      Y:     0.0000      Z:     0.0000     Total:     0.0000


*** tstop() called on bp1-compute00099.data.bp.acrc.priv at Tue Apr 27 17:51:58 2021
Module time:
	user time   =      37.93 seconds =       0.63 minutes
	system time =       1.72 seconds =       0.03 minutes
	total time  =          2 seconds =       0.03 minutes
Total time:
	user time   =      37.93 seconds =       0.63 minutes
	system time =       1.72 seconds =       0.03 minutes
	total time  =          2 seconds =       0.03 minutes

  //>>>>>>>>>>>>>>>>>>>>>>>>>>>>>>>>>>>//
  //    Loading displacement 2 of 3    //
  //<<<<<<<<<<<<<<<<<<<<<<<<<<<<<<<<<<<//

*** tstart() called on bp1-compute00099.data.bp.acrc.priv
*** at Tue Apr 27 17:51:58 2021

   => Loading Basis Set <=

    Name: AUG-CC-PV(D+D)Z
    Role: ORBITAL
    Keyword: BASIS
    atoms 1-2 entry F          line   306 file /work/zw18965/.conda/envs/p4env/share/psi4/basis/aug-cc-pv_dpd_z.gbs 


         ---------------------------------------------------------
                                   SCF
               by Justin Turney, Rob Parrish, Andy Simmonett
                          and Daniel G. A. Smith
                              RKS Reference
                       24 Threads, 137329 MiB Core
         ---------------------------------------------------------

  ==> Geometry <==

    Molecular point group: d2h
    Full point group: D_inf_h

    Geometry (in Angstrom), charge = 0, multiplicity = 1:

       Center              X                  Y                   Z               Mass       
    ------------   -----------------  -----------------  -----------------  -----------------
         F            0.000000000000     0.000000000000    -0.706879237434    18.998403162730
         F            0.000000000000     0.000000000000     0.706879237434    18.998403162730

  Running in d2h symmetry.

  Rotational constants: A = ************  B =      0.88789  C =      0.88789 [cm^-1]
  Rotational constants: A = ************  B =  26618.25938  C =  26618.25938 [MHz]
  Nuclear repulsion =   30.318724751270118

  Charge       = 0
  Multiplicity = 1
  Electrons    = 18
  Nalpha       = 9
  Nbeta        = 9

  ==> Algorithm <==

  SCF Algorithm Type is DF.
  DIIS enabled.
  MOM disabled.
  Fractional occupation disabled.
  Guess Type is SAD.
  Energy threshold   = 1.00e-08
  Density threshold  = 1.00e-08
  Integral threshold = 0.00e+00

  ==> Primary Basis <==

  Basis Set: AUG-CC-PV(D+D)Z
    Blend: AUG-CC-PV(D+D)Z
    Number of shells: 18
    Number of basis function: 46
    Number of Cartesian functions: 50
    Spherical Harmonics?: true
    Max angular momentum: 2

  ==> DFT Potential <==

   => Composite Functional: WB97X-V <= 

    wB97X-V Hyb-GGA Exchange-Correlation Functional

    N. Mardirossian and M. Head-Gordon, Phys. Chem. Chem. Phys. 16, 9904 (2014)

    Deriv               =              1
    GGA                 =           TRUE
    Meta                =          FALSE

    Exchange Hybrid     =           TRUE
    MP2 Hybrid          =          FALSE

   => Exchange-Correlation Functionals <=

    1.0000   wB97X-V range-separated functional

   => Exact (HF) Exchange <=

    0.8330            HF,LR [omega = 0.3000]
    0.1670               HF 

   => VV10 Non-Local Parameters <=

    VV10 B              =     6.0000E+00
    VV10 C              =     1.0000E-02

   => Molecular Quadrature <=

    Radial Scheme          =       TREUTLER
    Pruning Scheme         =           FLAT
    Nuclear Scheme         =       TREUTLER

    BS radius alpha        =              1
    Pruning alpha          =              1
    Radial Points          =             75
    Spherical Points       =            302
    Total Points           =          44696
    Total Blocks           =            412
    Max Points             =            254
    Max Functions          =             46

   => Loading Basis Set <=

    Name: (AUG-CC-PV(D+D)Z AUX)
    Role: JKFIT
    Keyword: DF_BASIS_SCF
    atoms 1-2 entry F          line   328 file /work/zw18965/.conda/envs/p4env/share/psi4/basis/aug-cc-pvdz-jkfit.gbs 

  ==> Pre-Iterations <==

   -------------------------------------------------------
    Irrep   Nso     Nmo     Nalpha   Nbeta   Ndocc  Nsocc
   -------------------------------------------------------
     Ag        11      11       0       0       0       0
     B1g        2       2       0       0       0       0
     B2g        5       5       0       0       0       0
     B3g        5       5       0       0       0       0
     Au         2       2       0       0       0       0
     B1u       11      11       0       0       0       0
     B2u        5       5       0       0       0       0
     B3u        5       5       0       0       0       0
   -------------------------------------------------------
    Total      46      46       9       9       9       0
   -------------------------------------------------------

  ==> Integral Setup <==

  ==> DiskDFJK: Density-Fitted J/K Matrices <==

    J tasked:                  Yes
    K tasked:                  Yes
    wK tasked:                 Yes
    Omega:               3.000E-01
    OpenMP threads:             24
    Integrals threads:          24
    Memory [MiB]:           102939
    Algorithm:                Core
    Integral Cache:           NONE
    Schwarz Cutoff:          1E-12
    Fitting Condition:       1E-10

   => Auxiliary Basis Set <=

  Basis Set: (AUG-CC-PV(D+D)Z AUX)
    Blend: AUG-CC-PVDZ-JKFIT
    Number of shells: 56
    Number of basis function: 172
    Number of Cartesian functions: 202
    Spherical Harmonics?: true
    Max angular momentum: 3

  Cached 100.0% of DFT collocation blocks in 0.056 [GiB].

  Minimum eigenvalue in the overlap matrix is 3.7800872382E-03.
  Using Symmetric Orthogonalization.

  SCF Guess: Superposition of Atomic Densities via on-the-fly atomic UHF.

  ==> Iterations <==

                           Total Energy        Delta E     RMS |[F,P]|

   @DF-RKS iter SAD:  -199.05721730335003   -1.99057e+02   0.00000e+00 
   @DF-RKS iter   1:  -199.44842831597015   -3.91211e-01   1.17922e-02 DIIS
   @DF-RKS iter   2:  -199.46393085509021   -1.55025e-02   4.96843e-03 DIIS
   @DF-RKS iter   3:  -199.46590015469337   -1.96930e-03   4.77582e-04 DIIS
   @DF-RKS iter   4:  -199.46593097746643   -3.08228e-05   2.47040e-04 DIIS
   @DF-RKS iter   5:  -199.46593791948479   -6.94202e-06   1.93745e-05 DIIS
   @DF-RKS iter   6:  -199.46593798235293   -6.28681e-08   5.82297e-07 DIIS
   @DF-RKS iter   7:  -199.46593798243489   -8.19682e-11   5.71436e-08 DIIS
   @DF-RKS iter   8:  -199.46593798243563   -7.38964e-13   4.44348e-09 DIIS
  Energy and wave function converged.


  ==> Post-Iterations <==

    Orbital Energies [Eh]
    ---------------------

    Doubly Occupied:                                                      

       1B1u  -24.902149     1Ag   -24.902093     2Ag    -1.489786  
       2B1u   -1.248971     3Ag    -0.717576     1B3u   -0.662604  
       1B2u   -0.662604     1B2g   -0.531465     1B3g   -0.531465  

    Virtual:                                                              

       3B1u   -0.058614     4B1u    0.176317     4Ag     0.190315  
       2B3u    0.221550     2B2u    0.221550     2B2g    0.282894  
       2B3g    0.282894     5Ag     0.293862     5B1u    0.490003  
       1B1g    1.079366     6Ag     1.079369     3B2u    1.117902  
       3B3u    1.117902     7Ag     1.292007     1Au     1.369759  
       6B1u    1.369762     4B3u    1.390005     4B2u    1.390005  
       7B1u    1.407834     3B2g    1.416702     3B3g    1.416702  
       8B1u    1.712360     8Ag     1.851851     4B2g    1.927532  
       4B3g    1.927532     9Ag     2.056183     9B1u    3.829868  
       2B1g    4.420504    10Ag     4.420508     2Au     4.510124  
      10B1u    4.510128     5B2u    4.511624     5B3u    4.511624  
      11Ag     4.515728     5B3g    4.570700     5B2g    4.570700  
      11B1u    4.754305  

    Final Occupation by Irrep:
             Ag   B1g   B2g   B3g    Au   B1u   B2u   B3u 
    DOCC [     3,    0,    1,    1,    0,    2,    1,    1 ]

  @DF-RKS Final Energy:  -199.46593798243563

   => Energetics <=

    Nuclear Repulsion Energy =             30.3187247512701177
    One-Electron Energy =                -338.1530253605090479
    Two-Electron Energy =                 123.2762092003073491
    DFT Exchange-Correlation Energy =     -14.9848969841104136
    Empirical Dispersion Energy =           0.0000000000000000
    VV10 Nonlocal Energy =                  0.0770504106063619
    Total Energy =                       -199.4659379824356336

Computation Completed


Properties will be evaluated at   0.000000,   0.000000,   0.000000 [a0]

Properties computed using the SCF density matrix

  Nuclear Dipole Moment: [e a0]
     X:     0.0000      Y:     0.0000      Z:     0.0000

  Electronic Dipole Moment: [e a0]
     X:     0.0000      Y:     0.0000      Z:     0.0000

  Dipole Moment: [e a0]
     X:     0.0000      Y:     0.0000      Z:     0.0000     Total:     0.0000

  Dipole Moment: [D]
     X:     0.0000      Y:     0.0000      Z:     0.0000     Total:     0.0000


*** tstop() called on bp1-compute00099.data.bp.acrc.priv at Tue Apr 27 17:52:00 2021
Module time:
	user time   =      39.43 seconds =       0.66 minutes
	system time =       1.69 seconds =       0.03 minutes
	total time  =          2 seconds =       0.03 minutes
Total time:
	user time   =      77.49 seconds =       1.29 minutes
	system time =       3.42 seconds =       0.06 minutes
	total time  =          4 seconds =       0.07 minutes

  //>>>>>>>>>>>>>>>>>>>>>>>>>>>>>>>>>>>//
  //    Loading displacement 3 of 3    //
  //<<<<<<<<<<<<<<<<<<<<<<<<<<<<<<<<<<<//

*** tstart() called on bp1-compute00099.data.bp.acrc.priv
*** at Tue Apr 27 17:52:00 2021

   => Loading Basis Set <=

    Name: AUG-CC-PV(D+D)Z
    Role: ORBITAL
    Keyword: BASIS
    atoms 1-2 entry F          line   306 file /work/zw18965/.conda/envs/p4env/share/psi4/basis/aug-cc-pv_dpd_z.gbs 


         ---------------------------------------------------------
                                   SCF
               by Justin Turney, Rob Parrish, Andy Simmonett
                          and Daniel G. A. Smith
                              RKS Reference
                       24 Threads, 137329 MiB Core
         ---------------------------------------------------------

  ==> Geometry <==

    Molecular point group: d2h
    Full point group: D_inf_h

    Geometry (in Angstrom), charge = 0, multiplicity = 1:

       Center              X                  Y                   Z               Mass       
    ------------   -----------------  -----------------  -----------------  -----------------
         F            0.000000000000     0.000000000000    -0.706020762566    18.998403162730
         F            0.000000000000     0.000000000000     0.706020762566    18.998403162730

  Running in d2h symmetry.

  Rotational constants: A = ************  B =      0.89005  C =      0.89005 [cm^-1]
  Rotational constants: A = ************  B =  26683.03085  C =  26683.03085 [MHz]
  Nuclear repulsion =   30.355590328857176

  Charge       = 0
  Multiplicity = 1
  Electrons    = 18
  Nalpha       = 9
  Nbeta        = 9

  ==> Algorithm <==

  SCF Algorithm Type is DF.
  DIIS enabled.
  MOM disabled.
  Fractional occupation disabled.
  Guess Type is SAD.
  Energy threshold   = 1.00e-08
  Density threshold  = 1.00e-08
  Integral threshold = 0.00e+00

  ==> Primary Basis <==

  Basis Set: AUG-CC-PV(D+D)Z
    Blend: AUG-CC-PV(D+D)Z
    Number of shells: 18
    Number of basis function: 46
    Number of Cartesian functions: 50
    Spherical Harmonics?: true
    Max angular momentum: 2

  ==> DFT Potential <==

   => Composite Functional: WB97X-V <= 

    wB97X-V Hyb-GGA Exchange-Correlation Functional

    N. Mardirossian and M. Head-Gordon, Phys. Chem. Chem. Phys. 16, 9904 (2014)

    Deriv               =              1
    GGA                 =           TRUE
    Meta                =          FALSE

    Exchange Hybrid     =           TRUE
    MP2 Hybrid          =          FALSE

   => Exchange-Correlation Functionals <=

    1.0000   wB97X-V range-separated functional

   => Exact (HF) Exchange <=

    0.8330            HF,LR [omega = 0.3000]
    0.1670               HF 

   => VV10 Non-Local Parameters <=

    VV10 B              =     6.0000E+00
    VV10 C              =     1.0000E-02

   => Molecular Quadrature <=

    Radial Scheme          =       TREUTLER
    Pruning Scheme         =           FLAT
    Nuclear Scheme         =       TREUTLER

    BS radius alpha        =              1
    Pruning alpha          =              1
    Radial Points          =             75
    Spherical Points       =            302
    Total Points           =          44696
    Total Blocks           =            412
    Max Points             =            255
    Max Functions          =             46

   => Loading Basis Set <=

    Name: (AUG-CC-PV(D+D)Z AUX)
    Role: JKFIT
    Keyword: DF_BASIS_SCF
    atoms 1-2 entry F          line   328 file /work/zw18965/.conda/envs/p4env/share/psi4/basis/aug-cc-pvdz-jkfit.gbs 

  ==> Pre-Iterations <==

   -------------------------------------------------------
    Irrep   Nso     Nmo     Nalpha   Nbeta   Ndocc  Nsocc
   -------------------------------------------------------
     Ag        11      11       0       0       0       0
     B1g        2       2       0       0       0       0
     B2g        5       5       0       0       0       0
     B3g        5       5       0       0       0       0
     Au         2       2       0       0       0       0
     B1u       11      11       0       0       0       0
     B2u        5       5       0       0       0       0
     B3u        5       5       0       0       0       0
   -------------------------------------------------------
    Total      46      46       9       9       9       0
   -------------------------------------------------------

  ==> Integral Setup <==

  ==> DiskDFJK: Density-Fitted J/K Matrices <==

    J tasked:                  Yes
    K tasked:                  Yes
    wK tasked:                 Yes
    Omega:               3.000E-01
    OpenMP threads:             24
    Integrals threads:          24
    Memory [MiB]:           102939
    Algorithm:                Core
    Integral Cache:           NONE
    Schwarz Cutoff:          1E-12
    Fitting Condition:       1E-10

   => Auxiliary Basis Set <=

  Basis Set: (AUG-CC-PV(D+D)Z AUX)
    Blend: AUG-CC-PVDZ-JKFIT
    Number of shells: 56
    Number of basis function: 172
    Number of Cartesian functions: 202
    Spherical Harmonics?: true
    Max angular momentum: 3

  Cached 100.0% of DFT collocation blocks in 0.056 [GiB].

  Minimum eigenvalue in the overlap matrix is 3.7556933604E-03.
  Using Symmetric Orthogonalization.

  SCF Guess: Superposition of Atomic Densities via on-the-fly atomic UHF.

  ==> Iterations <==

                           Total Energy        Delta E     RMS |[F,P]|

   @DF-RKS iter SAD:  -199.05957806956280   -1.99060e+02   0.00000e+00 
   @DF-RKS iter   1:  -199.44840210541622   -3.88824e-01   1.18250e-02 DIIS
   @DF-RKS iter   2:  -199.46398498682194   -1.55829e-02   4.98012e-03 DIIS
   @DF-RKS iter   3:  -199.46596270923604   -1.97772e-03   4.79304e-04 DIIS
   @DF-RKS iter   4:  -199.46599371122673   -3.10020e-05   2.48035e-04 DIIS
   @DF-RKS iter   5:  -199.46600070937404   -6.99815e-06   1.93598e-05 DIIS
   @DF-RKS iter   6:  -199.46600077219730   -6.28233e-08   5.83545e-07 DIIS
   @DF-RKS iter   7:  -199.46600077227933   -8.20251e-11   5.72427e-08 DIIS
   @DF-RKS iter   8:  -199.46600077228032   -9.94760e-13   4.43917e-09 DIIS
  Energy and wave function converged.


  ==> Post-Iterations <==

    Orbital Energies [Eh]
    ---------------------

    Doubly Occupied:                                                      

       1B1u  -24.902015     1Ag   -24.901959     2Ag    -1.490602  
       2B1u   -1.248548     3Ag    -0.717958     1B2u   -0.662931  
       1B3u   -0.662931     1B2g   -0.531184     1B3g   -0.531184  

    Virtual:                                                              

       3B1u   -0.057488     4B1u    0.176371     4Ag     0.190328  
       2B2u    0.221540     2B3u    0.221540     2B2g    0.282917  
       2B3g    0.282917     5Ag     0.293828     5B1u    0.490076  
       1B1g    1.079098     6Ag     1.079101     3B2u    1.118587  
       3B3u    1.118587     7Ag     1.291586     1Au     1.370176  
       6B1u    1.370178     4B3u    1.389987     4B2u    1.389987  
       7B1u    1.408423     3B2g    1.416846     3B3g    1.416846  
       8B1u    1.710861     8Ag     1.852659     4B3g    1.928507  
       4B2g    1.928507     9Ag     2.058907     9B1u    3.833115  
       2B1g    4.420532    10Ag     4.420536     2Au     4.510143  
      10B1u    4.510148     5B2u    4.510821     5B3u    4.510821  
      11Ag     4.511901     5B3g    4.571398     5B2g    4.571398  
      11B1u    4.757740  

    Final Occupation by Irrep:
             Ag   B1g   B2g   B3g    Au   B1u   B2u   B3u 
    DOCC [     3,    0,    1,    1,    0,    2,    1,    1 ]

  @DF-RKS Final Energy:  -199.46600077228032

   => Energetics <=

    Nuclear Repulsion Energy =             30.3555903288571756
    One-Electron Energy =                -338.2252329231140493
    Two-Electron Energy =                 123.3122141837362449
    DFT Exchange-Correlation Energy =     -14.9856201199969217
    Empirical Dispersion Energy =           0.0000000000000000
    VV10 Nonlocal Energy =                  0.0770477582372596
    Total Energy =                       -199.4660007722803243

Computation Completed


Properties will be evaluated at   0.000000,   0.000000,   0.000000 [a0]

Properties computed using the SCF density matrix

  Nuclear Dipole Moment: [e a0]
     X:     0.0000      Y:     0.0000      Z:    -0.0000

  Electronic Dipole Moment: [e a0]
     X:     0.0000      Y:     0.0000      Z:     0.0000

  Dipole Moment: [e a0]
     X:     0.0000      Y:     0.0000      Z:    -0.0000     Total:     0.0000

  Dipole Moment: [D]
     X:     0.0000      Y:     0.0000      Z:    -0.0000     Total:     0.0000


*** tstop() called on bp1-compute00099.data.bp.acrc.priv at Tue Apr 27 17:52:01 2021
Module time:
	user time   =      38.40 seconds =       0.64 minutes
	system time =       1.47 seconds =       0.02 minutes
	total time  =          1 seconds =       0.02 minutes
Total time:
	user time   =     116.01 seconds =       1.93 minutes
	system time =       4.89 seconds =       0.08 minutes
	total time  =          5 seconds =       0.08 minutes

         ----------------------------------------------------------
                                   FINDIF
                     R. A. King and Jonathon Misiewicz
         ---------------------------------------------------------

  Computing gradient from energies.
    Using 3-point formula.
    Energy without displacement: -199.4659698467
    Check energies below for precision!
    Forces are for mass-weighted, symmetry-adapted cartesians (in au).

     Coord      Energy(-1)        Energy(+1)            Force
        0   -199.4659379824   -199.4660007723     -0.0062789845


-------------------------------------------------------------
  ## New Matrix (Symmetry 0) ##
  Irrep: 1 Size: 2 x 3

                 1                   2                   3

    1     0.00000000000000     0.00000000000000    -0.01935231661784
    2     0.00000000000000     0.00000000000000     0.01935231661784




			-----------------------------------------
			 OPTKING 2.0: for geometry optimizations 
			  - R.A. King,  Bethel University        
			-----------------------------------------
	At level 1: Red. Int., RFO, no backsteps, dynamic trust

	Internal coordinates to be generated automatically.
	Detected frag 1 with atoms:  1 2
	---Fragment 1 Bond Connectivity---
	 1 : 2
	 2 : 1

	---Fragment 1 Geometry and Gradient---
	 F           0.0000000000        0.0000000000       -1.3349970213
	 F           0.0000000000        0.0000000000        1.3349970213
	             0.0000000000        0.0000000000       -0.0193523166
	             0.0000000000        0.0000000000        0.0193523166

	Previous optimization step data not found.  Starting new optimization.

	---Fragment 1 Intrafragment Coordinates---
	 - Coordinate -           - BOHR/RAD -       - ANG/DEG -
	 R(1,2)           =         2.669994	       1.412900

	Current energy   :      -199.4659698467

	Generating empirical Hessian (Schlegel '84) for each fragment.
	Taking RFO optimization step.
	Going to follow RFO solution 1.
	Using RFO vector 1.
	Norm of target step-size    0.04435
	Projected energy change by RFO approximation:         0.0001249861

	Back-transformation to cartesian coordinates...
	Successfully converged to displaced geometry.

	--- Internal Coordinate Step in ANG or DEG, aJ/ANG or AJ/DEG ---
	 ---------------------------------------------------------------------------
	   Coordinate                Previous        Force       Change         New 
	   ----------                --------       ------       ------       ------
	    1 R(1,2)          =      1.412900    -0.159438    -0.023470     1.389430
	 ---------------------------------------------------------------------------
	Successfully symmetrized geometry.

  ==> Convergence Check <==

  Measures of convergence in internal coordinates in au.
  Criteria marked as inactive (o), active & met (*), and active & unmet ( ).
  --------------------------------------------------------------------------------------------- ~
   Step     Total Energy     Delta E     MAX Force     RMS Force      MAX Disp      RMS Disp    ~
  --------------------------------------------------------------------------------------------- ~
    Convergence Criteria    1.00e-06 *    3.00e-04 *             o    1.20e-03 *             o  ~
  --------------------------------------------------------------------------------------------- ~
      1    -199.46596985   -1.99e+02      1.94e-02      1.94e-02 o    4.44e-02      4.44e-02 o  ~
  ---------------------------------------------------------------------------------------------

	Writing optimization data to binary file.
	Structure for next step:
	Cartesian Geometry (in Angstrom)
	    F     0.0000000000   0.0000000000  -0.6947150060
	    F     0.0000000000   0.0000000000   0.6947150060
			--------------------------
			 OPTKING Finished Execution 
			--------------------------

    Structure for next step:
    Molecular point group: d2h
    Full point group: D_inf_h

    Geometry (in Angstrom), charge = 0, multiplicity = 1:

    F            0.000000000000     0.000000000000    -0.694715008709
    F            0.000000000000     0.000000000000     0.694715008709

gradient() will perform gradient computation by finite difference of analytic energies.

         ----------------------------------------------------------
                                   FINDIF
                     R. A. King and Jonathon Misiewicz
         ---------------------------------------------------------

  Using finite-differences of energies to determine gradients.
    Generating geometries for use with 3-point formula.
    Displacement size will be 5.00e-03.
    Number of atoms is 2.
    Number of symmetric SALCs is 1.
    Translations projected? 1. Rotations projected? 1.
    Number of geometries (including reference) is 3.

  //>>>>>>>>>>>>>>>>>>>>>>>>>>>>>>>>>>>//
  //    Loading displacement 1 of 3    //
  //<<<<<<<<<<<<<<<<<<<<<<<<<<<<<<<<<<<//

*** tstart() called on bp1-compute00099.data.bp.acrc.priv
*** at Tue Apr 27 17:52:01 2021

   => Loading Basis Set <=

    Name: AUG-CC-PV(D+D)Z
    Role: ORBITAL
    Keyword: BASIS
    atoms 1-2 entry F          line   306 file /work/zw18965/.conda/envs/p4env/share/psi4/basis/aug-cc-pv_dpd_z.gbs 


         ---------------------------------------------------------
                                   SCF
               by Justin Turney, Rob Parrish, Andy Simmonett
                          and Daniel G. A. Smith
                              RKS Reference
                       24 Threads, 137329 MiB Core
         ---------------------------------------------------------

  ==> Geometry <==

    Molecular point group: d2h
    Full point group: D_inf_h

    Geometry (in Angstrom), charge = 0, multiplicity = 1:

       Center              X                  Y                   Z               Mass       
    ------------   -----------------  -----------------  -----------------  -----------------
         F            0.000000000000     0.000000000000    -0.694715008709    18.998403162730
         F            0.000000000000     0.000000000000     0.694715008709    18.998403162730

  Running in d2h symmetry.

  Rotational constants: A = ************  B =      0.91926  C =      0.91926 [cm^-1]
  Rotational constants: A = ************  B =  27558.57397  C =  27558.57397 [MHz]
  Nuclear repulsion =   30.849595536978917

  Charge       = 0
  Multiplicity = 1
  Electrons    = 18
  Nalpha       = 9
  Nbeta        = 9

  ==> Algorithm <==

  SCF Algorithm Type is DF.
  DIIS enabled.
  MOM disabled.
  Fractional occupation disabled.
  Guess Type is READ.
  Energy threshold   = 1.00e-08
  Density threshold  = 1.00e-08
  Integral threshold = 0.00e+00

  ==> Primary Basis <==

  Basis Set: AUG-CC-PV(D+D)Z
    Blend: AUG-CC-PV(D+D)Z
    Number of shells: 18
    Number of basis function: 46
    Number of Cartesian functions: 50
    Spherical Harmonics?: true
    Max angular momentum: 2

  ==> DFT Potential <==

   => Composite Functional: WB97X-V <= 

    wB97X-V Hyb-GGA Exchange-Correlation Functional

    N. Mardirossian and M. Head-Gordon, Phys. Chem. Chem. Phys. 16, 9904 (2014)

    Deriv               =              1
    GGA                 =           TRUE
    Meta                =          FALSE

    Exchange Hybrid     =           TRUE
    MP2 Hybrid          =          FALSE

   => Exchange-Correlation Functionals <=

    1.0000   wB97X-V range-separated functional

   => Exact (HF) Exchange <=

    0.8330            HF,LR [omega = 0.3000]
    0.1670               HF 

   => VV10 Non-Local Parameters <=

    VV10 B              =     6.0000E+00
    VV10 C              =     1.0000E-02

   => Molecular Quadrature <=

    Radial Scheme          =       TREUTLER
    Pruning Scheme         =           FLAT
    Nuclear Scheme         =       TREUTLER

    BS radius alpha        =              1
    Pruning alpha          =              1
    Radial Points          =             75
    Spherical Points       =            302
    Total Points           =          44696
    Total Blocks           =            410
    Max Points             =            256
    Max Functions          =             46

   => Loading Basis Set <=

    Name: (AUG-CC-PV(D+D)Z AUX)
    Role: JKFIT
    Keyword: DF_BASIS_SCF
    atoms 1-2 entry F          line   328 file /work/zw18965/.conda/envs/p4env/share/psi4/basis/aug-cc-pvdz-jkfit.gbs 

   => Loading Basis Set <=

    Name: AUG-CC-PV(D+D)Z
    Role: ORBITAL
    Keyword: BASIS
    atoms 1-2 entry F          line   306 file /work/zw18965/.conda/envs/p4env/share/psi4/basis/aug-cc-pv_dpd_z.gbs 

  Reading orbitals from file 180, no projection.

  ==> Pre-Iterations <==

   -------------------------------------------------------
    Irrep   Nso     Nmo     Nalpha   Nbeta   Ndocc  Nsocc
   -------------------------------------------------------
     Ag        11      11       0       0       0       0
     B1g        2       2       0       0       0       0
     B2g        5       5       0       0       0       0
     B3g        5       5       0       0       0       0
     Au         2       2       0       0       0       0
     B1u       11      11       0       0       0       0
     B2u        5       5       0       0       0       0
     B3u        5       5       0       0       0       0
   -------------------------------------------------------
    Total      46      46       9       9       9       0
   -------------------------------------------------------

  ==> Integral Setup <==

  ==> DiskDFJK: Density-Fitted J/K Matrices <==

    J tasked:                  Yes
    K tasked:                  Yes
    wK tasked:                 Yes
    Omega:               3.000E-01
    OpenMP threads:             24
    Integrals threads:          24
    Memory [MiB]:           102939
    Algorithm:                Core
    Integral Cache:           NONE
    Schwarz Cutoff:          1E-12
    Fitting Condition:       1E-10

   => Auxiliary Basis Set <=

  Basis Set: (AUG-CC-PV(D+D)Z AUX)
    Blend: AUG-CC-PVDZ-JKFIT
    Number of shells: 56
    Number of basis function: 172
    Number of Cartesian functions: 202
    Spherical Harmonics?: true
    Max angular momentum: 3

  Cached 100.0% of DFT collocation blocks in 0.056 [GiB].

  Minimum eigenvalue in the overlap matrix is 3.4428792431E-03.
  Using Symmetric Orthogonalization.

  SCF Guess: Orbitals guess was supplied from a previous computation.

  ==> Iterations <==

                           Total Energy        Delta E     RMS |[F,P]|

   @DF-RKS iter   0:  -199.47503057365006   -1.99475e+02   3.16268e-03 
   @DF-RKS iter   1:  -199.46641425272685    8.61632e-03   6.79804e-04 DIIS
   @DF-RKS iter   2:  -199.46645189248750   -3.76398e-05   2.91825e-04 DIIS
   @DF-RKS iter   3:  -199.46645993355045   -8.04106e-06   3.85531e-05 DIIS
   @DF-RKS iter   4:  -199.46646012678065   -1.93230e-07   1.03433e-05 DIIS
   @DF-RKS iter   5:  -199.46646014335826   -1.65776e-08   4.68162e-07 DIIS
   @DF-RKS iter   6:  -199.46646014343875   -8.04903e-11   3.77364e-08 DIIS
   @DF-RKS iter   7:  -199.46646014343935   -5.96856e-13   4.22149e-09 DIIS
  Energy and wave function converged.


  ==> Post-Iterations <==

    Orbital Energies [Eh]
    ---------------------

    Doubly Occupied:                                                      

       1B1u  -24.900196     1Ag   -24.900137     2Ag    -1.501792  
       2B1u   -1.242827     3Ag    -0.723011     1B3u   -0.667417  
       1B2u   -0.667417     1B2g   -0.527363     1B3g   -0.527363  

    Virtual:                                                              

       3B1u   -0.042202     4B1u    0.177214     4Ag     0.190504  
       2B2u    0.221377     2B3u    0.221377     2B3g    0.283226  
       2B2g    0.283226     5Ag     0.293363     5B1u    0.490997  
       1B1g    1.075570     6Ag     1.075573     3B2u    1.127833  
       3B3u    1.127833     7Ag     1.285924     1Au     1.375712  
       6B1u    1.375714     4B2u    1.389745     4B3u    1.389745  
       7B1u    1.416269     3B3g    1.418844     3B2g    1.418844  
       8B1u    1.690930     8Ag     1.860260     4B3g    1.941145  
       4B2g    1.941145     9Ag     2.098636     9B1u    3.874878  
       2B1g    4.420749    10Ag     4.420752    11Ag     4.460390  
       5B3u    4.498559     5B2u    4.498559     2Au     4.510456  
      10B1u    4.510460     5B3g    4.581920     5B2g    4.581920  
      11B1u    4.804422  

    Final Occupation by Irrep:
             Ag   B1g   B2g   B3g    Au   B1u   B2u   B3u 
    DOCC [     3,    0,    1,    1,    0,    2,    1,    1 ]

  @DF-RKS Final Energy:  -199.46646014343935

   => Energetics <=

    Nuclear Repulsion Energy =             30.8495955369789172
    One-Electron Energy =                -339.1916422542917076
    Two-Electron Energy =                 123.7940459685601837
    DFT Exchange-Correlation Energy =     -14.9954725161421347
    Empirical Dispersion Energy =           0.0000000000000000
    VV10 Nonlocal Energy =                  0.0770131214553606
    Total Energy =                       -199.4664601434393774

Computation Completed


Properties will be evaluated at   0.000000,   0.000000,   0.000000 [a0]

Properties computed using the SCF density matrix

  Nuclear Dipole Moment: [e a0]
     X:     0.0000      Y:     0.0000      Z:     0.0000

  Electronic Dipole Moment: [e a0]
     X:     0.0000      Y:     0.0000      Z:     0.0000

  Dipole Moment: [e a0]
     X:     0.0000      Y:     0.0000      Z:     0.0000     Total:     0.0000

  Dipole Moment: [D]
     X:     0.0000      Y:     0.0000      Z:     0.0000     Total:     0.0000


*** tstop() called on bp1-compute00099.data.bp.acrc.priv at Tue Apr 27 17:52:03 2021
Module time:
	user time   =      32.07 seconds =       0.53 minutes
	system time =       1.05 seconds =       0.02 minutes
	total time  =          2 seconds =       0.03 minutes
Total time:
	user time   =     148.44 seconds =       2.47 minutes
	system time =       5.96 seconds =       0.10 minutes
	total time  =          7 seconds =       0.12 minutes

  //>>>>>>>>>>>>>>>>>>>>>>>>>>>>>>>>>>>//
  //    Loading displacement 2 of 3    //
  //<<<<<<<<<<<<<<<<<<<<<<<<<<<<<<<<<<<//

*** tstart() called on bp1-compute00099.data.bp.acrc.priv
*** at Tue Apr 27 17:52:03 2021

   => Loading Basis Set <=

    Name: AUG-CC-PV(D+D)Z
    Role: ORBITAL
    Keyword: BASIS
    atoms 1-2 entry F          line   306 file /work/zw18965/.conda/envs/p4env/share/psi4/basis/aug-cc-pv_dpd_z.gbs 


         ---------------------------------------------------------
                                   SCF
               by Justin Turney, Rob Parrish, Andy Simmonett
                          and Daniel G. A. Smith
                              RKS Reference
                       24 Threads, 137329 MiB Core
         ---------------------------------------------------------

  ==> Geometry <==

    Molecular point group: d2h
    Full point group: D_inf_h

    Geometry (in Angstrom), charge = 0, multiplicity = 1:

       Center              X                  Y                   Z               Mass       
    ------------   -----------------  -----------------  -----------------  -----------------
         F            0.000000000000     0.000000000000    -0.695144246142    18.998403162730
         F            0.000000000000     0.000000000000     0.695144246142    18.998403162730

  Running in d2h symmetry.

  Rotational constants: A = ************  B =      0.91812  C =      0.91812 [cm^-1]
  Rotational constants: A = ************  B =  27524.55076  C =  27524.55076 [MHz]
  Nuclear repulsion =   30.830546539181242

  Charge       = 0
  Multiplicity = 1
  Electrons    = 18
  Nalpha       = 9
  Nbeta        = 9

  ==> Algorithm <==

  SCF Algorithm Type is DF.
  DIIS enabled.
  MOM disabled.
  Fractional occupation disabled.
  Guess Type is READ.
  Energy threshold   = 1.00e-08
  Density threshold  = 1.00e-08
  Integral threshold = 0.00e+00

  ==> Primary Basis <==

  Basis Set: AUG-CC-PV(D+D)Z
    Blend: AUG-CC-PV(D+D)Z
    Number of shells: 18
    Number of basis function: 46
    Number of Cartesian functions: 50
    Spherical Harmonics?: true
    Max angular momentum: 2

  ==> DFT Potential <==

   => Composite Functional: WB97X-V <= 

    wB97X-V Hyb-GGA Exchange-Correlation Functional

    N. Mardirossian and M. Head-Gordon, Phys. Chem. Chem. Phys. 16, 9904 (2014)

    Deriv               =              1
    GGA                 =           TRUE
    Meta                =          FALSE

    Exchange Hybrid     =           TRUE
    MP2 Hybrid          =          FALSE

   => Exchange-Correlation Functionals <=

    1.0000   wB97X-V range-separated functional

   => Exact (HF) Exchange <=

    0.8330            HF,LR [omega = 0.3000]
    0.1670               HF 

   => VV10 Non-Local Parameters <=

    VV10 B              =     6.0000E+00
    VV10 C              =     1.0000E-02

   => Molecular Quadrature <=

    Radial Scheme          =       TREUTLER
    Pruning Scheme         =           FLAT
    Nuclear Scheme         =       TREUTLER

    BS radius alpha        =              1
    Pruning alpha          =              1
    Radial Points          =             75
    Spherical Points       =            302
    Total Points           =          44696
    Total Blocks           =            410
    Max Points             =            256
    Max Functions          =             46

   => Loading Basis Set <=

    Name: (AUG-CC-PV(D+D)Z AUX)
    Role: JKFIT
    Keyword: DF_BASIS_SCF
    atoms 1-2 entry F          line   328 file /work/zw18965/.conda/envs/p4env/share/psi4/basis/aug-cc-pvdz-jkfit.gbs 

   => Loading Basis Set <=

    Name: AUG-CC-PV(D+D)Z
    Role: ORBITAL
    Keyword: BASIS
    atoms 1-2 entry F          line   306 file /work/zw18965/.conda/envs/p4env/share/psi4/basis/aug-cc-pv_dpd_z.gbs 

  Reading orbitals from file 180, no projection.

  ==> Pre-Iterations <==

   -------------------------------------------------------
    Irrep   Nso     Nmo     Nalpha   Nbeta   Ndocc  Nsocc
   -------------------------------------------------------
     Ag        11      11       0       0       0       0
     B1g        2       2       0       0       0       0
     B2g        5       5       0       0       0       0
     B3g        5       5       0       0       0       0
     Au         2       2       0       0       0       0
     B1u       11      11       0       0       0       0
     B2u        5       5       0       0       0       0
     B3u        5       5       0       0       0       0
   -------------------------------------------------------
    Total      46      46       9       9       9       0
   -------------------------------------------------------

  ==> Integral Setup <==

  ==> DiskDFJK: Density-Fitted J/K Matrices <==

    J tasked:                  Yes
    K tasked:                  Yes
    wK tasked:                 Yes
    Omega:               3.000E-01
    OpenMP threads:             24
    Integrals threads:          24
    Memory [MiB]:           102939
    Algorithm:                Core
    Integral Cache:           NONE
    Schwarz Cutoff:          1E-12
    Fitting Condition:       1E-10

   => Auxiliary Basis Set <=

  Basis Set: (AUG-CC-PV(D+D)Z AUX)
    Blend: AUG-CC-PVDZ-JKFIT
    Number of shells: 56
    Number of basis function: 172
    Number of Cartesian functions: 202
    Spherical Harmonics?: true
    Max angular momentum: 3

  Cached 100.0% of DFT collocation blocks in 0.056 [GiB].

  Minimum eigenvalue in the overlap matrix is 3.4544634524E-03.
  Using Symmetric Orthogonalization.

  SCF Guess: Orbitals guess was supplied from a previous computation.

  ==> Iterations <==

                           Total Energy        Delta E     RMS |[F,P]|

   @DF-RKS iter   0:  -199.46616121843510   -1.99466e+02   1.18280e-04 
   @DF-RKS iter   1:  -199.46645571462867   -2.94496e-04   2.59890e-05 DIIS
   @DF-RKS iter   2:  -199.46645576920494   -5.45763e-08   1.16649e-05 DIIS
   @DF-RKS iter   3:  -199.46645578216891   -1.29640e-08   1.52508e-06 DIIS
   @DF-RKS iter   4:  -199.46645578246918   -3.00275e-10   3.87645e-07 DIIS
   @DF-RKS iter   5:  -199.46645578249291   -2.37321e-11   1.79238e-08 DIIS
   @DF-RKS iter   6:  -199.46645578249314   -2.27374e-13   1.40940e-09 DIIS
  Energy and wave function converged.


  ==> Post-Iterations <==

    Orbital Energies [Eh]
    ---------------------

    Doubly Occupied:                                                      

       1B1u  -24.900266     1Ag   -24.900208     2Ag    -1.501352  
       2B1u   -1.243049     3Ag    -0.722819     1B2u   -0.667240  
       1B3u   -0.667240     1B3g   -0.527512     1B2g   -0.527512  

    Virtual:                                                              

       3B1u   -0.042798     4B1u    0.177177     4Ag     0.190497  
       2B3u    0.221384     2B2u    0.221384     2B3g    0.283215  
       2B2g    0.283215     5Ag     0.293381     5B1u    0.490963  
       1B1g    1.075704     6Ag     1.075707     3B3u    1.127475  
       3B2u    1.127475     7Ag     1.286143     1Au     1.375500  
       6B1u    1.375502     4B2u    1.389754     4B3u    1.389754  
       7B1u    1.415970     3B3g    1.418766     3B2g    1.418766  
       8B1u    1.691691     8Ag     1.860063     4B2g    1.940672  
       4B3g    1.940672     9Ag     2.097008     9B1u    3.873327  
       2B1g    4.420746    10Ag     4.420749    11Ag     4.462378  
       5B2u    4.499083     5B3u    4.499083     2Au     4.510442  
      10B1u    4.510446     5B2g    4.581474     5B3g    4.581474  
      11B1u    4.802605  

    Final Occupation by Irrep:
             Ag   B1g   B2g   B3g    Au   B1u   B2u   B3u 
    DOCC [     3,    0,    1,    1,    0,    2,    1,    1 ]

  @DF-RKS Final Energy:  -199.46645578249314

   => Energetics <=

    Nuclear Repulsion Energy =             30.8305465391812419
    One-Electron Energy =                -339.1544185442218691
    Two-Electron Energy =                 123.7754888625491390
    DFT Exchange-Correlation Energy =     -14.9950870660071853
    Empirical Dispersion Energy =           0.0000000000000000
    VV10 Nonlocal Energy =                  0.0770144260055502
    Total Energy =                       -199.4664557824931421

Computation Completed


Properties will be evaluated at   0.000000,   0.000000,   0.000000 [a0]

Properties computed using the SCF density matrix

  Nuclear Dipole Moment: [e a0]
     X:     0.0000      Y:     0.0000      Z:     0.0000

  Electronic Dipole Moment: [e a0]
     X:     0.0000      Y:     0.0000      Z:     0.0000

  Dipole Moment: [e a0]
     X:     0.0000      Y:     0.0000      Z:     0.0000     Total:     0.0000

  Dipole Moment: [D]
     X:     0.0000      Y:     0.0000      Z:     0.0000     Total:     0.0000


*** tstop() called on bp1-compute00099.data.bp.acrc.priv at Tue Apr 27 17:52:04 2021
Module time:
	user time   =      31.49 seconds =       0.52 minutes
	system time =       1.24 seconds =       0.02 minutes
	total time  =          1 seconds =       0.02 minutes
Total time:
	user time   =     180.06 seconds =       3.00 minutes
	system time =       7.20 seconds =       0.12 minutes
	total time  =          8 seconds =       0.13 minutes

  //>>>>>>>>>>>>>>>>>>>>>>>>>>>>>>>>>>>//
  //    Loading displacement 3 of 3    //
  //<<<<<<<<<<<<<<<<<<<<<<<<<<<<<<<<<<<//

*** tstart() called on bp1-compute00099.data.bp.acrc.priv
*** at Tue Apr 27 17:52:04 2021

   => Loading Basis Set <=

    Name: AUG-CC-PV(D+D)Z
    Role: ORBITAL
    Keyword: BASIS
    atoms 1-2 entry F          line   306 file /work/zw18965/.conda/envs/p4env/share/psi4/basis/aug-cc-pv_dpd_z.gbs 


         ---------------------------------------------------------
                                   SCF
               by Justin Turney, Rob Parrish, Andy Simmonett
                          and Daniel G. A. Smith
                              RKS Reference
                       24 Threads, 137329 MiB Core
         ---------------------------------------------------------

  ==> Geometry <==

    Molecular point group: d2h
    Full point group: D_inf_h

    Geometry (in Angstrom), charge = 0, multiplicity = 1:

       Center              X                  Y                   Z               Mass       
    ------------   -----------------  -----------------  -----------------  -----------------
         F            0.000000000000     0.000000000000    -0.694285771275    18.998403162730
         F            0.000000000000     0.000000000000     0.694285771275    18.998403162730

  Running in d2h symmetry.

  Rotational constants: A = ************  B =      0.92039  C =      0.92039 [cm^-1]
  Rotational constants: A = ************  B =  27592.66030  C =  27592.66030 [MHz]
  Nuclear repulsion =   30.868668088602021

  Charge       = 0
  Multiplicity = 1
  Electrons    = 18
  Nalpha       = 9
  Nbeta        = 9

  ==> Algorithm <==

  SCF Algorithm Type is DF.
  DIIS enabled.
  MOM disabled.
  Fractional occupation disabled.
  Guess Type is READ.
  Energy threshold   = 1.00e-08
  Density threshold  = 1.00e-08
  Integral threshold = 0.00e+00

  ==> Primary Basis <==

  Basis Set: AUG-CC-PV(D+D)Z
    Blend: AUG-CC-PV(D+D)Z
    Number of shells: 18
    Number of basis function: 46
    Number of Cartesian functions: 50
    Spherical Harmonics?: true
    Max angular momentum: 2

  ==> DFT Potential <==

   => Composite Functional: WB97X-V <= 

    wB97X-V Hyb-GGA Exchange-Correlation Functional

    N. Mardirossian and M. Head-Gordon, Phys. Chem. Chem. Phys. 16, 9904 (2014)

    Deriv               =              1
    GGA                 =           TRUE
    Meta                =          FALSE

    Exchange Hybrid     =           TRUE
    MP2 Hybrid          =          FALSE

   => Exchange-Correlation Functionals <=

    1.0000   wB97X-V range-separated functional

   => Exact (HF) Exchange <=

    0.8330            HF,LR [omega = 0.3000]
    0.1670               HF 

   => VV10 Non-Local Parameters <=

    VV10 B              =     6.0000E+00
    VV10 C              =     1.0000E-02

   => Molecular Quadrature <=

    Radial Scheme          =       TREUTLER
    Pruning Scheme         =           FLAT
    Nuclear Scheme         =       TREUTLER

    BS radius alpha        =              1
    Pruning alpha          =              1
    Radial Points          =             75
    Spherical Points       =            302
    Total Points           =          44696
    Total Blocks           =            410
    Max Points             =            256
    Max Functions          =             46

   => Loading Basis Set <=

    Name: (AUG-CC-PV(D+D)Z AUX)
    Role: JKFIT
    Keyword: DF_BASIS_SCF
    atoms 1-2 entry F          line   328 file /work/zw18965/.conda/envs/p4env/share/psi4/basis/aug-cc-pvdz-jkfit.gbs 

   => Loading Basis Set <=

    Name: AUG-CC-PV(D+D)Z
    Role: ORBITAL
    Keyword: BASIS
    atoms 1-2 entry F          line   306 file /work/zw18965/.conda/envs/p4env/share/psi4/basis/aug-cc-pv_dpd_z.gbs 

  Reading orbitals from file 180, no projection.

  ==> Pre-Iterations <==

   -------------------------------------------------------
    Irrep   Nso     Nmo     Nalpha   Nbeta   Ndocc  Nsocc
   -------------------------------------------------------
     Ag        11      11       0       0       0       0
     B1g        2       2       0       0       0       0
     B2g        5       5       0       0       0       0
     B3g        5       5       0       0       0       0
     Au         2       2       0       0       0       0
     B1u       11      11       0       0       0       0
     B2u        5       5       0       0       0       0
     B3u        5       5       0       0       0       0
   -------------------------------------------------------
    Total      46      46       9       9       9       0
   -------------------------------------------------------

  ==> Integral Setup <==

  ==> DiskDFJK: Density-Fitted J/K Matrices <==

    J tasked:                  Yes
    K tasked:                  Yes
    wK tasked:                 Yes
    Omega:               3.000E-01
    OpenMP threads:             24
    Integrals threads:          24
    Memory [MiB]:           102939
    Algorithm:                Core
    Integral Cache:           NONE
    Schwarz Cutoff:          1E-12
    Fitting Condition:       1E-10

   => Auxiliary Basis Set <=

  Basis Set: (AUG-CC-PV(D+D)Z AUX)
    Blend: AUG-CC-PVDZ-JKFIT
    Number of shells: 56
    Number of basis function: 172
    Number of Cartesian functions: 202
    Spherical Harmonics?: true
    Max angular momentum: 3

  Cached 100.0% of DFT collocation blocks in 0.056 [GiB].

  Minimum eigenvalue in the overlap matrix is 3.4313185467E-03.
  Using Symmetric Orthogonalization.

  SCF Guess: Orbitals guess was supplied from a previous computation.

  ==> Iterations <==

                           Total Energy        Delta E     RMS |[F,P]|

   @DF-RKS iter   0:  -199.46676025895911   -1.99467e+02   1.18536e-04 
   @DF-RKS iter   1:  -199.46646335460295    2.96904e-04   2.60338e-05 DIIS
   @DF-RKS iter   2:  -199.46646340937565   -5.47727e-08   1.16796e-05 DIIS
   @DF-RKS iter   3:  -199.46646342236883   -1.29932e-08   1.52890e-06 DIIS
   @DF-RKS iter   4:  -199.46646342267056   -3.01725e-10   3.88281e-07 DIIS
   @DF-RKS iter   5:  -199.46646342269432   -2.37605e-11   1.79381e-08 DIIS
   @DF-RKS iter   6:  -199.46646342269452   -1.98952e-13   1.40888e-09 DIIS
  Energy and wave function converged.


  ==> Post-Iterations <==

    Orbital Energies [Eh]
    ---------------------

    Doubly Occupied:                                                      

       1B1u  -24.900124     1Ag   -24.900066     2Ag    -1.502234  
       2B1u   -1.242604     3Ag    -0.723204     1B2u   -0.667593  
       1B3u   -0.667593     1B2g   -0.527214     1B3g   -0.527214  

    Virtual:                                                              

       3B1u   -0.041604     4B1u    0.177250     4Ag     0.190511  
       2B3u    0.221370     2B2u    0.221370     2B2g    0.283238  
       2B3g    0.283238     5Ag     0.293345     5B1u    0.491030  
       1B1g    1.075437     6Ag     1.075439     3B3u    1.128192  
       3B2u    1.128192     7Ag     1.285705     1Au     1.375924  
       6B1u    1.375927     4B3u    1.389735     4B2u    1.389735  
       7B1u    1.416569     3B2g    1.418924     3B3g    1.418924  
       8B1u    1.690168     8Ag     1.860450     4B2g    1.941617  
       4B3g    1.941617     9Ag     2.100271     9B1u    3.876425  
       2B1g    4.420751    10Ag     4.420754    11Ag     4.458401  
       5B3u    4.498030     5B2u    4.498030     2Au     4.510470  
      10B1u    4.510474     5B3g    4.582370     5B2g    4.582370  
      11B1u    4.806242  

    Final Occupation by Irrep:
             Ag   B1g   B2g   B3g    Au   B1u   B2u   B3u 
    DOCC [     3,    0,    1,    1,    0,    2,    1,    1 ]

  @DF-RKS Final Energy:  -199.46646342269452

   => Energetics <=

    Nuclear Repulsion Energy =             30.8686680886020213
    One-Electron Energy =                -339.2289083120540454
    Two-Electron Energy =                 123.8126238332657465
    DFT Exchange-Correlation Energy =     -14.9958588502679753
    Empirical Dispersion Energy =           0.0000000000000000
    VV10 Nonlocal Energy =                  0.0770118177597521
    Total Energy =                       -199.4664634226945168

Computation Completed


Properties will be evaluated at   0.000000,   0.000000,   0.000000 [a0]

Properties computed using the SCF density matrix

  Nuclear Dipole Moment: [e a0]
     X:     0.0000      Y:     0.0000      Z:    -0.0000

  Electronic Dipole Moment: [e a0]
     X:     0.0000      Y:     0.0000      Z:     0.0000

  Dipole Moment: [e a0]
     X:     0.0000      Y:     0.0000      Z:    -0.0000     Total:     0.0000

  Dipole Moment: [D]
     X:     0.0000      Y:     0.0000      Z:    -0.0000     Total:     0.0000


*** tstop() called on bp1-compute00099.data.bp.acrc.priv at Tue Apr 27 17:52:05 2021
Module time:
	user time   =      30.19 seconds =       0.50 minutes
	system time =       1.06 seconds =       0.02 minutes
	total time  =          1 seconds =       0.02 minutes
Total time:
	user time   =     210.37 seconds =       3.51 minutes
	system time =       8.27 seconds =       0.14 minutes
	total time  =          9 seconds =       0.15 minutes

         ----------------------------------------------------------
                                   FINDIF
                     R. A. King and Jonathon Misiewicz
         ---------------------------------------------------------

  Computing gradient from energies.
    Using 3-point formula.
    Energy without displacement: -199.4664601434
    Check energies below for precision!
    Forces are for mass-weighted, symmetry-adapted cartesians (in au).

     Coord      Energy(-1)        Energy(+1)            Force
        0   -199.4664557825   -199.4664634227     -0.0007640201


-------------------------------------------------------------
  ## New Matrix (Symmetry 0) ##
  Irrep: 1 Size: 2 x 3

                 1                   2                   3

    1     0.00000000000000     0.00000000000000    -0.00235476925855
    2     0.00000000000000     0.00000000000000     0.00235476925855




			-----------------------------------------
			 OPTKING 2.0: for geometry optimizations 
			  - R.A. King,  Bethel University        
			-----------------------------------------
	At level 1: Red. Int., RFO, no backsteps, dynamic trust

	Previous internal coordinate definitions found.
	---Fragment 1 Geometry and Gradient---
	 F           0.0000000000        0.0000000000       -1.3128211017
	 F           0.0000000000        0.0000000000        1.3128211017
	             0.0000000000        0.0000000000       -0.0023547693
	             0.0000000000        0.0000000000        0.0023547693

	---Fragment 1 Intrafragment Coordinates---
	 - Coordinate -           - BOHR/RAD -       - ANG/DEG -
	 R(1,2)           =         2.625642	       1.389430

	Current energy   :      -199.4664601434

	Energy change for the previous step:
		Projected    :         0.0001249861
		Actual       :        -0.0004902967

	Performing BFGS update.
	Previous computed or guess Hessian on step 1.
	Steps to be used in Hessian update: 1
	Taking RFO optimization step.
	Going to follow RFO solution 1.
	Using RFO vector 1.
	Norm of target step-size    0.00614
	Projected energy change by RFO approximation:         0.0000044068

	Back-transformation to cartesian coordinates...
	Successfully converged to displaced geometry.

	--- Internal Coordinate Step in ANG or DEG, aJ/ANG or AJ/DEG ---
	 ---------------------------------------------------------------------------
	   Coordinate                Previous        Force       Change         New 
	   ----------                --------       ------       ------       ------
	    1 R(1,2)          =      1.389430    -0.019400    -0.003251     1.386179
	 ---------------------------------------------------------------------------
	Successfully symmetrized geometry.

  ==> Convergence Check <==

  Measures of convergence in internal coordinates in au.
  Criteria marked as inactive (o), active & met (*), and active & unmet ( ).
  ---------------------------------------------------------------------------------------------
   Step     Total Energy     Delta E     MAX Force     RMS Force      MAX Disp      RMS Disp   
  ---------------------------------------------------------------------------------------------
    Convergence Criteria    1.00e-06 *    3.00e-04 *             o    1.20e-03 *             o
  ---------------------------------------------------------------------------------------------
      2    -199.46646014   -4.90e-04      2.35e-03      2.35e-03 o    6.14e-03      6.14e-03 o  ~
  ---------------------------------------------------------------------------------------------

	Writing optimization data to binary file.
	Structure for next step:
	Cartesian Geometry (in Angstrom)
	    F     0.0000000000   0.0000000000  -0.6930893506
	    F     0.0000000000   0.0000000000   0.6930893506
			--------------------------
			 OPTKING Finished Execution 
			--------------------------

    Structure for next step:
    Molecular point group: d2h
    Full point group: D_inf_h

    Geometry (in Angstrom), charge = 0, multiplicity = 1:

    F            0.000000000000     0.000000000000    -0.693089353371
    F            0.000000000000     0.000000000000     0.693089353371

gradient() will perform gradient computation by finite difference of analytic energies.

         ----------------------------------------------------------
                                   FINDIF
                     R. A. King and Jonathon Misiewicz
         ---------------------------------------------------------

  Using finite-differences of energies to determine gradients.
    Generating geometries for use with 3-point formula.
    Displacement size will be 5.00e-03.
    Number of atoms is 2.
    Number of symmetric SALCs is 1.
    Translations projected? 1. Rotations projected? 1.
    Number of geometries (including reference) is 3.

  //>>>>>>>>>>>>>>>>>>>>>>>>>>>>>>>>>>>//
  //    Loading displacement 1 of 3    //
  //<<<<<<<<<<<<<<<<<<<<<<<<<<<<<<<<<<<//

*** tstart() called on bp1-compute00099.data.bp.acrc.priv
*** at Tue Apr 27 17:52:05 2021

   => Loading Basis Set <=

    Name: AUG-CC-PV(D+D)Z
    Role: ORBITAL
    Keyword: BASIS
    atoms 1-2 entry F          line   306 file /work/zw18965/.conda/envs/p4env/share/psi4/basis/aug-cc-pv_dpd_z.gbs 


         ---------------------------------------------------------
                                   SCF
               by Justin Turney, Rob Parrish, Andy Simmonett
                          and Daniel G. A. Smith
                              RKS Reference
                       24 Threads, 137329 MiB Core
         ---------------------------------------------------------

  ==> Geometry <==

    Molecular point group: d2h
    Full point group: D_inf_h

    Geometry (in Angstrom), charge = 0, multiplicity = 1:

       Center              X                  Y                   Z               Mass       
    ------------   -----------------  -----------------  -----------------  -----------------
         F            0.000000000000     0.000000000000    -0.693089353371    18.998403162730
         F            0.000000000000     0.000000000000     0.693089353371    18.998403162730

  Running in d2h symmetry.

  Rotational constants: A = ************  B =      0.92357  C =      0.92357 [cm^-1]
  Rotational constants: A = ************  B =  27688.00399  C =  27688.00399 [MHz]
  Nuclear repulsion =   30.921953898003721

  Charge       = 0
  Multiplicity = 1
  Electrons    = 18
  Nalpha       = 9
  Nbeta        = 9

  ==> Algorithm <==

  SCF Algorithm Type is DF.
  DIIS enabled.
  MOM disabled.
  Fractional occupation disabled.
  Guess Type is READ.
  Energy threshold   = 1.00e-08
  Density threshold  = 1.00e-08
  Integral threshold = 0.00e+00

  ==> Primary Basis <==

  Basis Set: AUG-CC-PV(D+D)Z
    Blend: AUG-CC-PV(D+D)Z
    Number of shells: 18
    Number of basis function: 46
    Number of Cartesian functions: 50
    Spherical Harmonics?: true
    Max angular momentum: 2

  ==> DFT Potential <==

   => Composite Functional: WB97X-V <= 

    wB97X-V Hyb-GGA Exchange-Correlation Functional

    N. Mardirossian and M. Head-Gordon, Phys. Chem. Chem. Phys. 16, 9904 (2014)

    Deriv               =              1
    GGA                 =           TRUE
    Meta                =          FALSE

    Exchange Hybrid     =           TRUE
    MP2 Hybrid          =          FALSE

   => Exchange-Correlation Functionals <=

    1.0000   wB97X-V range-separated functional

   => Exact (HF) Exchange <=

    0.8330            HF,LR [omega = 0.3000]
    0.1670               HF 

   => VV10 Non-Local Parameters <=

    VV10 B              =     6.0000E+00
    VV10 C              =     1.0000E-02

   => Molecular Quadrature <=

    Radial Scheme          =       TREUTLER
    Pruning Scheme         =           FLAT
    Nuclear Scheme         =       TREUTLER

    BS radius alpha        =              1
    Pruning alpha          =              1
    Radial Points          =             75
    Spherical Points       =            302
    Total Points           =          44696
    Total Blocks           =            410
    Max Points             =            256
    Max Functions          =             46

   => Loading Basis Set <=

    Name: (AUG-CC-PV(D+D)Z AUX)
    Role: JKFIT
    Keyword: DF_BASIS_SCF
    atoms 1-2 entry F          line   328 file /work/zw18965/.conda/envs/p4env/share/psi4/basis/aug-cc-pvdz-jkfit.gbs 

   => Loading Basis Set <=

    Name: AUG-CC-PV(D+D)Z
    Role: ORBITAL
    Keyword: BASIS
    atoms 1-2 entry F          line   306 file /work/zw18965/.conda/envs/p4env/share/psi4/basis/aug-cc-pv_dpd_z.gbs 

  Reading orbitals from file 180, no projection.

  ==> Pre-Iterations <==

   -------------------------------------------------------
    Irrep   Nso     Nmo     Nalpha   Nbeta   Ndocc  Nsocc
   -------------------------------------------------------
     Ag        11      11       0       0       0       0
     B1g        2       2       0       0       0       0
     B2g        5       5       0       0       0       0
     B3g        5       5       0       0       0       0
     Au         2       2       0       0       0       0
     B1u       11      11       0       0       0       0
     B2u        5       5       0       0       0       0
     B3u        5       5       0       0       0       0
   -------------------------------------------------------
    Total      46      46       9       9       9       0
   -------------------------------------------------------

  ==> Integral Setup <==

  ==> DiskDFJK: Density-Fitted J/K Matrices <==

    J tasked:                  Yes
    K tasked:                  Yes
    wK tasked:                 Yes
    Omega:               3.000E-01
    OpenMP threads:             24
    Integrals threads:          24
    Memory [MiB]:           102939
    Algorithm:                Core
    Integral Cache:           NONE
    Schwarz Cutoff:          1E-12
    Fitting Condition:       1E-10

   => Auxiliary Basis Set <=

  Basis Set: (AUG-CC-PV(D+D)Z AUX)
    Blend: AUG-CC-PVDZ-JKFIT
    Number of shells: 56
    Number of basis function: 172
    Number of Cartesian functions: 202
    Spherical Harmonics?: true
    Max angular momentum: 3

  Cached 100.0% of DFT collocation blocks in 0.056 [GiB].

  Minimum eigenvalue in the overlap matrix is 3.3992198314E-03.
  Using Symmetric Orthogonalization.

  SCF Guess: Orbitals guess was supplied from a previous computation.

  ==> Iterations <==

                           Total Energy        Delta E     RMS |[F,P]|

   @DF-RKS iter   0:  -199.46760307952266   -1.99468e+02   4.50286e-04 
   @DF-RKS iter   1:  -199.46646582687379    1.13725e-03   9.88344e-05 DIIS
   @DF-RKS iter   2:  -199.46646661645934   -7.89586e-07   4.43122e-05 DIIS
   @DF-RKS iter   3:  -199.46646680341604   -1.86957e-07   5.81076e-06 DIIS
   @DF-RKS iter   4:  -199.46646680777033   -4.35429e-09   1.47389e-06 DIIS
   @DF-RKS iter   5:  -199.46646680811125   -3.40918e-10   6.80108e-08 DIIS
   @DF-RKS iter   6:  -199.46646680811267   -1.42109e-12   5.33307e-09 DIIS
  Energy and wave function converged.


  ==> Post-Iterations <==

    Orbital Energies [Eh]
    ---------------------

    Doubly Occupied:                                                      

       1B1u  -24.899926     1Ag   -24.899868     2Ag    -1.503470  
       2B1u   -1.241980     3Ag    -0.723740     1B2u   -0.668088  
       1B3u   -0.668088     1B3g   -0.526795     1B2g   -0.526795  

    Virtual:                                                              

       3B1u   -0.039932     4B1u    0.177355     4Ag     0.190530  
       2B2u    0.221349     2B3u    0.221349     2B3g    0.283272  
       2B2g    0.283272     5Ag     0.293296     5B1u    0.491123  
       1B1g    1.075064     6Ag     1.075067     3B2u    1.129196  
       3B3u    1.129196     7Ag     1.285092     1Au     1.376516  
       6B1u    1.376519     4B3u    1.389709     4B2u    1.389709  
       7B1u    1.417403     3B2g    1.419146     3B3g    1.419146  
       8B1u    1.688044     8Ag     1.860949     4B3g    1.942930  
       4B2g    1.942930     9Ag     2.104874     9B1u    3.880722  
       2B1g    4.420756    10Ag     4.420759    11Ag     4.452845  
       5B3u    4.496533     5B2u    4.496533     2Au     4.510511  
      10B1u    4.510514     5B3g    4.583643     5B2g    4.583643  
      11B1u    4.811331  

    Final Occupation by Irrep:
             Ag   B1g   B2g   B3g    Au   B1u   B2u   B3u 
    DOCC [     3,    0,    1,    1,    0,    2,    1,    1 ]

  @DF-RKS Final Energy:  -199.46646680811267

   => Energetics <=

    Nuclear Repulsion Energy =             30.9219538980037214
    One-Electron Energy =                -339.3330064255850971
    Two-Electron Energy =                 123.8645180979664104
    DFT Exchange-Correlation Energy =     -14.9969405670867211
    Empirical Dispersion Energy =           0.0000000000000000
    VV10 Nonlocal Energy =                  0.0770081885890046
    Total Energy =                       -199.4664668081126706

Computation Completed


Properties will be evaluated at   0.000000,   0.000000,   0.000000 [a0]

Properties computed using the SCF density matrix

  Nuclear Dipole Moment: [e a0]
     X:     0.0000      Y:     0.0000      Z:     0.0000

  Electronic Dipole Moment: [e a0]
     X:     0.0000      Y:     0.0000      Z:     0.0000

  Dipole Moment: [e a0]
     X:     0.0000      Y:     0.0000      Z:     0.0000     Total:     0.0000

  Dipole Moment: [D]
     X:     0.0000      Y:     0.0000      Z:     0.0000     Total:     0.0000


*** tstop() called on bp1-compute00099.data.bp.acrc.priv at Tue Apr 27 17:52:07 2021
Module time:
	user time   =      29.83 seconds =       0.50 minutes
	system time =       1.10 seconds =       0.02 minutes
	total time  =          2 seconds =       0.03 minutes
Total time:
	user time   =     240.53 seconds =       4.01 minutes
	system time =       9.38 seconds =       0.16 minutes
	total time  =         11 seconds =       0.18 minutes

  //>>>>>>>>>>>>>>>>>>>>>>>>>>>>>>>>>>>//
  //    Loading displacement 2 of 3    //
  //<<<<<<<<<<<<<<<<<<<<<<<<<<<<<<<<<<<//

*** tstart() called on bp1-compute00099.data.bp.acrc.priv
*** at Tue Apr 27 17:52:07 2021

   => Loading Basis Set <=

    Name: AUG-CC-PV(D+D)Z
    Role: ORBITAL
    Keyword: BASIS
    atoms 1-2 entry F          line   306 file /work/zw18965/.conda/envs/p4env/share/psi4/basis/aug-cc-pv_dpd_z.gbs 


         ---------------------------------------------------------
                                   SCF
               by Justin Turney, Rob Parrish, Andy Simmonett
                          and Daniel G. A. Smith
                              RKS Reference
                       24 Threads, 137329 MiB Core
         ---------------------------------------------------------

  ==> Geometry <==

    Molecular point group: d2h
    Full point group: D_inf_h

    Geometry (in Angstrom), charge = 0, multiplicity = 1:

       Center              X                  Y                   Z               Mass       
    ------------   -----------------  -----------------  -----------------  -----------------
         F            0.000000000000     0.000000000000    -0.693518590805    18.998403162730
         F            0.000000000000     0.000000000000     0.693518590805    18.998403162730

  Running in d2h symmetry.

  Rotational constants: A = ************  B =      0.92243  C =      0.92243 [cm^-1]
  Rotational constants: A = ************  B =  27653.74088  C =  27653.74088 [MHz]
  Nuclear repulsion =   30.902815463494530

  Charge       = 0
  Multiplicity = 1
  Electrons    = 18
  Nalpha       = 9
  Nbeta        = 9

  ==> Algorithm <==

  SCF Algorithm Type is DF.
  DIIS enabled.
  MOM disabled.
  Fractional occupation disabled.
  Guess Type is READ.
  Energy threshold   = 1.00e-08
  Density threshold  = 1.00e-08
  Integral threshold = 0.00e+00

  ==> Primary Basis <==

  Basis Set: AUG-CC-PV(D+D)Z
    Blend: AUG-CC-PV(D+D)Z
    Number of shells: 18
    Number of basis function: 46
    Number of Cartesian functions: 50
    Spherical Harmonics?: true
    Max angular momentum: 2

  ==> DFT Potential <==

   => Composite Functional: WB97X-V <= 

    wB97X-V Hyb-GGA Exchange-Correlation Functional

    N. Mardirossian and M. Head-Gordon, Phys. Chem. Chem. Phys. 16, 9904 (2014)

    Deriv               =              1
    GGA                 =           TRUE
    Meta                =          FALSE

    Exchange Hybrid     =           TRUE
    MP2 Hybrid          =          FALSE

   => Exchange-Correlation Functionals <=

    1.0000   wB97X-V range-separated functional

   => Exact (HF) Exchange <=

    0.8330            HF,LR [omega = 0.3000]
    0.1670               HF 

   => VV10 Non-Local Parameters <=

    VV10 B              =     6.0000E+00
    VV10 C              =     1.0000E-02

   => Molecular Quadrature <=

    Radial Scheme          =       TREUTLER
    Pruning Scheme         =           FLAT
    Nuclear Scheme         =       TREUTLER

    BS radius alpha        =              1
    Pruning alpha          =              1
    Radial Points          =             75
    Spherical Points       =            302
    Total Points           =          44696
    Total Blocks           =            410
    Max Points             =            256
    Max Functions          =             46

   => Loading Basis Set <=

    Name: (AUG-CC-PV(D+D)Z AUX)
    Role: JKFIT
    Keyword: DF_BASIS_SCF
    atoms 1-2 entry F          line   328 file /work/zw18965/.conda/envs/p4env/share/psi4/basis/aug-cc-pvdz-jkfit.gbs 

   => Loading Basis Set <=

    Name: AUG-CC-PV(D+D)Z
    Role: ORBITAL
    Keyword: BASIS
[...]
   @DF-RKS iter   2:  -199.46432675710901   -1.67785e-02   5.14653e-03 DIIS
   @DF-RKS iter   3:  -199.46642506074465   -2.09830e-03   5.04018e-04 DIIS
   @DF-RKS iter   4:  -199.46645868476310   -3.36240e-05   2.62267e-04 DIIS
   @DF-RKS iter   5:  -199.46646651005770   -7.82529e-06   1.91402e-05 DIIS
   @DF-RKS iter   6:  -199.46646657218105   -6.21233e-08   6.03580e-07 DIIS
   @DF-RKS iter   7:  -199.46646657226725   -8.62030e-11   5.86932e-08 DIIS
   @DF-RKS iter   8:  -199.46646657226813   -8.81073e-13   4.39248e-09 DIIS
   @DF-RKS iter   9:  -199.46646657226810    2.84217e-14   2.07246e-10 DIIS
   @DF-RKS iter  10:  -199.46646657226802    8.52651e-14   2.21015e-11 DIIS
  Energy and wave function converged.


  ==> Post-Iterations <==

    Orbital Energies [Eh]
    ---------------------

    Doubly Occupied:                                                      

       1B1u  -24.899997     1Ag   -24.899939     2Ag    -1.503026  
       2B1u   -1.242204     3Ag    -0.723548     1B3u   -0.667910  
       1B2u   -0.667910     1B2g   -0.526946     1B3g   -0.526946  

    Virtual:                                                              

       3B1u   -0.040533     4B1u    0.177317     4Ag     0.190523  
       2B2u    0.221357     2B3u    0.221357     2B3g    0.283260  
       2B2g    0.283260     5Ag     0.293314     5B1u    0.491090  
       1B1g    1.075198     6Ag     1.075200     3B3u    1.128836  
       3B2u    1.128836     7Ag     1.285312     1Au     1.376303  
       6B1u    1.376306     4B3u    1.389719     4B2u    1.389719  
       7B1u    1.417104     3B3g    1.419066     3B2g    1.419066  
       8B1u    1.688806     8Ag     1.860775     4B2g    1.942460  
       4B3g    1.942460     9Ag     2.103215     9B1u    3.879183  
       2B1g    4.420755    10Ag     4.420757    11Ag     4.454840  
       5B3u    4.497074     5B2u    4.497074     2Au     4.510496  
      10B1u    4.510499     5B2g    4.583183     5B3g    4.583183  
      11B1u    4.809502  

    Final Occupation by Irrep:
             Ag   B1g   B2g   B3g    Au   B1u   B2u   B3u 
    DOCC [     3,    0,    1,    1,    0,    2,    1,    1 ]

  @DF-RKS Final Energy:  -199.46646657226802

   => Energetics <=

    Nuclear Repulsion Energy =             30.9028154634945373
    One-Electron Energy =                -339.2956209663927325
    Two-Electron Energy =                 123.8458810964191912
    DFT Exchange-Correlation Energy =     -14.9965516556421932
    Empirical Dispersion Energy =           0.0000000000000000
    VV10 Nonlocal Energy =                  0.0770094898531460
    Total Energy =                       -199.4664665722680184

Computation Completed


Properties will be evaluated at   0.000000,   0.000000,   0.000000 [a0]

Properties computed using the SCF density matrix

  Nuclear Dipole Moment: [e a0]
     X:     0.0000      Y:     0.0000      Z:    -0.0000

  Electronic Dipole Moment: [e a0]
     X:     0.0000      Y:     0.0000      Z:     0.0000

  Dipole Moment: [e a0]
     X:     0.0000      Y:     0.0000      Z:    -0.0000     Total:     0.0000

  Dipole Moment: [D]
     X:     0.0000      Y:     0.0000      Z:    -0.0000     Total:     0.0000


*** tstop() called on bp1-compute00099.data.bp.acrc.priv at Tue Apr 27 17:52:18 2021
Module time:
	user time   =      40.99 seconds =       0.68 minutes
	system time =       1.40 seconds =       0.02 minutes
	total time  =          2 seconds =       0.03 minutes
Total time:
	user time   =     499.05 seconds =       8.32 minutes
	system time =      18.62 seconds =       0.31 minutes
	total time  =         22 seconds =       0.37 minutes

  //>>>>>>>>>>>>>>>>>>>>>>>>>>>>>>>>>>>//
  //    Loading displacement 3 of 3    //
  //<<<<<<<<<<<<<<<<<<<<<<<<<<<<<<<<<<<//

*** tstart() called on bp1-compute00099.data.bp.acrc.priv
*** at Tue Apr 27 17:52:18 2021

   => Loading Basis Set <=

    Name: AUG-CC-PV(D+D)Z
    Role: ORBITAL
    Keyword: BASIS
    atoms 1-2 entry F          line   306 file /work/zw18965/.conda/envs/p4env/share/psi4/basis/aug-cc-pv_dpd_z.gbs 


         ---------------------------------------------------------
                                   SCF
               by Justin Turney, Rob Parrish, Andy Simmonett
                          and Daniel G. A. Smith
                              RKS Reference
                       24 Threads, 137329 MiB Core
         ---------------------------------------------------------

  ==> Geometry <==

    Molecular point group: d2h
    Full point group: D_inf_h

    Geometry (in Angstrom), charge = 0, multiplicity = 1:

       Center              X                  Y                   Z               Mass       
    ------------   -----------------  -----------------  -----------------  -----------------
         F            0.000000000000     0.000000000000    -0.692660115937    18.998403162730
         F            0.000000000000     0.000000000000     0.692660115937    18.998403162730

  Running in d2h symmetry.

  Rotational constants: A = ************  B =      0.92472  C =      0.92472 [cm^-1]
  Rotational constants: A = ************  B =  27722.33081  C =  27722.33081 [MHz]
  Nuclear repulsion =   30.941116052465365

  Charge       = 0
  Multiplicity = 1
  Electrons    = 18
  Nalpha       = 9
  Nbeta        = 9

  ==> Algorithm <==

  SCF Algorithm Type is DF.
  DIIS enabled.
  MOM disabled.
  Fractional occupation disabled.
  Guess Type is SAD.
  Energy threshold   = 1.00e-10
  Density threshold  = 1.00e-10
  Integral threshold = 0.00e+00

  ==> Primary Basis <==

  Basis Set: AUG-CC-PV(D+D)Z
    Blend: AUG-CC-PV(D+D)Z
    Number of shells: 18
    Number of basis function: 46
    Number of Cartesian functions: 50
    Spherical Harmonics?: true
    Max angular momentum: 2

  ==> DFT Potential <==

   => Composite Functional: WB97X-V <= 

    wB97X-V Hyb-GGA Exchange-Correlation Functional

    N. Mardirossian and M. Head-Gordon, Phys. Chem. Chem. Phys. 16, 9904 (2014)

    Deriv               =              1
    GGA                 =           TRUE
    Meta                =          FALSE

    Exchange Hybrid     =           TRUE
    MP2 Hybrid          =          FALSE

   => Exchange-Correlation Functionals <=

    1.0000   wB97X-V range-separated functional

   => Exact (HF) Exchange <=

    0.8330            HF,LR [omega = 0.3000]
    0.1670               HF 

   => VV10 Non-Local Parameters <=

    VV10 B              =     6.0000E+00
    VV10 C              =     1.0000E-02

   => Molecular Quadrature <=

    Radial Scheme          =       TREUTLER
    Pruning Scheme         =           FLAT
    Nuclear Scheme         =       TREUTLER

    BS radius alpha        =              1
    Pruning alpha          =              1
    Radial Points          =             75
    Spherical Points       =            302
    Total Points           =          44696
    Total Blocks           =            410
    Max Points             =            256
    Max Functions          =             46

   => Loading Basis Set <=

    Name: (AUG-CC-PV(D+D)Z AUX)
    Role: JKFIT
    Keyword: DF_BASIS_SCF
    atoms 1-2 entry F          line   328 file /work/zw18965/.conda/envs/p4env/share/psi4/basis/aug-cc-pvdz-jkfit.gbs 

  ==> Pre-Iterations <==

   -------------------------------------------------------
    Irrep   Nso     Nmo     Nalpha   Nbeta   Ndocc  Nsocc
   -------------------------------------------------------
     Ag        11      11       0       0       0       0
     B1g        2       2       0       0       0       0
     B2g        5       5       0       0       0       0
     B3g        5       5       0       0       0       0
     Au         2       2       0       0       0       0
     B1u       11      11       0       0       0       0
     B2u        5       5       0       0       0       0
     B3u        5       5       0       0       0       0
   -------------------------------------------------------
    Total      46      46       9       9       9       0
   -------------------------------------------------------

  ==> Integral Setup <==

  ==> DiskDFJK: Density-Fitted J/K Matrices <==

    J tasked:                  Yes
    K tasked:                  Yes
    wK tasked:                 Yes
    Omega:               3.000E-01
    OpenMP threads:             24
    Integrals threads:          24
    Memory [MiB]:           102939
    Algorithm:                Core
    Integral Cache:           NONE
    Schwarz Cutoff:          1E-12
    Fitting Condition:       1E-10

   => Auxiliary Basis Set <=

  Basis Set: (AUG-CC-PV(D+D)Z AUX)
    Blend: AUG-CC-PVDZ-JKFIT
    Number of shells: 56
    Number of basis function: 172
    Number of Cartesian functions: 202
    Spherical Harmonics?: true
    Max angular momentum: 3

  Cached 100.0% of DFT collocation blocks in 0.056 [GiB].

  Minimum eigenvalue in the overlap matrix is 3.3877486450E-03.
  Using Symmetric Orthogonalization.

  SCF Guess: Superposition of Atomic Densities via on-the-fly atomic UHF.

  ==> Iterations <==

                           Total Energy        Delta E     RMS |[F,P]|

   @DF-RKS iter SAD:  -199.09803754156621   -1.99098e+02   0.00000e+00 
   @DF-RKS iter   1:  -199.44745549826837   -3.49418e-01   1.23393e-02 DIIS
   @DF-RKS iter   2:  -199.46431778541984   -1.68623e-02   5.15766e-03 DIIS
   @DF-RKS iter   3:  -199.46642419165576   -2.10641e-03   5.05686e-04 DIIS
   @DF-RKS iter   4:  -199.46645799599185   -3.38043e-05   2.63224e-04 DIIS
   @DF-RKS iter   5:  -199.46646587854488   -7.88255e-06   1.91248e-05 DIIS
   @DF-RKS iter   6:  -199.46646594061801   -6.20731e-08   6.05078e-07 DIIS
   @DF-RKS iter   7:  -199.46646594070478   -8.67715e-11   5.87945e-08 DIIS
   @DF-RKS iter   8:  -199.46646594070549   -7.10543e-13   4.39044e-09 DIIS
   @DF-RKS iter   9:  -199.46646594070558   -8.52651e-14   2.06267e-10 DIIS
   @DF-RKS iter  10:  -199.46646594070560   -2.84217e-14   2.17051e-11 DIIS
  Energy and wave function converged.


  ==> Post-Iterations <==

    Orbital Energies [Eh]
    ---------------------

    Doubly Occupied:                                                      

       1B1u  -24.899854     1Ag   -24.899796     2Ag    -1.503917  
       2B1u   -1.241756     3Ag    -0.723933     1B3u   -0.668267  
       1B2u   -0.668267     1B2g   -0.526644     1B3g   -0.526644  

    Virtual:                                                              

       3B1u   -0.039330     4B1u    0.177393     4Ag     0.190537  
       2B3u    0.221342     2B2u    0.221342     2B3g    0.283284  
       2B2g    0.283284     5Ag     0.293278     5B1u    0.491156  
       1B1g    1.074931     6Ag     1.074933     3B2u    1.129558  
       3B3u    1.129558     7Ag     1.284871     1Au     1.376729  
       6B1u    1.376731     4B3u    1.389700     4B2u    1.389700  
       7B1u    1.417703     3B2g    1.419226     3B3g    1.419226  
       8B1u    1.687281     8Ag     1.861116     4B2g    1.943400  
       4B3g    1.943400     9Ag     2.106541     9B1u    3.882259  
       2B1g    4.420757    10Ag     4.420759    11Ag     4.450848  
       5B2u    4.495987     5B3u    4.495987     2Au     4.510526  
      10B1u    4.510529     5B3g    4.584107     5B2g    4.584107  
      11B1u    4.813163  

    Final Occupation by Irrep:
             Ag   B1g   B2g   B3g    Au   B1u   B2u   B3u 
    DOCC [     3,    0,    1,    1,    0,    2,    1,    1 ]

  @DF-RKS Final Energy:  -199.46646594070560

   => Energetics <=

    Nuclear Repulsion Energy =             30.9411160524653646
    One-Electron Energy =                -339.3704346633246018
    Two-Electron Energy =                 123.8831761708240720
    DFT Exchange-Correlation Energy =     -14.9973303889227907
    Empirical Dispersion Energy =           0.0000000000000000
    VV10 Nonlocal Energy =                  0.0770068882523604
    Total Energy =                       -199.4664659407056035

Computation Completed


Properties will be evaluated at   0.000000,   0.000000,   0.000000 [a0]

Properties computed using the SCF density matrix

  Nuclear Dipole Moment: [e a0]
     X:     0.0000      Y:     0.0000      Z:    -0.0000

  Electronic Dipole Moment: [e a0]
     X:     0.0000      Y:     0.0000      Z:     0.0000

  Dipole Moment: [e a0]
     X:     0.0000      Y:     0.0000      Z:    -0.0000     Total:     0.0000

  Dipole Moment: [D]
     X:     0.0000      Y:     0.0000      Z:    -0.0000     Total:     0.0000


*** tstop() called on bp1-compute00099.data.bp.acrc.priv at Tue Apr 27 17:52:20 2021
Module time:
	user time   =      40.44 seconds =       0.67 minutes
	system time =       1.35 seconds =       0.02 minutes
	total time  =          2 seconds =       0.03 minutes
Total time:
	user time   =     539.62 seconds =       8.99 minutes
	system time =      19.97 seconds =       0.33 minutes
	total time  =         24 seconds =       0.40 minutes

         ----------------------------------------------------------
                                   FINDIF
                     R. A. King and Jonathon Misiewicz
         ---------------------------------------------------------

  Computing second-derivative from energies using projected, 
  symmetry-adapted, cartesian coordinates.

  3 energies passed in, including the reference geometry.
    Using 3-point formula.
    Energy without displacement: -199.4664668081
    Check energies below for precision!
    0: -1 :      -199.4664665723
    0: 1  :      -199.4664659407

-------------------------------------------------------------


  ==> Harmonic Vibrational Analysis <==

  non-mass-weighted Hessian:       Symmetric? True   Hermitian? True   Lin Dep Dim?  5 (0)
  projection of translations (True) and rotations (True) removed 5 degrees of freedom (5)
  total projector:                 Symmetric? True   Hermitian? True   Lin Dep Dim?  5 (5)
  mass-weighted Hessian:           Symmetric? True   Hermitian? True   Lin Dep Dim?  5 (0)
  pre-proj  low-frequency mode:    0.0000  [cm^-1]
  pre-proj  low-frequency mode:    0.0000  [cm^-1]
  pre-proj  low-frequency mode:    0.0000  [cm^-1]
  pre-proj  low-frequency mode:    0.0000  [cm^-1]
  pre-proj  low-frequency mode:    0.0000  [cm^-1]
  pre-proj  all modes:['0.0000' '0.0000' '0.0000' '0.0000' '0.0000' '1079.8702']
  projected mass-weighted Hessian: Symmetric? True   Hermitian? True   Lin Dep Dim?  5 (5)
  post-proj low-frequency mode:    0.0000  [cm^-1] (TR)
  post-proj low-frequency mode:    0.0000  [cm^-1] (TR)
  post-proj low-frequency mode:    0.0000  [cm^-1] (TR)
  post-proj low-frequency mode:    0.0000  [cm^-1] (TR)
  post-proj low-frequency mode:    0.0000  [cm^-1] (TR)
  post-proj  all modes:['0.0000' '0.0000' '0.0000' '0.0000' '0.0000' '1079.8702']

  Vibration                       6           
  Freq [cm^-1]                1079.8702       
  Irrep                           Ag          
  Reduced mass [u]             18.9984        
  Force const [mDyne/A]        13.0530        
  Turning point v=0 [a0]        0.0766        
  RMS dev v=0 [a0 u^1/2]        0.2361        
  Char temp [K]               1553.6928       
  ----------------------------------------------------------------------------------
      1   F                0.00  0.00  0.71   
      2   F                0.00  0.00 -0.71   

  ==> Thermochemistry Components <==

  Entropy, S
    Electronic S            0.000 [cal/(mol K)]        0.000 [J/(mol K)]       0.00000000 [mEh/K] (multiplicity = 1)
    Translational S        36.834 [cal/(mol K)]      154.112 [J/(mol K)]       0.05869802 [mEh/K] (mol. weight = 37.9968 [u], P = 101325.00 [Pa])
    Rotational S           11.367 [cal/(mol K)]       47.560 [J/(mol K)]       0.01811467 [mEh/K] (symmetry no. = 2)
    Vibrational S           0.068 [cal/(mol K)]        0.283 [J/(mol K)]       0.00010785 [mEh/K]
  Total S                  48.268 [cal/(mol K)]      201.955 [J/(mol K)]       0.07692053 [mEh/K]
  Correction S              0.000 [cal/(mol K)]        0.000 [J/(mol K)]       0.00000000 [mEh/K]

  Constant volume heat capacity, Cv
    Electronic Cv           0.000 [cal/(mol K)]        0.000 [J/(mol K)]       0.00000000 [mEh/K]
    Translational Cv        2.981 [cal/(mol K)]       12.472 [J/(mol K)]       0.00475022 [mEh/K]
    Rotational Cv           1.987 [cal/(mol K)]        8.314 [J/(mol K)]       0.00316681 [mEh/K]
    Vibrational Cv          0.298 [cal/(mol K)]        1.245 [J/(mol K)]       0.00047433 [mEh/K]
  Total Cv                  5.266 [cal/(mol K)]       22.031 [J/(mol K)]       0.00839135 [mEh/K]
  Correction Cv             0.000 [cal/(mol K)]        0.000 [J/(mol K)]       0.00000000 [mEh/K]

  Constant pressure heat capacity, Cp
    Electronic Cp           0.000 [cal/(mol K)]        0.000 [J/(mol K)]       0.00000000 [mEh/K]
    Translational Cp        4.968 [cal/(mol K)]       20.786 [J/(mol K)]       0.00791703 [mEh/K]
    Rotational Cp           1.987 [cal/(mol K)]        8.314 [J/(mol K)]       0.00316681 [mEh/K]
    Vibrational Cp          0.298 [cal/(mol K)]        1.245 [J/(mol K)]       0.00047433 [mEh/K]
  Total Cp                  7.253 [cal/(mol K)]       30.346 [J/(mol K)]       0.01155816 [mEh/K]
  Correction Cp             0.000 [cal/(mol K)]        0.000 [J/(mol K)]       0.00000000 [mEh/K]

  ==> Thermochemistry Energy Analysis <==

  Raw electronic energy, E0
  Total E0, Electronic energy at well bottom at 0 [K]                 -199.46646681 [Eh]

  Zero-point energy, ZPE_vib = Sum_i nu_i / 2
    Electronic ZPE          0.000 [kcal/mol]        0.000 [kJ/mol]       0.00000000 [Eh]
    Translational ZPE       0.000 [kcal/mol]        0.000 [kJ/mol]       0.00000000 [Eh]
    Rotational ZPE          0.000 [kcal/mol]        0.000 [kJ/mol]       0.00000000 [Eh]
    Vibrational ZPE         1.544 [kcal/mol]        6.459 [kJ/mol]       0.00246013 [Eh]         539.935 [cm^-1]
  Correction ZPE            1.544 [kcal/mol]        6.459 [kJ/mol]       0.00246013 [Eh]         539.935 [cm^-1]
  Total ZPE, Electronic energy at 0 [K]                               -199.46400668 [Eh]

  Thermal Energy, E (includes ZPE)
    Electronic E            0.000 [kcal/mol]        0.000 [kJ/mol]       0.00000000 [Eh]
    Translational E         0.889 [kcal/mol]        3.718 [kJ/mol]       0.00141628 [Eh]
    Rotational E            0.592 [kcal/mol]        2.479 [kJ/mol]       0.00094418 [Eh]
    Vibrational E           1.561 [kcal/mol]        6.530 [kJ/mol]       0.00248712 [Eh]
  Correction E              3.042 [kcal/mol]       12.727 [kJ/mol]       0.00484758 [Eh]
  Total E, Electronic energy at  298.15 [K]                           -199.46161923 [Eh]

  Enthalpy, H_trans = E_trans + k_B * T
    Electronic H            0.000 [kcal/mol]        0.000 [kJ/mol]       0.00000000 [Eh]
    Translational H         1.481 [kcal/mol]        6.197 [kJ/mol]       0.00236046 [Eh]
    Rotational H            0.592 [kcal/mol]        2.479 [kJ/mol]       0.00094418 [Eh]
    Vibrational H           1.561 [kcal/mol]        6.530 [kJ/mol]       0.00248712 [Eh]
  Correction H              3.634 [kcal/mol]       15.206 [kJ/mol]       0.00579176 [Eh]
  Total H, Enthalpy at  298.15 [K]                                    -199.46067505 [Eh]

  Gibbs free energy, G = H - T * S
    Electronic G            0.000 [kcal/mol]        0.000 [kJ/mol]       0.00000000 [Eh]
    Translational G        -9.501 [kcal/mol]      -39.751 [kJ/mol]      -0.01514035 [Eh]
    Rotational G           -2.797 [kcal/mol]      -11.701 [kJ/mol]      -0.00445670 [Eh]
    Vibrational G           1.541 [kcal/mol]        6.445 [kJ/mol]       0.00245496 [Eh]
  Correction G            -10.757 [kcal/mol]      -45.007 [kJ/mol]      -0.01714210 [Eh]
  Total G, Free enthalpy at  298.15 [K]                               -199.48360890 [Eh]

    Psi4 stopped on: Tuesday, 27 April 2021 05:52PM
    Psi4 wall time for execution: 0:00:23.97

*** Psi4 exiting successfully. Buy a developer a beer!
