
    -----------------------------------------------------------------------
          Psi4: An Open-Source Ab Initio Electronic Structure Package
                               Psi4 1.3.2 release

                         Git: Rev {HEAD} ecbda83 


    R. M. Parrish, L. A. Burns, D. G. A. Smith, A. C. Simmonett,
    A. E. DePrince III, E. G. Hohenstein, U. Bozkaya, A. Yu. Sokolov,
    R. Di Remigio, R. M. Richard, J. F. Gonthier, A. M. James,
    H. R. McAlexander, A. Kumar, M. Saitow, X. Wang, B. P. Pritchard,
    P. Verma, H. F. Schaefer III, K. Patkowski, R. A. King, E. F. Valeev,
    F. A. Evangelista, J. M. Turney, T. D. Crawford, and C. D. Sherrill,
    J. Chem. Theory Comput. 13(7) pp 3185--3197 (2017).
    (doi: 10.1021/acs.jctc.7b00174)


                         Additional Contributions by
    P. Kraus, H. Kruse, M. H. Lechner, M. C. Schieber, R. A. Shaw,
    A. Alenaizan, R. Galvelis, Z. L. Glick, S. Lehtola, and J. P. Misiewicz

    -----------------------------------------------------------------------


    Psi4 started on: Tuesday, 27 April 2021 05:52PM

    Process ID: 188784
    Host:       bp1-compute00090.data.bp.acrc.priv
    PSIDATADIR: /work/zw18965/.conda/envs/p4env/share/psi4
    Memory:     500.0 MiB
    Threads:    24
    
  ==> Input File <==

--------------------------------------------------------------------------
memory 144 GB

molecule {
0 1
S 0.0000000000 0.0000000000 0.0000000000
C 0.0000000000 0.0000000000 1.2066000000
H 0.9369544103 0.0000000000 1.7870836544
H -0.9369544103 0.0000000000 1.7870836544
}

set dynamic_level 1
set basis aug-cc-pV(D+d)Z
 
optimize("wB97X-V")
frequencies("wB97X-V")
--------------------------------------------------------------------------

  Memory set to 134.110 GiB by Python driver.
gradient() will perform gradient computation by finite difference of analytic energies.

         ----------------------------------------------------------
                                   FINDIF
                     R. A. King and Jonathon Misiewicz
         ---------------------------------------------------------

  Using finite-differences of energies to determine gradients.
    Generating geometries for use with 3-point formula.
    Displacement size will be 5.00e-03.
    Number of atoms is 4.
    Number of symmetric SALCs is 3.
    Translations projected? 1. Rotations projected? 1.
    Number of geometries (including reference) is 7.

  //>>>>>>>>>>>>>>>>>>>>>>>>>>>>>>>>>>>//
  //    Loading displacement 1 of 7    //
  //<<<<<<<<<<<<<<<<<<<<<<<<<<<<<<<<<<<//

*** tstart() called on bp1-compute00090.data.bp.acrc.priv
*** at Tue Apr 27 17:52:14 2021

   => Loading Basis Set <=

    Name: AUG-CC-PV(D+D)Z
    Role: ORBITAL
    Keyword: BASIS
    atoms 1   entry S          line   724 file /work/zw18965/.conda/envs/p4env/share/psi4/basis/aug-cc-pv_dpd_z.gbs 
    atoms 2   entry C          line   198 file /work/zw18965/.conda/envs/p4env/share/psi4/basis/aug-cc-pv_dpd_z.gbs 
    atoms 3-4 entry H          line    56 file /work/zw18965/.conda/envs/p4env/share/psi4/basis/aug-cc-pv_dpd_z.gbs 


         ---------------------------------------------------------
                                   SCF
               by Justin Turney, Rob Parrish, Andy Simmonett
                          and Daniel G. A. Smith
                              RKS Reference
                       24 Threads, 137329 MiB Core
         ---------------------------------------------------------

  ==> Geometry <==

    Molecular point group: c2v
    Full point group: C2v

    Geometry (in Angstrom), charge = 0, multiplicity = 1:

       Center              X                  Y                   Z               Mass       
    ------------   -----------------  -----------------  -----------------  -----------------
         S            0.000000000000    -0.000000000000    -0.393177456854    31.972071174400
         C            0.000000000000    -0.000000000000     0.813422543146    12.000000000000
         H            0.936954410300     0.000000000000     1.393906197546     1.007825032230
         H           -0.936954410300    -0.000000000000     1.393906197546     1.007825032230

  Running in c2v symmetry.

  Rotational constants: A =      9.52674  B =      1.00351  C =      0.90787 [cm^-1]
  Rotational constants: A = 285604.56383  B =  30084.32876  C =  27217.37063 [MHz]
  Nuclear repulsion =   56.538433832306865

  Charge       = 0
  Multiplicity = 1
  Electrons    = 24
  Nalpha       = 12
  Nbeta        = 12

  ==> Algorithm <==

  SCF Algorithm Type is DF.
  DIIS enabled.
  MOM disabled.
  Fractional occupation disabled.
  Guess Type is SAD.
  Energy threshold   = 1.00e-08
  Density threshold  = 1.00e-08
  Integral threshold = 0.00e+00

  ==> Primary Basis <==

  Basis Set: AUG-CC-PV(D+D)Z
    Blend: AUG-CC-PV(D+D)Z
    Number of shells: 31
    Number of basis function: 73
    Number of Cartesian functions: 78
    Spherical Harmonics?: true
    Max angular momentum: 2

  ==> DFT Potential <==

   => Composite Functional: WB97X-V <= 

    wB97X-V Hyb-GGA Exchange-Correlation Functional

    N. Mardirossian and M. Head-Gordon, Phys. Chem. Chem. Phys. 16, 9904 (2014)

    Deriv               =              1
    GGA                 =           TRUE
    Meta                =          FALSE

    Exchange Hybrid     =           TRUE
    MP2 Hybrid          =          FALSE

   => Exchange-Correlation Functionals <=

    1.0000   wB97X-V range-separated functional

   => Exact (HF) Exchange <=

    0.8330            HF,LR [omega = 0.3000]
    0.1670               HF 

   => VV10 Non-Local Parameters <=

    VV10 B              =     6.0000E+00
    VV10 C              =     1.0000E-02

   => Molecular Quadrature <=

    Radial Scheme          =       TREUTLER
    Pruning Scheme         =           FLAT
    Nuclear Scheme         =       TREUTLER

    BS radius alpha        =              1
    Pruning alpha          =              1
    Radial Points          =             75
    Spherical Points       =            302
    Total Points           =          90600
    Total Blocks           =            753
    Max Points             =            254
    Max Functions          =             73

   => Loading Basis Set <=

    Name: (AUG-CC-PV(D+D)Z AUX)
    Role: JKFIT
    Keyword: DF_BASIS_SCF
    atoms 1   entry S          line   690 file /work/zw18965/.conda/envs/p4env/share/psi4/basis/aug-cc-pvdz-jkfit.gbs 
    atoms 2   entry C          line   154 file /work/zw18965/.conda/envs/p4env/share/psi4/basis/aug-cc-pvdz-jkfit.gbs 
    atoms 3-4 entry H          line    70 file /work/zw18965/.conda/envs/p4env/share/psi4/basis/aug-cc-pvdz-jkfit.gbs 

  ==> Pre-Iterations <==

   -------------------------------------------------------
    Irrep   Nso     Nmo     Nalpha   Nbeta   Ndocc  Nsocc
   -------------------------------------------------------
     A1        33      33       0       0       0       0
     A2         7       7       0       0       0       0
     B1        19      19       0       0       0       0
     B2        14      14       0       0       0       0
   -------------------------------------------------------
    Total      73      73      12      12      12       0
   -------------------------------------------------------

  ==> Integral Setup <==

  ==> DiskDFJK: Density-Fitted J/K Matrices <==

    J tasked:                  Yes
    K tasked:                  Yes
    wK tasked:                 Yes
    Omega:               3.000E-01
    OpenMP threads:             24
    Integrals threads:          24
    Memory [MiB]:           102811
    Algorithm:                Core
    Integral Cache:           NONE
    Schwarz Cutoff:          1E-12
    Fitting Condition:       1E-10

   => Auxiliary Basis Set <=

  Basis Set: (AUG-CC-PV(D+D)Z AUX)
    Blend: AUG-CC-PVDZ-JKFIT
    Number of shells: 92
    Number of basis function: 278
    Number of Cartesian functions: 321
    Spherical Harmonics?: true
    Max angular momentum: 3

  Cached 100.0% of DFT collocation blocks in 0.181 [GiB].

  Minimum eigenvalue in the overlap matrix is 1.3852241160E-04.
  Using Symmetric Orthogonalization.

  SCF Guess: Superposition of Atomic Densities via on-the-fly atomic UHF.

  ==> Iterations <==

                           Total Energy        Delta E     RMS |[F,P]|

   @DF-RKS iter SAD:  -437.60346894326500   -4.37603e+02   0.00000e+00 
   @DF-RKS iter   1:  -436.97648294740185    6.26986e-01   1.30102e-02 DIIS
   @DF-RKS iter   2:  -437.03042812350361   -5.39452e-02   9.82028e-03 DIIS
   @DF-RKS iter   3:  -437.10539597363851   -7.49679e-02   9.03510e-04 DIIS
   @DF-RKS iter   4:  -437.10609479129249   -6.98818e-04   2.31811e-04 DIIS
   @DF-RKS iter   5:  -437.10616502557230   -7.02343e-05   3.78294e-05 DIIS
   @DF-RKS iter   6:  -437.10616720139114   -2.17582e-06   7.99234e-06 DIIS
   @DF-RKS iter   7:  -437.10616740846797   -2.07077e-07   1.55170e-06 DIIS
   @DF-RKS iter   8:  -437.10616741887713   -1.04092e-08   3.34671e-07 DIIS
   @DF-RKS iter   9:  -437.10616741945552   -5.78382e-10   6.78746e-08 DIIS
   @DF-RKS iter  10:  -437.10616741947985   -2.43290e-11   1.02909e-08 DIIS
   @DF-RKS iter  11:  -437.10616741947985    0.00000e+00   1.45846e-09 DIIS
  Energy and wave function converged.


  ==> Post-Iterations <==

    Orbital Energies [Eh]
    ---------------------

    Doubly Occupied:                                                      

       1A1   -88.828683     2A1   -10.300458     3A1    -8.032689  
       4A1    -5.987872     1B2    -5.983871     1B1    -5.973140  
       5A1    -1.049877     6A1    -0.677531     2B1    -0.626215  
       2B2    -0.517007     7A1    -0.514289     3B1    -0.296382  

    Virtual:                                                              

       8A1     0.040901     3B2     0.043730     4B1     0.053007  
       9A1     0.072390     4B2     0.098933    10A1     0.119130  
       5B1     0.136367    11A1     0.159949     5B2     0.162709  
       6B1     0.164248    12A1     0.212328    13A1     0.243922  
       1A2     0.267117     7B1     0.280164    14A1     0.328488  
      15A1     0.373179    16A1     0.387452     6B2     0.391576  
       2A2     0.417194     8B1     0.446007     9B1     0.484005  
      17A1     0.495541     7B2     0.518887    10B1     0.550029  
      18A1     0.569544    19A1     0.627701     8B2     0.636284  
       3A2     0.660212    20A1     0.670577    11B1     0.688794  
       9B2     0.720503    21A1     0.822328    12B1     0.823095  
      10B2     0.858734    22A1     0.888629     4A2     0.945873  
      23A1     0.963056    11B2     1.046430    13B1     1.054836  
      14B1     1.096477    24A1     1.337396    25A1     1.470683  
       5A2     1.471755    15B1     1.527076    26A1     1.562441  
      12B2     1.673095    27A1     1.754392    16B1     1.800100  
      28A1     2.045281     6A2     2.064923    13B2     2.070059  
      29A1     2.207132    17B1     2.272180    30A1     2.610964  
      31A1     2.664461    18B1     2.820473     7A2     4.714747  
      32A1     4.737850    14B2     4.753707    19B1     4.806437  
      33A1     4.851051  

    Final Occupation by Irrep:
             A1    A2    B1    B2 
    DOCC [     7,    0,    3,    2 ]

  @DF-RKS Final Energy:  -437.10616741947985

   => Energetics <=

    Nuclear Repulsion Energy =             56.5384338323068647
    One-Electron Energy =                -713.6140185153624316
    Two-Electron Energy =                 243.6449210512719219
    DFT Exchange-Correlation Energy =     -23.7745937492094548
    Empirical Dispersion Energy =           0.0000000000000000
    VV10 Nonlocal Energy =                  0.0990899615132989
    Total Energy =                       -437.1061674194797888

Computation Completed


Properties will be evaluated at   0.000000,   0.000000,   0.000000 [a0]

Properties computed using the SCF density matrix

  Nuclear Dipole Moment: [e a0]
     X:     0.0000      Y:     0.0000      Z:     2.6031

  Electronic Dipole Moment: [e a0]
     X:     0.0000      Y:     0.0000      Z:    -2.2004

  Dipole Moment: [e a0]
     X:     0.0000      Y:     0.0000      Z:     0.4028     Total:     0.4028

  Dipole Moment: [D]
     X:     0.0000      Y:     0.0000      Z:     1.0237     Total:     1.0237


*** tstop() called on bp1-compute00090.data.bp.acrc.priv at Tue Apr 27 17:52:18 2021
Module time:
	user time   =      87.19 seconds =       1.45 minutes
	system time =       3.68 seconds =       0.06 minutes
	total time  =          4 seconds =       0.07 minutes
Total time:
	user time   =      87.19 seconds =       1.45 minutes
	system time =       3.68 seconds =       0.06 minutes
	total time  =          4 seconds =       0.07 minutes

  //>>>>>>>>>>>>>>>>>>>>>>>>>>>>>>>>>>>//
  //    Loading displacement 2 of 7    //
  //<<<<<<<<<<<<<<<<<<<<<<<<<<<<<<<<<<<//

*** tstart() called on bp1-compute00090.data.bp.acrc.priv
*** at Tue Apr 27 17:52:18 2021

   => Loading Basis Set <=

    Name: AUG-CC-PV(D+D)Z
    Role: ORBITAL
    Keyword: BASIS
    atoms 1   entry S          line   724 file /work/zw18965/.conda/envs/p4env/share/psi4/basis/aug-cc-pv_dpd_z.gbs 
    atoms 2   entry C          line   198 file /work/zw18965/.conda/envs/p4env/share/psi4/basis/aug-cc-pv_dpd_z.gbs 
    atoms 3-4 entry H          line    56 file /work/zw18965/.conda/envs/p4env/share/psi4/basis/aug-cc-pv_dpd_z.gbs 


         ---------------------------------------------------------
                                   SCF
               by Justin Turney, Rob Parrish, Andy Simmonett
                          and Daniel G. A. Smith
                              RKS Reference
                       24 Threads, 137329 MiB Core
         ---------------------------------------------------------

  ==> Geometry <==

    Molecular point group: c2v
    Full point group: C2v

    Geometry (in Angstrom), charge = 0, multiplicity = 1:

       Center              X                  Y                   Z               Mass       
    ------------   -----------------  -----------------  -----------------  -----------------
         S            0.000000000000    -0.000000000000    -0.393435784822    31.972071174400
         C            0.000000000000    -0.000000000000     0.814011832988    12.000000000000
         H            0.936954410300     0.000000000000     1.394495487388     1.007825032230
         H           -0.936954410300    -0.000000000000     1.394495487388     1.007825032230

  Running in c2v symmetry.

  Rotational constants: A =      9.52674  B =      1.00223  C =      0.90683 [cm^-1]
  Rotational constants: A = 285604.56383  B =  30046.20069  C =  27186.15954 [MHz]
  Nuclear repulsion =   56.505756996013346

  Charge       = 0
  Multiplicity = 1
  Electrons    = 24
  Nalpha       = 12
  Nbeta        = 12

  ==> Algorithm <==

  SCF Algorithm Type is DF.
  DIIS enabled.
  MOM disabled.
  Fractional occupation disabled.
  Guess Type is SAD.
  Energy threshold   = 1.00e-08
  Density threshold  = 1.00e-08
  Integral threshold = 0.00e+00

  ==> Primary Basis <==

  Basis Set: AUG-CC-PV(D+D)Z
    Blend: AUG-CC-PV(D+D)Z
    Number of shells: 31
    Number of basis function: 73
    Number of Cartesian functions: 78
    Spherical Harmonics?: true
    Max angular momentum: 2

  ==> DFT Potential <==

   => Composite Functional: WB97X-V <= 

    wB97X-V Hyb-GGA Exchange-Correlation Functional

    N. Mardirossian and M. Head-Gordon, Phys. Chem. Chem. Phys. 16, 9904 (2014)

    Deriv               =              1
    GGA                 =           TRUE
    Meta                =          FALSE

    Exchange Hybrid     =           TRUE
    MP2 Hybrid          =          FALSE

   => Exchange-Correlation Functionals <=

    1.0000   wB97X-V range-separated functional

   => Exact (HF) Exchange <=

    0.8330            HF,LR [omega = 0.3000]
    0.1670               HF 

   => VV10 Non-Local Parameters <=

    VV10 B              =     6.0000E+00
    VV10 C              =     1.0000E-02

   => Molecular Quadrature <=

    Radial Scheme          =       TREUTLER
    Pruning Scheme         =           FLAT
    Nuclear Scheme         =       TREUTLER

    BS radius alpha        =              1
    Pruning alpha          =              1
    Radial Points          =             75
    Spherical Points       =            302
    Total Points           =          90600
    Total Blocks           =            752
    Max Points             =            254
    Max Functions          =             73

   => Loading Basis Set <=

    Name: (AUG-CC-PV(D+D)Z AUX)
    Role: JKFIT
    Keyword: DF_BASIS_SCF
    atoms 1   entry S          line   690 file /work/zw18965/.conda/envs/p4env/share/psi4/basis/aug-cc-pvdz-jkfit.gbs 
    atoms 2   entry C          line   154 file /work/zw18965/.conda/envs/p4env/share/psi4/basis/aug-cc-pvdz-jkfit.gbs 
    atoms 3-4 entry H          line    70 file /work/zw18965/.conda/envs/p4env/share/psi4/basis/aug-cc-pvdz-jkfit.gbs 

  ==> Pre-Iterations <==

   -------------------------------------------------------
    Irrep   Nso     Nmo     Nalpha   Nbeta   Ndocc  Nsocc
   -------------------------------------------------------
     A1        33      33       0       0       0       0
     A2         7       7       0       0       0       0
     B1        19      19       0       0       0       0
     B2        14      14       0       0       0       0
   -------------------------------------------------------
    Total      73      73      12      12      12       0
   -------------------------------------------------------

  ==> Integral Setup <==

  ==> DiskDFJK: Density-Fitted J/K Matrices <==

    J tasked:                  Yes
    K tasked:                  Yes
    wK tasked:                 Yes
    Omega:               3.000E-01
    OpenMP threads:             24
    Integrals threads:          24
    Memory [MiB]:           102811
    Algorithm:                Core
    Integral Cache:           NONE
    Schwarz Cutoff:          1E-12
    Fitting Condition:       1E-10

   => Auxiliary Basis Set <=

  Basis Set: (AUG-CC-PV(D+D)Z AUX)
    Blend: AUG-CC-PVDZ-JKFIT
    Number of shells: 92
    Number of basis function: 278
    Number of Cartesian functions: 321
    Spherical Harmonics?: true
    Max angular momentum: 3

  Cached 100.0% of DFT collocation blocks in 0.181 [GiB].

  Minimum eigenvalue in the overlap matrix is 1.3886261437E-04.
  Using Symmetric Orthogonalization.

  SCF Guess: Superposition of Atomic Densities via on-the-fly atomic UHF.

  ==> Iterations <==

                           Total Energy        Delta E     RMS |[F,P]|

   @DF-RKS iter SAD:  -437.60191042895224   -4.37602e+02   0.00000e+00 
   @DF-RKS iter   1:  -436.97853754903485    6.23373e-01   1.29910e-02 DIIS
   @DF-RKS iter   2:  -437.03235892467069   -5.38214e-02   9.80647e-03 DIIS
   @DF-RKS iter   3:  -437.10713693706606   -7.47780e-02   9.03279e-04 DIIS
   @DF-RKS iter   4:  -437.10783567151987   -6.98734e-04   2.31674e-04 DIIS
   @DF-RKS iter   5:  -437.10790586523649   -7.01937e-05   3.78272e-05 DIIS
   @DF-RKS iter   6:  -437.10790803895526   -2.17372e-06   7.99673e-06 DIIS
   @DF-RKS iter   7:  -437.10790824612991   -2.07175e-07   1.55057e-06 DIIS
   @DF-RKS iter   8:  -437.10790825652896   -1.03990e-08   3.34292e-07 DIIS
   @DF-RKS iter   9:  -437.10790825710563   -5.76676e-10   6.77081e-08 DIIS
   @DF-RKS iter  10:  -437.10790825712934   -2.37037e-11   1.02713e-08 DIIS
   @DF-RKS iter  11:  -437.10790825712957   -2.27374e-13   1.45715e-09 DIIS
  Energy and wave function converged.


  ==> Post-Iterations <==

    Orbital Energies [Eh]
    ---------------------

    Doubly Occupied:                                                      

       1A1   -88.828823     2A1   -10.300541     3A1    -8.032682  
       4A1    -5.987849     1B2    -5.983894     1B1    -5.973160  
       5A1    -1.049666     6A1    -0.677633     2B1    -0.626024  
       2B2    -0.516740     7A1    -0.514312     3B1    -0.296500  

    Virtual:                                                              

       8A1     0.040895     3B2     0.043626     4B1     0.053015  
       9A1     0.072390     4B2     0.098950    10A1     0.119127  
       5B1     0.136385    11A1     0.159941     5B2     0.162670  
       6B1     0.164275    12A1     0.212338    13A1     0.243928  
       1A2     0.267146     7B1     0.280117    14A1     0.328447  
      15A1     0.373126    16A1     0.387356     6B2     0.391571  
       2A2     0.417144     8B1     0.446059     9B1     0.483936  
      17A1     0.495547     7B2     0.518779    10B1     0.550033  
      18A1     0.569536    19A1     0.627653     8B2     0.636397  
       3A2     0.660192    20A1     0.670575    11B1     0.688652  
       9B2     0.720381    21A1     0.822360    12B1     0.823142  
      10B2     0.858827    22A1     0.888433     4A2     0.945901  
      23A1     0.963095    11B2     1.046040    13B1     1.054888  
      14B1     1.096138    24A1     1.337237    25A1     1.470469  
       5A2     1.471650    15B1     1.526819    26A1     1.561697  
      12B2     1.672796    27A1     1.754449    16B1     1.800029  
      28A1     2.045499     6A2     2.064853    13B2     2.069715  
      29A1     2.205886    17B1     2.271748    30A1     2.609151  
      31A1     2.663863    18B1     2.819891     7A2     4.714744  
      32A1     4.737830    14B2     4.753847    19B1     4.806581  
      33A1     4.851103  

    Final Occupation by Irrep:
             A1    A2    B1    B2 
    DOCC [     7,    0,    3,    2 ]

  @DF-RKS Final Energy:  -437.10790825712957

   => Energetics <=

    Nuclear Repulsion Energy =             56.5057569960133463
    One-Electron Energy =                -713.5530524867696158
    Two-Electron Energy =                 243.6140626940236587
    DFT Exchange-Correlation Energy =     -23.7737655535697954
    Empirical Dispersion Energy =           0.0000000000000000
    VV10 Nonlocal Energy =                  0.0990900931728571
    Total Energy =                       -437.1079082571295089

Computation Completed


Properties will be evaluated at   0.000000,   0.000000,   0.000000 [a0]

Properties computed using the SCF density matrix

  Nuclear Dipole Moment: [e a0]
     X:     0.0000      Y:     0.0000      Z:     2.6042

  Electronic Dipole Moment: [e a0]
     X:     0.0000      Y:     0.0000      Z:    -2.2008

  Dipole Moment: [e a0]
     X:     0.0000      Y:     0.0000      Z:     0.4034     Total:     0.4034

  Dipole Moment: [D]
     X:     0.0000      Y:     0.0000      Z:     1.0253     Total:     1.0253


*** tstop() called on bp1-compute00090.data.bp.acrc.priv at Tue Apr 27 17:52:22 2021
Module time:
	user time   =      87.95 seconds =       1.47 minutes
	system time =       2.70 seconds =       0.05 minutes
	total time  =          4 seconds =       0.07 minutes
Total time:
	user time   =     175.28 seconds =       2.92 minutes
	system time =       6.38 seconds =       0.11 minutes
	total time  =          8 seconds =       0.13 minutes

  //>>>>>>>>>>>>>>>>>>>>>>>>>>>>>>>>>>>//
  //    Loading displacement 3 of 7    //
  //<<<<<<<<<<<<<<<<<<<<<<<<<<<<<<<<<<<//

*** tstart() called on bp1-compute00090.data.bp.acrc.priv
*** at Tue Apr 27 17:52:22 2021

   => Loading Basis Set <=

    Name: AUG-CC-PV(D+D)Z
    Role: ORBITAL
    Keyword: BASIS
    atoms 1   entry S          line   724 file /work/zw18965/.conda/envs/p4env/share/psi4/basis/aug-cc-pv_dpd_z.gbs 
    atoms 2   entry C          line   198 file /work/zw18965/.conda/envs/p4env/share/psi4/basis/aug-cc-pv_dpd_z.gbs 
    atoms 3-4 entry H          line    56 file /work/zw18965/.conda/envs/p4env/share/psi4/basis/aug-cc-pv_dpd_z.gbs 


         ---------------------------------------------------------
                                   SCF
               by Justin Turney, Rob Parrish, Andy Simmonett
                          and Daniel G. A. Smith
                              RKS Reference
                       24 Threads, 137329 MiB Core
         ---------------------------------------------------------

  ==> Geometry <==

    Molecular point group: c2v
    Full point group: C2v

    Geometry (in Angstrom), charge = 0, multiplicity = 1:

       Center              X                  Y                   Z               Mass       
    ------------   -----------------  -----------------  -----------------  -----------------
         S            0.000000000000    -0.000000000000    -0.392919128885    31.972071174400
         C            0.000000000000    -0.000000000000     0.812833253305    12.000000000000
         H            0.936954410300     0.000000000000     1.393316907705     1.007825032230
         H           -0.936954410300    -0.000000000000     1.393316907705     1.007825032230

  Running in c2v symmetry.

  Rotational constants: A =      9.52674  B =      1.00478  C =      0.90892 [cm^-1]
  Rotational constants: A = 285604.56383  B =  30122.52857  C =  27248.63289 [MHz]
  Nuclear repulsion =   56.571154226418535

  Charge       = 0
  Multiplicity = 1
  Electrons    = 24
  Nalpha       = 12
  Nbeta        = 12

  ==> Algorithm <==

  SCF Algorithm Type is DF.
  DIIS enabled.
  MOM disabled.
  Fractional occupation disabled.
  Guess Type is SAD.
  Energy threshold   = 1.00e-08
  Density threshold  = 1.00e-08
  Integral threshold = 0.00e+00

  ==> Primary Basis <==

  Basis Set: AUG-CC-PV(D+D)Z
    Blend: AUG-CC-PV(D+D)Z
    Number of shells: 31
    Number of basis function: 73
    Number of Cartesian functions: 78
    Spherical Harmonics?: true
    Max angular momentum: 2

  ==> DFT Potential <==

   => Composite Functional: WB97X-V <= 

    wB97X-V Hyb-GGA Exchange-Correlation Functional

    N. Mardirossian and M. Head-Gordon, Phys. Chem. Chem. Phys. 16, 9904 (2014)

    Deriv               =              1
    GGA                 =           TRUE
    Meta                =          FALSE

    Exchange Hybrid     =           TRUE
    MP2 Hybrid          =          FALSE

   => Exchange-Correlation Functionals <=

    1.0000   wB97X-V range-separated functional

   => Exact (HF) Exchange <=

    0.8330            HF,LR [omega = 0.3000]
    0.1670               HF 

   => VV10 Non-Local Parameters <=

    VV10 B              =     6.0000E+00
    VV10 C              =     1.0000E-02

   => Molecular Quadrature <=

    Radial Scheme          =       TREUTLER
    Pruning Scheme         =           FLAT
    Nuclear Scheme         =       TREUTLER

    BS radius alpha        =              1
    Pruning alpha          =              1
    Radial Points          =             75
    Spherical Points       =            302
    Total Points           =          90600
    Total Blocks           =            750
    Max Points             =            256
    Max Functions          =             73

   => Loading Basis Set <=

    Name: (AUG-CC-PV(D+D)Z AUX)
    Role: JKFIT
    Keyword: DF_BASIS_SCF
    atoms 1   entry S          line   690 file /work/zw18965/.conda/envs/p4env/share/psi4/basis/aug-cc-pvdz-jkfit.gbs 
    atoms 2   entry C          line   154 file /work/zw18965/.conda/envs/p4env/share/psi4/basis/aug-cc-pvdz-jkfit.gbs 
    atoms 3-4 entry H          line    70 file /work/zw18965/.conda/envs/p4env/share/psi4/basis/aug-cc-pvdz-jkfit.gbs 

  ==> Pre-Iterations <==

   -------------------------------------------------------
    Irrep   Nso     Nmo     Nalpha   Nbeta   Ndocc  Nsocc
   -------------------------------------------------------
     A1        33      33       0       0       0       0
     A2         7       7       0       0       0       0
     B1        19      19       0       0       0       0
     B2        14      14       0       0       0       0
   -------------------------------------------------------
    Total      73      73      12      12      12       0
   -------------------------------------------------------

  ==> Integral Setup <==

  ==> DiskDFJK: Density-Fitted J/K Matrices <==

    J tasked:                  Yes
    K tasked:                  Yes
    wK tasked:                 Yes
    Omega:               3.000E-01
    OpenMP threads:             24
    Integrals threads:          24
    Memory [MiB]:           102811
    Algorithm:                Core
    Integral Cache:           NONE
    Schwarz Cutoff:          1E-12
    Fitting Condition:       1E-10

   => Auxiliary Basis Set <=

  Basis Set: (AUG-CC-PV(D+D)Z AUX)
    Blend: AUG-CC-PVDZ-JKFIT
    Number of shells: 92
    Number of basis function: 278
    Number of Cartesian functions: 321
    Spherical Harmonics?: true
    Max angular momentum: 3

  Cached 100.0% of DFT collocation blocks in 0.181 [GiB].

  Minimum eigenvalue in the overlap matrix is 1.3818316791E-04.
  Using Symmetric Orthogonalization.

  SCF Guess: Superposition of Atomic Densities via on-the-fly atomic UHF.

  ==> Iterations <==

                           Total Energy        Delta E     RMS |[F,P]|

   @DF-RKS iter SAD:  -437.60502827994856   -4.37605e+02   0.00000e+00 
   @DF-RKS iter   1:  -436.97442148047082    6.30607e-01   1.30294e-02 DIIS
   @DF-RKS iter   2:  -437.02849018643997   -5.40687e-02   9.83402e-03 DIIS
   @DF-RKS iter   3:  -437.10364698401713   -7.51568e-02   9.03745e-04 DIIS
   @DF-RKS iter   4:  -437.10434586779314   -6.98884e-04   2.31944e-04 DIIS
   @DF-RKS iter   5:  -437.10441613649863   -7.02687e-05   3.78289e-05 DIIS
   @DF-RKS iter   6:  -437.10441831378535   -2.17729e-06   7.98662e-06 DIIS
   @DF-RKS iter   7:  -437.10441852064884   -2.06863e-07   1.55230e-06 DIIS
   @DF-RKS iter   8:  -437.10441853105823   -1.04094e-08   3.34864e-07 DIIS
   @DF-RKS iter   9:  -437.10441853163792   -5.79689e-10   6.80148e-08 DIIS
   @DF-RKS iter  10:  -437.10441853166174   -2.38174e-11   1.03102e-08 DIIS
   @DF-RKS iter  11:  -437.10441853166236   -6.25278e-13   1.45939e-09 DIIS
  Energy and wave function converged.


  ==> Post-Iterations <==

    Orbital Energies [Eh]
    ---------------------

    Doubly Occupied:                                                      

       1A1   -88.828543     2A1   -10.300376     3A1    -8.032696  
       4A1    -5.987896     1B2    -5.983849     1B1    -5.973120  
       5A1    -1.050086     6A1    -0.677429     2B1    -0.626407  
       2B2    -0.517274     7A1    -0.514265     3B1    -0.296264  

    Virtual:                                                              

       8A1     0.040908     3B2     0.043833     4B1     0.052999  
       9A1     0.072390     4B2     0.098916    10A1     0.119133  
       5B1     0.136350    11A1     0.159957     5B2     0.162748  
       6B1     0.164221    12A1     0.212318    13A1     0.243915  
       1A2     0.267088     7B1     0.280210    14A1     0.328529  
      15A1     0.373231    16A1     0.387548     6B2     0.391580  
       2A2     0.417244     8B1     0.445954     9B1     0.484074  
      17A1     0.495535     7B2     0.518995    10B1     0.550024  
      18A1     0.569551    19A1     0.627750     8B2     0.636170  
       3A2     0.660231    20A1     0.670579    11B1     0.688935  
       9B2     0.720626    21A1     0.822295    12B1     0.823047  
      10B2     0.858640    22A1     0.888826     4A2     0.945846  
      23A1     0.963017    11B2     1.046820    13B1     1.054784  
      14B1     1.096818    24A1     1.337553    25A1     1.470897  
       5A2     1.471860    15B1     1.527334    26A1     1.563186  
      12B2     1.673394    27A1     1.754334    16B1     1.800171  
      28A1     2.045063     6A2     2.064993    13B2     2.070403  
      29A1     2.208373    17B1     2.272611    30A1     2.612765  
      31A1     2.665094    18B1     2.821056     7A2     4.714750  
      32A1     4.737869    14B2     4.753566    19B1     4.806292  
      33A1     4.851000  

    Final Occupation by Irrep:
             A1    A2    B1    B2 
    DOCC [     7,    0,    3,    2 ]

  @DF-RKS Final Energy:  -437.10441853166236

   => Energetics <=

    Nuclear Repulsion Energy =             56.5711542264185354
    One-Electron Energy =                -713.6750505659473447
    Two-Electron Energy =                 243.6758112180121714
    DFT Exchange-Correlation Energy =     -23.7754232412852566
    Empirical Dispersion Energy =           0.0000000000000000
    VV10 Nonlocal Energy =                  0.0990898311394897
    Total Energy =                       -437.1044185316623043

Computation Completed


Properties will be evaluated at   0.000000,   0.000000,   0.000000 [a0]

Properties computed using the SCF density matrix

  Nuclear Dipole Moment: [e a0]
     X:     0.0000      Y:     0.0000      Z:     2.6020

  Electronic Dipole Moment: [e a0]
     X:     0.0000      Y:     0.0000      Z:    -2.1999

  Dipole Moment: [e a0]
     X:     0.0000      Y:     0.0000      Z:     0.4021     Total:     0.4021

  Dipole Moment: [D]
     X:     0.0000      Y:     0.0000      Z:     1.0222     Total:     1.0222


*** tstop() called on bp1-compute00090.data.bp.acrc.priv at Tue Apr 27 17:52:26 2021
Module time:
	user time   =      86.08 seconds =       1.43 minutes
	system time =       2.45 seconds =       0.04 minutes
	total time  =          4 seconds =       0.07 minutes
Total time:
	user time   =     261.50 seconds =       4.36 minutes
	system time =       8.84 seconds =       0.15 minutes
	total time  =         12 seconds =       0.20 minutes

  //>>>>>>>>>>>>>>>>>>>>>>>>>>>>>>>>>>>//
  //    Loading displacement 4 of 7    //
  //<<<<<<<<<<<<<<<<<<<<<<<<<<<<<<<<<<<//

*** tstart() called on bp1-compute00090.data.bp.acrc.priv
*** at Tue Apr 27 17:52:26 2021

   => Loading Basis Set <=

    Name: AUG-CC-PV(D+D)Z
    Role: ORBITAL
    Keyword: BASIS
    atoms 1   entry S          line   724 file /work/zw18965/.conda/envs/p4env/share/psi4/basis/aug-cc-pv_dpd_z.gbs 
    atoms 2   entry C          line   198 file /work/zw18965/.conda/envs/p4env/share/psi4/basis/aug-cc-pv_dpd_z.gbs 
    atoms 3-4 entry H          line    56 file /work/zw18965/.conda/envs/p4env/share/psi4/basis/aug-cc-pv_dpd_z.gbs 


         ---------------------------------------------------------
                                   SCF
               by Justin Turney, Rob Parrish, Andy Simmonett
                          and Daniel G. A. Smith
                              RKS Reference
                       24 Threads, 137329 MiB Core
         ---------------------------------------------------------

  ==> Geometry <==

    Molecular point group: c2v
    Full point group: C2v

    Geometry (in Angstrom), charge = 0, multiplicity = 1:

       Center              X                  Y                   Z               Mass       
    ------------   -----------------  -----------------  -----------------  -----------------
         S            0.000000000000    -0.000000000000    -0.393177456854    31.972071174400
         C            0.000000000000    -0.000000000000     0.813132887860    12.000000000000
         H            0.936954410300     0.000000000000     1.395630635485     1.007825032230
         H           -0.936954410300    -0.000000000000     1.395630635485     1.007825032230

  Running in c2v symmetry.

  Rotational constants: A =      9.52674  B =      1.00326  C =      0.90768 [cm^-1]
  Rotational constants: A = 285604.56383  B =  30077.09116  C =  27211.44661 [MHz]
  Nuclear repulsion =   56.536649411938946

  Charge       = 0
  Multiplicity = 1
  Electrons    = 24
  Nalpha       = 12
  Nbeta        = 12

  ==> Algorithm <==

  SCF Algorithm Type is DF.
  DIIS enabled.
  MOM disabled.
  Fractional occupation disabled.
  Guess Type is SAD.
  Energy threshold   = 1.00e-08
  Density threshold  = 1.00e-08
  Integral threshold = 0.00e+00

  ==> Primary Basis <==

  Basis Set: AUG-CC-PV(D+D)Z
    Blend: AUG-CC-PV(D+D)Z
    Number of shells: 31
    Number of basis function: 73
    Number of Cartesian functions: 78
    Spherical Harmonics?: true
    Max angular momentum: 2

  ==> DFT Potential <==

   => Composite Functional: WB97X-V <= 

    wB97X-V Hyb-GGA Exchange-Correlation Functional

    N. Mardirossian and M. Head-Gordon, Phys. Chem. Chem. Phys. 16, 9904 (2014)

    Deriv               =              1
    GGA                 =           TRUE
    Meta                =          FALSE

    Exchange Hybrid     =           TRUE
    MP2 Hybrid          =          FALSE

   => Exchange-Correlation Functionals <=

    1.0000   wB97X-V range-separated functional

   => Exact (HF) Exchange <=

    0.8330            HF,LR [omega = 0.3000]
    0.1670               HF 

   => VV10 Non-Local Parameters <=

    VV10 B              =     6.0000E+00
    VV10 C              =     1.0000E-02

   => Molecular Quadrature <=

    Radial Scheme          =       TREUTLER
    Pruning Scheme         =           FLAT
    Nuclear Scheme         =       TREUTLER

    BS radius alpha        =              1
    Pruning alpha          =              1
    Radial Points          =             75
    Spherical Points       =            302
    Total Points           =          90600
    Total Blocks           =            752
    Max Points             =            254
    Max Functions          =             73

   => Loading Basis Set <=

    Name: (AUG-CC-PV(D+D)Z AUX)
    Role: JKFIT
    Keyword: DF_BASIS_SCF
    atoms 1   entry S          line   690 file /work/zw18965/.conda/envs/p4env/share/psi4/basis/aug-cc-pvdz-jkfit.gbs 
    atoms 2   entry C          line   154 file /work/zw18965/.conda/envs/p4env/share/psi4/basis/aug-cc-pvdz-jkfit.gbs 
    atoms 3-4 entry H          line    70 file /work/zw18965/.conda/envs/p4env/share/psi4/basis/aug-cc-pvdz-jkfit.gbs 

  ==> Pre-Iterations <==

   -------------------------------------------------------
    Irrep   Nso     Nmo     Nalpha   Nbeta   Ndocc  Nsocc
   -------------------------------------------------------
     A1        33      33       0       0       0       0
     A2         7       7       0       0       0       0
     B1        19      19       0       0       0       0
     B2        14      14       0       0       0       0
   -------------------------------------------------------
    Total      73      73      12      12      12       0
   -------------------------------------------------------

  ==> Integral Setup <==

  ==> DiskDFJK: Density-Fitted J/K Matrices <==

    J tasked:                  Yes
    K tasked:                  Yes
    wK tasked:                 Yes
    Omega:               3.000E-01
    OpenMP threads:             24
    Integrals threads:          24
    Memory [MiB]:           102811
    Algorithm:                Core
    Integral Cache:           NONE
    Schwarz Cutoff:          1E-12
    Fitting Condition:       1E-10

   => Auxiliary Basis Set <=

  Basis Set: (AUG-CC-PV(D+D)Z AUX)
    Blend: AUG-CC-PVDZ-JKFIT
    Number of shells: 92
    Number of basis function: 278
    Number of Cartesian functions: 321
    Spherical Harmonics?: true
    Max angular momentum: 3

  Cached 100.0% of DFT collocation blocks in 0.181 [GiB].

  Minimum eigenvalue in the overlap matrix is 1.3836723164E-04.
  Using Symmetric Orthogonalization.

  SCF Guess: Superposition of Atomic Densities via on-the-fly atomic UHF.

  ==> Iterations <==

                           Total Energy        Delta E     RMS |[F,P]|

   @DF-RKS iter SAD:  -437.60295601007135   -4.37603e+02   0.00000e+00 
   @DF-RKS iter   1:  -436.97610201154811    6.26854e-01   1.30081e-02 DIIS
   @DF-RKS iter   2:  -437.02995718752356   -5.38552e-02   9.82297e-03 DIIS
   @DF-RKS iter   3:  -437.10497728154598   -7.50201e-02   9.03506e-04 DIIS
   @DF-RKS iter   4:  -437.10567598186412   -6.98700e-04   2.31928e-04 DIIS
   @DF-RKS iter   5:  -437.10574623715672   -7.02553e-05   3.77619e-05 DIIS
   @DF-RKS iter   6:  -437.10574840662025   -2.16946e-06   7.97790e-06 DIIS
   @DF-RKS iter   7:  -437.10574861229486   -2.05675e-07   1.54455e-06 DIIS
   @DF-RKS iter   8:  -437.10574862259250   -1.02976e-08   3.32847e-07 DIIS
   @DF-RKS iter   9:  -437.10574862316309   -5.70594e-10   6.76040e-08 DIIS
   @DF-RKS iter  10:  -437.10574862318731   -2.42153e-11   1.02975e-08 DIIS
   @DF-RKS iter  11:  -437.10574862318765   -3.41061e-13   1.46119e-09 DIIS
  Energy and wave function converged.


  ==> Post-Iterations <==

    Orbital Energies [Eh]
    ---------------------

    Doubly Occupied:                                                      

       1A1   -88.828729     2A1   -10.300636     3A1    -8.032781  
       4A1    -5.987972     1B2    -5.983950     1B1    -5.973227  
       5A1    -1.049874     6A1    -0.677437     2B1    -0.625796  
       2B2    -0.517102     7A1    -0.514405     3B1    -0.296382  

    Virtual:                                                              

       8A1     0.040903     3B2     0.043735     4B1     0.053020  
       9A1     0.072368     4B2     0.098933    10A1     0.119131  
       5B1     0.136309    11A1     0.159969     5B2     0.162704  
       6B1     0.164276    12A1     0.212351    13A1     0.243935  
       1A2     0.267183     7B1     0.279768    14A1     0.328468  
      15A1     0.372964    16A1     0.387258     6B2     0.391435  
       2A2     0.417126     8B1     0.446212     9B1     0.483955  
      17A1     0.495665     7B2     0.519088    10B1     0.550102  
      18A1     0.569677    19A1     0.627681     8B2     0.636190  
       3A2     0.660200    20A1     0.670615    11B1     0.688445  
       9B2     0.720541    21A1     0.822264    12B1     0.822884  
      10B2     0.858624    22A1     0.887815     4A2     0.945682  
      23A1     0.962982    11B2     1.046596    13B1     1.055112  
      14B1     1.096400    24A1     1.338332    25A1     1.470966  
       5A2     1.471647    15B1     1.526500    26A1     1.561711  
      12B2     1.672787    27A1     1.753818    16B1     1.800439  
      28A1     2.044687     6A2     2.063712    13B2     2.070784  
      29A1     2.207681    17B1     2.269900    30A1     2.611438  
      31A1     2.661794    18B1     2.819589     7A2     4.714646  
      32A1     4.737731    14B2     4.753571    19B1     4.806273  
      33A1     4.851014  

    Final Occupation by Irrep:
             A1    A2    B1    B2 
    DOCC [     7,    0,    3,    2 ]

  @DF-RKS Final Energy:  -437.10574862318765

   => Energetics <=

    Nuclear Repulsion Energy =             56.5366494119389458
    One-Electron Energy =                -713.6092573335247380
    Two-Electron Energy =                 243.6420557097926576
    DFT Exchange-Correlation Energy =     -23.7742863383188663
    Empirical Dispersion Energy =           0.0000000000000000
    VV10 Nonlocal Energy =                  0.0990899269243021
    Total Energy =                       -437.1057486231877078

Computation Completed


Properties will be evaluated at   0.000000,   0.000000,   0.000000 [a0]

Properties computed using the SCF density matrix

  Nuclear Dipole Moment: [e a0]
     X:     0.0000      Y:     0.0000      Z:     2.6063

  Electronic Dipole Moment: [e a0]
     X:     0.0000      Y:     0.0000      Z:    -2.2057

  Dipole Moment: [e a0]
     X:     0.0000      Y:     0.0000      Z:     0.4007     Total:     0.4007

  Dipole Moment: [D]
     X:     0.0000      Y:     0.0000      Z:     1.0184     Total:     1.0184


*** tstop() called on bp1-compute00090.data.bp.acrc.priv at Tue Apr 27 17:52:29 2021
Module time:
	user time   =      85.21 seconds =       1.42 minutes
	system time =       2.54 seconds =       0.04 minutes
	total time  =          3 seconds =       0.05 minutes
Total time:
	user time   =     346.85 seconds =       5.78 minutes
	system time =      11.39 seconds =       0.19 minutes
	total time  =         15 seconds =       0.25 minutes

  //>>>>>>>>>>>>>>>>>>>>>>>>>>>>>>>>>>>//
  //    Loading displacement 5 of 7    //
  //<<<<<<<<<<<<<<<<<<<<<<<<<<<<<<<<<<<//

*** tstart() called on bp1-compute00090.data.bp.acrc.priv
*** at Tue Apr 27 17:52:29 2021

   => Loading Basis Set <=

    Name: AUG-CC-PV(D+D)Z
    Role: ORBITAL
    Keyword: BASIS
    atoms 1   entry S          line   724 file /work/zw18965/.conda/envs/p4env/share/psi4/basis/aug-cc-pv_dpd_z.gbs 
    atoms 2   entry C          line   198 file /work/zw18965/.conda/envs/p4env/share/psi4/basis/aug-cc-pv_dpd_z.gbs 
    atoms 3-4 entry H          line    56 file /work/zw18965/.conda/envs/p4env/share/psi4/basis/aug-cc-pv_dpd_z.gbs 


         ---------------------------------------------------------
                                   SCF
               by Justin Turney, Rob Parrish, Andy Simmonett
                          and Daniel G. A. Smith
                              RKS Reference
                       24 Threads, 137329 MiB Core
         ---------------------------------------------------------

  ==> Geometry <==

    Molecular point group: c2v
    Full point group: C2v

    Geometry (in Angstrom), charge = 0, multiplicity = 1:

       Center              X                  Y                   Z               Mass       
    ------------   -----------------  -----------------  -----------------  -----------------
         S            0.000000000000    -0.000000000000    -0.393177456854    31.972071174400
         C            0.000000000000    -0.000000000000     0.813712198433    12.000000000000
         H            0.936954410300     0.000000000000     1.392181759608     1.007825032230
         H           -0.936954410300    -0.000000000000     1.392181759608     1.007825032230

  Running in c2v symmetry.

  Rotational constants: A =      9.52674  B =      1.00375  C =      0.90807 [cm^-1]
  Rotational constants: A = 285604.56383  B =  30091.54475  C =  27223.27669 [MHz]
  Nuclear repulsion =   56.540228169185632

  Charge       = 0
  Multiplicity = 1
  Electrons    = 24
  Nalpha       = 12
  Nbeta        = 12

  ==> Algorithm <==

  SCF Algorithm Type is DF.
  DIIS enabled.
  MOM disabled.
  Fractional occupation disabled.
  Guess Type is SAD.
  Energy threshold   = 1.00e-08
  Density threshold  = 1.00e-08
  Integral threshold = 0.00e+00

  ==> Primary Basis <==

  Basis Set: AUG-CC-PV(D+D)Z
    Blend: AUG-CC-PV(D+D)Z
    Number of shells: 31
    Number of basis function: 73
    Number of Cartesian functions: 78
    Spherical Harmonics?: true
    Max angular momentum: 2

  ==> DFT Potential <==

   => Composite Functional: WB97X-V <= 

    wB97X-V Hyb-GGA Exchange-Correlation Functional

    N. Mardirossian and M. Head-Gordon, Phys. Chem. Chem. Phys. 16, 9904 (2014)

    Deriv               =              1
    GGA                 =           TRUE
    Meta                =          FALSE

    Exchange Hybrid     =           TRUE
    MP2 Hybrid          =          FALSE

   => Exchange-Correlation Functionals <=

    1.0000   wB97X-V range-separated functional

   => Exact (HF) Exchange <=

    0.8330            HF,LR [omega = 0.3000]
    0.1670               HF 

   => VV10 Non-Local Parameters <=

    VV10 B              =     6.0000E+00
    VV10 C              =     1.0000E-02

   => Molecular Quadrature <=

    Radial Scheme          =       TREUTLER
    Pruning Scheme         =           FLAT
    Nuclear Scheme         =       TREUTLER

    BS radius alpha        =              1
    Pruning alpha          =              1
    Radial Points          =             75
    Spherical Points       =            302
    Total Points           =          90600
    Total Blocks           =            753
    Max Points             =            256
    Max Functions          =             73

   => Loading Basis Set <=

    Name: (AUG-CC-PV(D+D)Z AUX)
    Role: JKFIT
    Keyword: DF_BASIS_SCF
    atoms 1   entry S          line   690 file /work/zw18965/.conda/envs/p4env/share/psi4/basis/aug-cc-pvdz-jkfit.gbs 
    atoms 2   entry C          line   154 file /work/zw18965/.conda/envs/p4env/share/psi4/basis/aug-cc-pvdz-jkfit.gbs 
    atoms 3-4 entry H          line    70 file /work/zw18965/.conda/envs/p4env/share/psi4/basis/aug-cc-pvdz-jkfit.gbs 

  ==> Pre-Iterations <==

   -------------------------------------------------------
    Irrep   Nso     Nmo     Nalpha   Nbeta   Ndocc  Nsocc
   -------------------------------------------------------
     A1        33      33       0       0       0       0
     A2         7       7       0       0       0       0
     B1        19      19       0       0       0       0
     B2        14      14       0       0       0       0
   -------------------------------------------------------
    Total      73      73      12      12      12       0
   -------------------------------------------------------

  ==> Integral Setup <==

  ==> DiskDFJK: Density-Fitted J/K Matrices <==

    J tasked:                  Yes
    K tasked:                  Yes
    wK tasked:                 Yes
    Omega:               3.000E-01
    OpenMP threads:             24
    Integrals threads:          24
    Memory [MiB]:           102811
    Algorithm:                Core
    Integral Cache:           NONE
    Schwarz Cutoff:          1E-12
    Fitting Condition:       1E-10

   => Auxiliary Basis Set <=

  Basis Set: (AUG-CC-PV(D+D)Z AUX)
    Blend: AUG-CC-PVDZ-JKFIT
    Number of shells: 92
    Number of basis function: 278
    Number of Cartesian functions: 321
    Spherical Harmonics?: true
    Max angular momentum: 3

  Cached 100.0% of DFT collocation blocks in 0.181 [GiB].

  Minimum eigenvalue in the overlap matrix is 1.3867774293E-04.
  Using Symmetric Orthogonalization.

  SCF Guess: Superposition of Atomic Densities via on-the-fly atomic UHF.

  ==> Iterations <==

                           Total Energy        Delta E     RMS |[F,P]|

   @DF-RKS iter SAD:  -437.60397884408991   -4.37604e+02   0.00000e+00 
   @DF-RKS iter   1:  -436.97685738970955    6.27121e-01   1.30125e-02 DIIS
   @DF-RKS iter   2:  -437.03089321007059   -5.40358e-02   9.81766e-03 DIIS
   @DF-RKS iter   3:  -437.10580974580313   -7.49165e-02   9.03530e-04 DIIS
   @DF-RKS iter   4:  -437.10650869788628   -6.98952e-04   2.31696e-04 DIIS
   @DF-RKS iter   5:  -437.10657891237543   -7.02145e-05   3.78967e-05 DIIS
   @DF-RKS iter   6:  -437.10658109455642   -2.18218e-06   8.00677e-06 DIIS
   @DF-RKS iter   7:  -437.10658130303960   -2.08483e-07   1.55886e-06 DIIS
   @DF-RKS iter   8:  -437.10658131356132   -1.05217e-08   3.36478e-07 DIIS
   @DF-RKS iter   9:  -437.10658131414681   -5.85487e-10   6.81389e-08 DIIS
   @DF-RKS iter  10:  -437.10658131417097   -2.41585e-11   1.02843e-08 DIIS
   @DF-RKS iter  11:  -437.10658131417165   -6.82121e-13   1.45578e-09 DIIS
  Energy and wave function converged.


  ==> Post-Iterations <==

    Orbital Energies [Eh]
    ---------------------

    Doubly Occupied:                                                      

       1A1   -88.828638     2A1   -10.300282     3A1    -8.032597  
       4A1    -5.987773     1B2    -5.983794     1B1    -5.973054  
       5A1    -1.049881     6A1    -0.677623     2B1    -0.626636  
       2B2    -0.516912     7A1    -0.514172     3B1    -0.296381  

    Virtual:                                                              

       8A1     0.040899     3B2     0.043724     4B1     0.052993  
       9A1     0.072411     4B2     0.098933    10A1     0.119129  
       5B1     0.136425    11A1     0.159929     5B2     0.162714  
       6B1     0.164219    12A1     0.212304    13A1     0.243908  
       1A2     0.267051     7B1     0.280559    14A1     0.328508  
      15A1     0.373390    16A1     0.387648     6B2     0.391716  
       2A2     0.417262     8B1     0.445801     9B1     0.484055  
      17A1     0.495417     7B2     0.518686    10B1     0.549957  
      18A1     0.569411    19A1     0.627722     8B2     0.636376  
       3A2     0.660222    20A1     0.670539    11B1     0.689143  
       9B2     0.720467    21A1     0.822388    12B1     0.823305  
      10B2     0.858844    22A1     0.889447     4A2     0.946065  
      23A1     0.963130    11B2     1.046263    13B1     1.054558  
      14B1     1.096556    24A1     1.336455    25A1     1.470400  
       5A2     1.471866    15B1     1.527656    26A1     1.563171  
      12B2     1.673405    27A1     1.754965    16B1     1.799759  
      28A1     2.045857     6A2     2.066136    13B2     2.069328  
      29A1     2.206595    17B1     2.274455    30A1     2.610430  
      31A1     2.667220    18B1     2.821369     7A2     4.714848  
      32A1     4.737967    14B2     4.753843    19B1     4.806600  
      33A1     4.851089  

    Final Occupation by Irrep:
             A1    A2    B1    B2 
    DOCC [     7,    0,    3,    2 ]

  @DF-RKS Final Energy:  -437.10658131417165

   => Energetics <=

    Nuclear Repulsion Energy =             56.5402281691856317
    One-Electron Energy =                -713.6187794908635169
    Two-Electron Energy =                 243.6477807449029171
    DFT Exchange-Correlation Energy =     -23.7749007319523429
    Empirical Dispersion Energy =           0.0000000000000000
    VV10 Nonlocal Energy =                  0.0990899945556488
    Total Energy =                       -437.1065813141717058

Computation Completed


Properties will be evaluated at   0.000000,   0.000000,   0.000000 [a0]

Properties computed using the SCF density matrix

  Nuclear Dipole Moment: [e a0]
     X:     0.0000      Y:     0.0000      Z:     2.5999

  Electronic Dipole Moment: [e a0]
     X:     0.0000      Y:     0.0000      Z:    -2.1951

  Dipole Moment: [e a0]
     X:     0.0000      Y:     0.0000      Z:     0.4048     Total:     0.4048

  Dipole Moment: [D]
     X:     0.0000      Y:     0.0000      Z:     1.0290     Total:     1.0290


*** tstop() called on bp1-compute00090.data.bp.acrc.priv at Tue Apr 27 17:52:33 2021
Module time:
	user time   =      84.89 seconds =       1.41 minutes
	system time =       2.49 seconds =       0.04 minutes
	total time  =          4 seconds =       0.07 minutes
Total time:
	user time   =     431.89 seconds =       7.20 minutes
	system time =      13.89 seconds =       0.23 minutes
	total time  =         19 seconds =       0.32 minutes

  //>>>>>>>>>>>>>>>>>>>>>>>>>>>>>>>>>>>//
  //    Loading displacement 6 of 7    //
  //<<<<<<<<<<<<<<<<<<<<<<<<<<<<<<<<<<<//

*** tstart() called on bp1-compute00090.data.bp.acrc.priv
*** at Tue Apr 27 17:52:33 2021

   => Loading Basis Set <=

    Name: AUG-CC-PV(D+D)Z
    Role: ORBITAL
    Keyword: BASIS
    atoms 1   entry S          line   724 file /work/zw18965/.conda/envs/p4env/share/psi4/basis/aug-cc-pv_dpd_z.gbs 
    atoms 2   entry C          line   198 file /work/zw18965/.conda/envs/p4env/share/psi4/basis/aug-cc-pv_dpd_z.gbs 
    atoms 3-4 entry H          line    56 file /work/zw18965/.conda/envs/p4env/share/psi4/basis/aug-cc-pv_dpd_z.gbs 


         ---------------------------------------------------------
                                   SCF
               by Justin Turney, Rob Parrish, Andy Simmonett
                          and Daniel G. A. Smith
                              RKS Reference
                       24 Threads, 137329 MiB Core
         ---------------------------------------------------------

  ==> Geometry <==

    Molecular point group: c2v
    Full point group: C2v

    Geometry (in Angstrom), charge = 0, multiplicity = 1:

       Center              X                  Y                   Z               Mass       
    ------------   -----------------  -----------------  -----------------  -----------------
         S            0.000000000000    -0.000000000000    -0.393177456854    31.972071174400
         C            0.000000000000    -0.000000000000     0.813422543146    12.000000000000
         H            0.935090763668     0.000000000000     1.393906197546     1.007825032230
         H           -0.935090763668    -0.000000000000     1.393906197546     1.007825032230

  Running in c2v symmetry.

  Rotational constants: A =      9.56475  B =      1.00351  C =      0.90822 [cm^-1]
  Rotational constants: A = 286744.12463  B =  30084.32876  C =  27227.68243 [MHz]
  Nuclear repulsion =   56.550885103772920

  Charge       = 0
  Multiplicity = 1
  Electrons    = 24
  Nalpha       = 12
  Nbeta        = 12

  ==> Algorithm <==

  SCF Algorithm Type is DF.
  DIIS enabled.
  MOM disabled.
  Fractional occupation disabled.
  Guess Type is SAD.
  Energy threshold   = 1.00e-08
  Density threshold  = 1.00e-08
  Integral threshold = 0.00e+00

  ==> Primary Basis <==

  Basis Set: AUG-CC-PV(D+D)Z
    Blend: AUG-CC-PV(D+D)Z
    Number of shells: 31
    Number of basis function: 73
    Number of Cartesian functions: 78
    Spherical Harmonics?: true
    Max angular momentum: 2

  ==> DFT Potential <==

   => Composite Functional: WB97X-V <= 

    wB97X-V Hyb-GGA Exchange-Correlation Functional

    N. Mardirossian and M. Head-Gordon, Phys. Chem. Chem. Phys. 16, 9904 (2014)

    Deriv               =              1
    GGA                 =           TRUE
    Meta                =          FALSE

    Exchange Hybrid     =           TRUE
    MP2 Hybrid          =          FALSE

   => Exchange-Correlation Functionals <=

    1.0000   wB97X-V range-separated functional

   => Exact (HF) Exchange <=

    0.8330            HF,LR [omega = 0.3000]
    0.1670               HF 

   => VV10 Non-Local Parameters <=

    VV10 B              =     6.0000E+00
    VV10 C              =     1.0000E-02

   => Molecular Quadrature <=

    Radial Scheme          =       TREUTLER
    Pruning Scheme         =           FLAT
    Nuclear Scheme         =       TREUTLER

    BS radius alpha        =              1
    Pruning alpha          =              1
    Radial Points          =             75
    Spherical Points       =            302
    Total Points           =          90600
    Total Blocks           =            754
    Max Points             =            254
    Max Functions          =             73

   => Loading Basis Set <=

    Name: (AUG-CC-PV(D+D)Z AUX)
    Role: JKFIT
    Keyword: DF_BASIS_SCF
    atoms 1   entry S          line   690 file /work/zw18965/.conda/envs/p4env/share/psi4/basis/aug-cc-pvdz-jkfit.gbs 
    atoms 2   entry C          line   154 file /work/zw18965/.conda/envs/p4env/share/psi4/basis/aug-cc-pvdz-jkfit.gbs 
    atoms 3-4 entry H          line    70 file /work/zw18965/.conda/envs/p4env/share/psi4/basis/aug-cc-pvdz-jkfit.gbs 

  ==> Pre-Iterations <==

   -------------------------------------------------------
    Irrep   Nso     Nmo     Nalpha   Nbeta   Ndocc  Nsocc
   -------------------------------------------------------
     A1        33      33       0       0       0       0
     A2         7       7       0       0       0       0
     B1        19      19       0       0       0       0
     B2        14      14       0       0       0       0
   -------------------------------------------------------
    Total      73      73      12      12      12       0
   -------------------------------------------------------

  ==> Integral Setup <==

  ==> DiskDFJK: Density-Fitted J/K Matrices <==

    J tasked:                  Yes
    K tasked:                  Yes
    wK tasked:                 Yes
    Omega:               3.000E-01
    OpenMP threads:             24
    Integrals threads:          24
    Memory [MiB]:           102811
    Algorithm:                Core
    Integral Cache:           NONE
    Schwarz Cutoff:          1E-12
    Fitting Condition:       1E-10

   => Auxiliary Basis Set <=

  Basis Set: (AUG-CC-PV(D+D)Z AUX)
    Blend: AUG-CC-PVDZ-JKFIT
    Number of shells: 92
    Number of basis function: 278
    Number of Cartesian functions: 321
    Spherical Harmonics?: true
    Max angular momentum: 3

  Cached 100.0% of DFT collocation blocks in 0.181 [GiB].

  Minimum eigenvalue in the overlap matrix is 1.3856938729E-04.
  Using Symmetric Orthogonalization.

  SCF Guess: Superposition of Atomic Densities via on-the-fly atomic UHF.

  ==> Iterations <==

                           Total Energy        Delta E     RMS |[F,P]|

   @DF-RKS iter SAD:  -437.60451765496083   -4.37605e+02   0.00000e+00 
   @DF-RKS iter   1:  -436.97630516810261    6.28212e-01   1.30221e-02 DIIS
   @DF-RKS iter   2:  -437.03037815384249   -5.40730e-02   9.82653e-03 DIIS
   @DF-RKS iter   3:  -437.10541321119996   -7.50351e-02   9.02852e-04 DIIS
   @DF-RKS iter   4:  -437.10611138517345   -6.98174e-04   2.31749e-04 DIIS
   @DF-RKS iter   5:  -437.10618160397564   -7.02188e-05   3.79431e-05 DIIS
   @DF-RKS iter   6:  -437.10618378946089   -2.18549e-06   8.01007e-06 DIIS
   @DF-RKS iter   7:  -437.10618399804446   -2.08584e-07   1.55823e-06 DIIS
   @DF-RKS iter   8:  -437.10618400856220   -1.05177e-08   3.36367e-07 DIIS
   @DF-RKS iter   9:  -437.10618400914700   -5.84805e-10   6.81057e-08 DIIS
   @DF-RKS iter  10:  -437.10618400917122   -2.42153e-11   1.02762e-08 DIIS
   @DF-RKS iter  11:  -437.10618400917144   -2.27374e-13   1.45061e-09 DIIS
  Energy and wave function converged.


  ==> Post-Iterations <==

    Orbital Energies [Eh]
    ---------------------

    Doubly Occupied:                                                      

       1A1   -88.828656     2A1   -10.300163     3A1    -8.032653  
       4A1    -5.987836     1B2    -5.983838     1B1    -5.973102  
       5A1    -1.049876     6A1    -0.677996     2B1    -0.626393  
       2B2    -0.516984     7A1    -0.514341     3B1    -0.296389  

    Virtual:                                                              

       8A1     0.040887     3B2     0.043737     4B1     0.053026  
       9A1     0.072399     4B2     0.098932    10A1     0.119147  
       5B1     0.136414    11A1     0.159934     5B2     0.162712  
       6B1     0.164293    12A1     0.212746    13A1     0.243954  
       1A2     0.267220     7B1     0.280331    14A1     0.328558  
      15A1     0.373341    16A1     0.387352     6B2     0.391574  
       2A2     0.417309     8B1     0.446357     9B1     0.483900  
      17A1     0.495616     7B2     0.519025    10B1     0.550193  
      18A1     0.570088    19A1     0.627913     8B2     0.636446  
       3A2     0.660281    20A1     0.670663    11B1     0.688775  
       9B2     0.720524    21A1     0.822390    12B1     0.823175  
      10B2     0.858761    22A1     0.888620     4A2     0.945886  
      23A1     0.963164    11B2     1.046441    13B1     1.055278  
      14B1     1.096496    24A1     1.337922    25A1     1.470526  
       5A2     1.471656    15B1     1.526626    26A1     1.562210  
      12B2     1.673262    27A1     1.755237    16B1     1.801651  
      28A1     2.045959     6A2     2.065548    13B2     2.071221  
      29A1     2.209336    17B1     2.274159    30A1     2.613507  
      31A1     2.665573    18B1     2.823867     7A2     4.714805  
      32A1     4.737869    14B2     4.753745    19B1     4.806471  
      33A1     4.851268  

    Final Occupation by Irrep:
             A1    A2    B1    B2 
    DOCC [     7,    0,    3,    2 ]

  @DF-RKS Final Energy:  -437.10618400917144

   => Energetics <=

    Nuclear Repulsion Energy =             56.5508851037729201
    One-Electron Energy =                -713.6379845844421652
    Two-Electron Energy =                 243.6572600164082587
    DFT Exchange-Correlation Energy =     -23.7754361857013023
    Empirical Dispersion Energy =           0.0000000000000000
    VV10 Nonlocal Energy =                  0.0990916407908395
    Total Energy =                       -437.1061840091714998

Computation Completed


Properties will be evaluated at   0.000000,   0.000000,   0.000000 [a0]

Properties computed using the SCF density matrix

  Nuclear Dipole Moment: [e a0]
     X:     0.0000      Y:     0.0000      Z:     2.6031

  Electronic Dipole Moment: [e a0]
     X:     0.0000      Y:     0.0000      Z:    -2.1982

  Dipole Moment: [e a0]
     X:     0.0000      Y:     0.0000      Z:     0.4049     Total:     0.4049

  Dipole Moment: [D]
     X:     0.0000      Y:     0.0000      Z:     1.0291     Total:     1.0291


*** tstop() called on bp1-compute00090.data.bp.acrc.priv at Tue Apr 27 17:52:37 2021
Module time:
	user time   =      85.00 seconds =       1.42 minutes
	system time =       2.58 seconds =       0.04 minutes
	total time  =          4 seconds =       0.07 minutes
Total time:
	user time   =     517.03 seconds =       8.62 minutes
	system time =      16.48 seconds =       0.27 minutes
	total time  =         23 seconds =       0.38 minutes

  //>>>>>>>>>>>>>>>>>>>>>>>>>>>>>>>>>>>//
  //    Loading displacement 7 of 7    //
  //<<<<<<<<<<<<<<<<<<<<<<<<<<<<<<<<<<<//

*** tstart() called on bp1-compute00090.data.bp.acrc.priv
*** at Tue Apr 27 17:52:37 2021

   => Loading Basis Set <=

    Name: AUG-CC-PV(D+D)Z
    Role: ORBITAL
    Keyword: BASIS
    atoms 1   entry S          line   724 file /work/zw18965/.conda/envs/p4env/share/psi4/basis/aug-cc-pv_dpd_z.gbs 
    atoms 2   entry C          line   198 file /work/zw18965/.conda/envs/p4env/share/psi4/basis/aug-cc-pv_dpd_z.gbs 
    atoms 3-4 entry H          line    56 file /work/zw18965/.conda/envs/p4env/share/psi4/basis/aug-cc-pv_dpd_z.gbs 


         ---------------------------------------------------------
                                   SCF
               by Justin Turney, Rob Parrish, Andy Simmonett
                          and Daniel G. A. Smith
                              RKS Reference
                       24 Threads, 137329 MiB Core
         ---------------------------------------------------------

  ==> Geometry <==

    Molecular point group: c2v
    Full point group: C2v

    Geometry (in Angstrom), charge = 0, multiplicity = 1:

       Center              X                  Y                   Z               Mass       
    ------------   -----------------  -----------------  -----------------  -----------------
         S            0.000000000000    -0.000000000000    -0.393177456854    31.972071174400
         C            0.000000000000    -0.000000000000     0.813422543146    12.000000000000
         H            0.938818056932     0.000000000000     1.393906197546     1.007825032230
         H           -0.938818056932    -0.000000000000     1.393906197546     1.007825032230

  Running in c2v symmetry.

  Rotational constants: A =      9.48896  B =      1.00351  C =      0.90753 [cm^-1]
  Rotational constants: A = 284471.78271  B =  30084.32876  C =  27207.04612 [MHz]
  Nuclear repulsion =   56.526001503822336

  Charge       = 0
  Multiplicity = 1
  Electrons    = 24
  Nalpha       = 12
  Nbeta        = 12

  ==> Algorithm <==

  SCF Algorithm Type is DF.
  DIIS enabled.
  MOM disabled.
  Fractional occupation disabled.
  Guess Type is SAD.
  Energy threshold   = 1.00e-08
  Density threshold  = 1.00e-08
  Integral threshold = 0.00e+00

  ==> Primary Basis <==

  Basis Set: AUG-CC-PV(D+D)Z
    Blend: AUG-CC-PV(D+D)Z
    Number of shells: 31
    Number of basis function: 73
    Number of Cartesian functions: 78
    Spherical Harmonics?: true
    Max angular momentum: 2

  ==> DFT Potential <==

   => Composite Functional: WB97X-V <= 

    wB97X-V Hyb-GGA Exchange-Correlation Functional

    N. Mardirossian and M. Head-Gordon, Phys. Chem. Chem. Phys. 16, 9904 (2014)

    Deriv               =              1
    GGA                 =           TRUE
    Meta                =          FALSE

    Exchange Hybrid     =           TRUE
    MP2 Hybrid          =          FALSE

   => Exchange-Correlation Functionals <=

    1.0000   wB97X-V range-separated functional

   => Exact (HF) Exchange <=

    0.8330            HF,LR [omega = 0.3000]
    0.1670               HF 

   => VV10 Non-Local Parameters <=

    VV10 B              =     6.0000E+00
    VV10 C              =     1.0000E-02

   => Molecular Quadrature <=

    Radial Scheme          =       TREUTLER
    Pruning Scheme         =           FLAT
    Nuclear Scheme         =       TREUTLER

    BS radius alpha        =              1
    Pruning alpha          =              1
    Radial Points          =             75
    Spherical Points       =            302
    Total Points           =          90600
    Total Blocks           =            753
    Max Points             =            255
    Max Functions          =             73

   => Loading Basis Set <=

    Name: (AUG-CC-PV(D+D)Z AUX)
    Role: JKFIT
    Keyword: DF_BASIS_SCF
    atoms 1   entry S          line   690 file /work/zw18965/.conda/envs/p4env/share/psi4/basis/aug-cc-pvdz-jkfit.gbs 
    atoms 2   entry C          line   154 file /work/zw18965/.conda/envs/p4env/share/psi4/basis/aug-cc-pvdz-jkfit.gbs 
    atoms 3-4 entry H          line    70 file /work/zw18965/.conda/envs/p4env/share/psi4/basis/aug-cc-pvdz-jkfit.gbs 

  ==> Pre-Iterations <==

   -------------------------------------------------------
    Irrep   Nso     Nmo     Nalpha   Nbeta   Ndocc  Nsocc
   -------------------------------------------------------
     A1        33      33       0       0       0       0
     A2         7       7       0       0       0       0
     B1        19      19       0       0       0       0
     B2        14      14       0       0       0       0
   -------------------------------------------------------
    Total      73      73      12      12      12       0
   -------------------------------------------------------

  ==> Integral Setup <==

  ==> DiskDFJK: Density-Fitted J/K Matrices <==

    J tasked:                  Yes
    K tasked:                  Yes
    wK tasked:                 Yes
    Omega:               3.000E-01
    OpenMP threads:             24
    Integrals threads:          24
    Memory [MiB]:           102811
    Algorithm:                Core
    Integral Cache:           NONE
    Schwarz Cutoff:          1E-12
    Fitting Condition:       1E-10

   => Auxiliary Basis Set <=

  Basis Set: (AUG-CC-PV(D+D)Z AUX)
    Blend: AUG-CC-PVDZ-JKFIT
    Number of shells: 92
    Number of basis function: 278
    Number of Cartesian functions: 321
    Spherical Harmonics?: true
    Max angular momentum: 3

  Cached 100.0% of DFT collocation blocks in 0.181 [GiB].

  Minimum eigenvalue in the overlap matrix is 1.3847527302E-04.
  Using Symmetric Orthogonalization.

  SCF Guess: Superposition of Atomic Densities via on-the-fly atomic UHF.

  ==> Iterations <==

                           Total Energy        Delta E     RMS |[F,P]|

   @DF-RKS iter SAD:  -437.60241625232931   -4.37602e+02   0.00000e+00 
   @DF-RKS iter   1:  -436.97665282665520    6.25763e-01   1.29984e-02 DIIS
   @DF-RKS iter   2:  -437.03047059362535   -5.38178e-02   9.81410e-03 DIIS
   @DF-RKS iter   3:  -437.10537231724334   -7.49017e-02   9.04175e-04 DIIS
   @DF-RKS iter   4:  -437.10607179155983   -6.99474e-04   2.31873e-04 DIIS
   @DF-RKS iter   5:  -437.10614204164835   -7.02501e-05   3.77160e-05 DIIS
   @DF-RKS iter   6:  -437.10614420786590   -2.16622e-06   7.97470e-06 DIIS
   @DF-RKS iter   7:  -437.10614441344165   -2.05576e-07   1.54516e-06 DIIS
   @DF-RKS iter   8:  -437.10614442374350   -1.03018e-08   3.32957e-07 DIIS
   @DF-RKS iter   9:  -437.10614442431472   -5.71220e-10   6.76375e-08 DIIS
   @DF-RKS iter  10:  -437.10614442433911   -2.43858e-11   1.03058e-08 DIIS
   @DF-RKS iter  11:  -437.10614442433916   -5.68434e-14   1.46632e-09 DIIS
  Energy and wave function converged.


  ==> Post-Iterations <==

    Orbital Energies [Eh]
    ---------------------

    Doubly Occupied:                                                      

       1A1   -88.828710     2A1   -10.300753     3A1    -8.032726  
       4A1    -5.987909     1B2    -5.983905     1B1    -5.973178  
       5A1    -1.049877     6A1    -0.677067     2B1    -0.626037  
       2B2    -0.517030     7A1    -0.514237     3B1    -0.296375  

    Virtual:                                                              

       8A1     0.040915     3B2     0.043722     4B1     0.052987  
       9A1     0.072381     4B2     0.098933    10A1     0.119112  
       5B1     0.136321    11A1     0.159964     5B2     0.162706  
       6B1     0.164203    12A1     0.211908    13A1     0.243890  
       1A2     0.267014     7B1     0.279997    14A1     0.328418  
      15A1     0.373015    16A1     0.387554     6B2     0.391578  
       2A2     0.417079     8B1     0.445655     9B1     0.484110  
      17A1     0.495465     7B2     0.518748    10B1     0.549865  
      18A1     0.569001    19A1     0.627490     8B2     0.636121  
       3A2     0.660142    20A1     0.670492    11B1     0.688813  
       9B2     0.720482    21A1     0.822266    12B1     0.823015  
      10B2     0.858707    22A1     0.888641     4A2     0.945861  
      23A1     0.962949    11B2     1.046419    13B1     1.054394  
      14B1     1.096458    24A1     1.336873    25A1     1.470837  
       5A2     1.471857    15B1     1.527513    26A1     1.562671  
      12B2     1.672931    27A1     1.753541    16B1     1.798566  
      28A1     2.044601     6A2     2.064293    13B2     2.068902  
      29A1     2.204919    17B1     2.270201    30A1     2.608418  
      31A1     2.663400    18B1     2.817106     7A2     4.714689  
      32A1     4.737830    14B2     4.753669    19B1     4.806402  
      33A1     4.850836  

    Final Occupation by Irrep:
             A1    A2    B1    B2 
    DOCC [     7,    0,    3,    2 ]

  @DF-RKS Final Energy:  -437.10614442433916

   => Energetics <=

    Nuclear Repulsion Energy =             56.5260015038223358
    One-Electron Energy =                -713.5900706615573199
    Two-Electron Energy =                 243.6325893003784699
    DFT Exchange-Correlation Energy =     -23.7737528540480128
    Empirical Dispersion Energy =           0.0000000000000000
    VV10 Nonlocal Energy =                  0.0990882870652595
    Total Energy =                       -437.1061444243392202

Computation Completed


Properties will be evaluated at   0.000000,   0.000000,   0.000000 [a0]

Properties computed using the SCF density matrix

  Nuclear Dipole Moment: [e a0]
     X:     0.0000      Y:     0.0000      Z:     2.6031

  Electronic Dipole Moment: [e a0]
     X:     0.0000      Y:     0.0000      Z:    -2.2025

  Dipole Moment: [e a0]
     X:     0.0000      Y:     0.0000      Z:     0.4006     Total:     0.4006

  Dipole Moment: [D]
     X:     0.0000      Y:     0.0000      Z:     1.0183     Total:     1.0183


*** tstop() called on bp1-compute00090.data.bp.acrc.priv at Tue Apr 27 17:52:40 2021
Module time:
	user time   =      86.57 seconds =       1.44 minutes
	system time =       2.48 seconds =       0.04 minutes
	total time  =          3 seconds =       0.05 minutes
Total time:
	user time   =     603.75 seconds =      10.06 minutes
	system time =      18.97 seconds =       0.32 minutes
	total time  =         26 seconds =       0.43 minutes

         ----------------------------------------------------------
                                   FINDIF
                     R. A. King and Jonathon Misiewicz
         ---------------------------------------------------------

  Computing gradient from energies.
    Using 3-point formula.
    Energy without displacement: -437.1061674195
    Check energies below for precision!
    Forces are for mass-weighted, symmetry-adapted cartesians (in au).

     Coord      Energy(-1)        Energy(+1)            Force
        0   -437.1079082571   -437.1044185317      0.3489725467
        1   -437.1057486232   -437.1065813142     -0.0832690984
        2   -437.1061840092   -437.1061444243      0.0039584832


-------------------------------------------------------------
  ## New Matrix (Symmetry 0) ##
  Irrep: 1 Size: 4 x 3

                 1                   2                   3

    1     0.00000000000000     0.00000000000000     1.08933717861668
    2     0.00000000000000     0.00000000000000    -1.04206442800965
    3     0.00281000040113     0.00000000000000    -0.02363637530352
    4    -0.00281000040113     0.00000000000000    -0.02363637530352




			-----------------------------------------
			 OPTKING 2.0: for geometry optimizations 
			  - R.A. King,  Bethel University        
			-----------------------------------------
	At level 1: Red. Int., RFO, no backsteps, dynamic trust

	Internal coordinates to be generated automatically.
	Detected frag 1 with atoms:  1 2 3 4
	---Fragment 1 Bond Connectivity---
	 1 : 2
	 2 : 1 3 4
	 3 : 2
	 4 : 2

	---Fragment 1 Geometry and Gradient---
	 S           0.0000000000       -0.0000000000       -0.7429977122
	 C           0.0000000000       -0.0000000000        1.5371458308
	 H           1.7705872275        0.0000000000        2.6341009579
	 H          -1.7705872275       -0.0000000000        2.6341009579
	             0.0000000000        0.0000000000        1.0893371786
	             0.0000000000        0.0000000000       -1.0420644280
	             0.0028100004        0.0000000000       -0.0236363753
	            -0.0028100004        0.0000000000       -0.0236363753

	Previous optimization step data not found.  Starting new optimization.

	---Fragment 1 Intrafragment Coordinates---
	 - Coordinate -           - BOHR/RAD -       - ANG/DEG -
	 R(1,2)           =         2.280144	       1.206600
	 R(2,3)           =         2.082856	       1.102200
	 R(2,4)           =         2.082856	       1.102200
	 B(1,2,3)         =         2.125462	     121.780000
	 B(1,2,4)         =         2.125462	     121.780000
	 B(3,2,4)         =         2.032261	     116.440000

	Current energy   :      -437.1061674195

	Generating empirical Hessian (Schlegel '84) for each fragment.
	Taking RFO optimization step.
	Going to follow RFO solution 1.
	Using RFO vector 1.
	Norm of target step-size    0.26978
	Projected energy change by RFO approximation:        -0.2549814476

	Back-transformation to cartesian coordinates...
	Successfully converged to displaced geometry.

	--- Internal Coordinate Step in ANG or DEG, aJ/ANG or AJ/DEG ---
	 ---------------------------------------------------------------------------
	   Coordinate                Previous        Force       Change         New 
	   ----------                --------       ------       ------       ------
	    1 R(1,2)          =      1.206600     8.974746     0.135284     1.341884
	    2 R(2,3)          =      1.102200     0.082878     0.008638     1.110838
	    3 R(2,4)          =      1.102200     0.082878     0.008638     1.110838
	    4 B(1,2,3)        =    121.780000     0.001140     1.942120   123.722120
	    5 B(1,2,4)        =    121.780000     0.001140     1.942120   123.722120
	    6 B(3,2,4)        =    116.440000    -0.002279    -3.884240   112.555760
	 ---------------------------------------------------------------------------
	Successfully symmetrized geometry.

  ==> Convergence Check <==

  Measures of convergence in internal coordinates in au.
  Criteria marked as inactive (o), active & met (*), and active & unmet ( ).
  --------------------------------------------------------------------------------------------- ~
   Step     Total Energy     Delta E     MAX Force     RMS Force      MAX Disp      RMS Disp    ~
  --------------------------------------------------------------------------------------------- ~
    Convergence Criteria    1.00e-06 *    3.00e-04 *             o    1.20e-03 *             o  ~
  --------------------------------------------------------------------------------------------- ~
      1    -437.10616742   -4.37e+02      1.09e+00      4.45e-01 o    2.56e-01      1.10e-01 o  ~
  ---------------------------------------------------------------------------------------------

	Writing optimization data to binary file.
	Structure for next step:
	Cartesian Geometry (in Angstrom)
	    S     0.0000000000   0.0000000000  -0.5127481444
	    C     0.0000000000  -0.0000000000   0.8291358420
	    H     0.9239282671   0.0000000000   1.4458348856
	    H    -0.9239282671  -0.0000000000   1.4458348856
			--------------------------
			 OPTKING Finished Execution 
			--------------------------

    Structure for next step:
[...]

  //>>>>>>>>>>>>>>>>>>>>>>>>>>>>>>>>>>>//
  //   Loading displacement 18 of 18   //
  //<<<<<<<<<<<<<<<<<<<<<<<<<<<<<<<<<<<//

*** tstart() called on bp1-compute00090.data.bp.acrc.priv
*** at Tue Apr 27 17:56:21 2021

   => Loading Basis Set <=

    Name: AUG-CC-PV(D+D)Z
    Role: ORBITAL
    Keyword: BASIS
    atoms 1   entry S          line   724 file /work/zw18965/.conda/envs/p4env/share/psi4/basis/aug-cc-pv_dpd_z.gbs 
    atoms 2   entry C          line   198 file /work/zw18965/.conda/envs/p4env/share/psi4/basis/aug-cc-pv_dpd_z.gbs 
    atoms 3-4 entry H          line    56 file /work/zw18965/.conda/envs/p4env/share/psi4/basis/aug-cc-pv_dpd_z.gbs 


         ---------------------------------------------------------
                                   SCF
               by Justin Turney, Rob Parrish, Andy Simmonett
                          and Daniel G. A. Smith
                              RKS Reference
                       24 Threads, 137329 MiB Core
         ---------------------------------------------------------

  ==> Geometry <==

    Molecular point group: cs
    Full point group: Cs

    Geometry (in Angstrom), charge = 0, multiplicity = 1:

       Center              X                  Y                   Z               Mass       
    ------------   -----------------  -----------------  -----------------  -----------------
         S            0.000000000000    -0.000036956219    -0.514561992895    31.972071174400
         C            0.000000000000     0.000370979320     1.090405341614    12.000000000000
         H            0.932069207517    -0.001622397181     1.670304097163     1.007825032230
         H           -0.932069207517    -0.001622397181     1.670304097163     1.007825032230

  Running in cs symmetry.

  Rotational constants: A =      9.62683  B =      0.59449  C =      0.55991 [cm^-1]
  Rotational constants: A = 288605.10256  B =  17822.21992  C =  16785.66375 [MHz]
  Nuclear repulsion =   44.849796282609219

  Charge       = 0
  Multiplicity = 1
  Electrons    = 24
  Nalpha       = 12
  Nbeta        = 12

  ==> Algorithm <==

  SCF Algorithm Type is DF.
  DIIS enabled.
  MOM disabled.
  Fractional occupation disabled.
  Guess Type is SAD.
  Energy threshold   = 1.00e-10
  Density threshold  = 1.00e-10
  Integral threshold = 0.00e+00

  ==> Primary Basis <==

  Basis Set: AUG-CC-PV(D+D)Z
    Blend: AUG-CC-PV(D+D)Z
    Number of shells: 31
    Number of basis function: 73
    Number of Cartesian functions: 78
    Spherical Harmonics?: true
    Max angular momentum: 2

  ==> DFT Potential <==

   => Composite Functional: WB97X-V <= 

    wB97X-V Hyb-GGA Exchange-Correlation Functional

    N. Mardirossian and M. Head-Gordon, Phys. Chem. Chem. Phys. 16, 9904 (2014)

    Deriv               =              1
    GGA                 =           TRUE
    Meta                =          FALSE

    Exchange Hybrid     =           TRUE
    MP2 Hybrid          =          FALSE

   => Exchange-Correlation Functionals <=

    1.0000   wB97X-V range-separated functional

   => Exact (HF) Exchange <=

    0.8330            HF,LR [omega = 0.3000]
    0.1670               HF 

   => VV10 Non-Local Parameters <=

    VV10 B              =     6.0000E+00
    VV10 C              =     1.0000E-02

   => Molecular Quadrature <=

    Radial Scheme          =       TREUTLER
    Pruning Scheme         =           FLAT
    Nuclear Scheme         =       TREUTLER

    BS radius alpha        =              1
    Pruning alpha          =              1
    Radial Points          =             75
    Spherical Points       =            302
    Total Points           =          90600
    Total Blocks           =            753
    Max Points             =            256
    Max Functions          =             73

   => Loading Basis Set <=

    Name: (AUG-CC-PV(D+D)Z AUX)
    Role: JKFIT
    Keyword: DF_BASIS_SCF
    atoms 1   entry S          line   690 file /work/zw18965/.conda/envs/p4env/share/psi4/basis/aug-cc-pvdz-jkfit.gbs 
    atoms 2   entry C          line   154 file /work/zw18965/.conda/envs/p4env/share/psi4/basis/aug-cc-pvdz-jkfit.gbs 
    atoms 3-4 entry H          line    70 file /work/zw18965/.conda/envs/p4env/share/psi4/basis/aug-cc-pvdz-jkfit.gbs 

  ==> Pre-Iterations <==

   -------------------------------------------------------
    Irrep   Nso     Nmo     Nalpha   Nbeta   Ndocc  Nsocc
   -------------------------------------------------------
     A'        47      47       0       0       0       0
     A"        26      26       0       0       0       0
   -------------------------------------------------------
    Total      73      73      12      12      12       0
   -------------------------------------------------------

  ==> Integral Setup <==

  ==> DiskDFJK: Density-Fitted J/K Matrices <==

    J tasked:                  Yes
    K tasked:                  Yes
    wK tasked:                 Yes
    Omega:               3.000E-01
    OpenMP threads:             24
    Integrals threads:          24
    Memory [MiB]:           102812
    Algorithm:                Core
    Integral Cache:           NONE
    Schwarz Cutoff:          1E-12
    Fitting Condition:       1E-10

   => Auxiliary Basis Set <=

  Basis Set: (AUG-CC-PV(D+D)Z AUX)
    Blend: AUG-CC-PVDZ-JKFIT
    Number of shells: 92
    Number of basis function: 278
    Number of Cartesian functions: 321
    Spherical Harmonics?: true
    Max angular momentum: 3

  Cached 100.0% of DFT collocation blocks in 0.180 [GiB].

  Minimum eigenvalue in the overlap matrix is 5.1751206495E-04.
  Using Symmetric Orthogonalization.

  SCF Guess: Superposition of Atomic Densities via on-the-fly atomic UHF.

  ==> Iterations <==

                           Total Energy        Delta E     RMS |[F,P]|

   @DF-RKS iter SAD:  -436.89887753206170   -4.36899e+02   0.00000e+00 
   @DF-RKS iter   1:  -437.34860368487261   -4.49726e-01   5.39305e-03 DIIS
   @DF-RKS iter   2:  -437.36822310994347   -1.96194e-02   4.33917e-03 DIIS
   @DF-RKS iter   3:  -437.39570798153653   -2.74849e-02   7.97428e-04 DIIS
   @DF-RKS iter   4:  -437.39683549340572   -1.12751e-03   1.98078e-04 DIIS
   @DF-RKS iter   5:  -437.39693455258760   -9.90592e-05   4.30694e-05 DIIS
   @DF-RKS iter   6:  -437.39693932640051   -4.77381e-06   1.58765e-05 DIIS
   @DF-RKS iter   7:  -437.39694032949740   -1.00310e-06   3.35278e-06 DIIS
   @DF-RKS iter   8:  -437.39694039369857   -6.42012e-08   6.26659e-07 DIIS
   @DF-RKS iter   9:  -437.39694039546475   -1.76618e-09   1.24761e-07 DIIS
   @DF-RKS iter  10:  -437.39694039552359   -5.88329e-11   1.51472e-08 DIIS
   @DF-RKS iter  11:  -437.39694039552461   -1.02318e-12   3.13252e-09 DIIS
   @DF-RKS iter  12:  -437.39694039552461    0.00000e+00   3.53632e-10 DIIS
   @DF-RKS iter  13:  -437.39694039552512   -5.11591e-13   7.51199e-11 DIIS
  Energy and wave function converged.


  ==> Post-Iterations <==

    Orbital Energies [Eh]
    ---------------------

    Doubly Occupied:                                                      

       1Ap   -88.881384     2Ap   -10.362768     3Ap    -8.048052  
       4Ap    -6.004347     5Ap    -6.002410     1App   -5.993370  
       6Ap    -0.937206     7Ap    -0.724739     2App   -0.579795  
       8Ap    -0.504536     9Ap    -0.423934     3App   -0.334231  

    Virtual:                                                              

      10Ap    -0.013326    11Ap     0.036432     4App    0.054475  
      12Ap     0.071459    13Ap     0.107372    14Ap     0.119392  
       5App    0.140718    15Ap     0.149893    16Ap     0.154324  
       6App    0.172844    17Ap     0.213657    18Ap     0.237807  
       7App    0.256344    19Ap     0.259178     8App    0.278911  
      20Ap     0.355248    21Ap     0.374839    22Ap     0.377289  
       9App    0.393716    10App    0.434629    23Ap     0.473402  
      11App    0.480434    24Ap     0.496670    12App    0.554292  
      25Ap     0.562095    26Ap     0.596346    27Ap     0.618624  
      13App    0.623239    28Ap     0.630962    14App    0.643042  
      29Ap     0.731785    30Ap     0.819250    15App    0.821798  
      31Ap     0.868499    32Ap     0.871182    33Ap     0.954251  
      16App    0.957295    34Ap     0.975377    17App    0.980724  
      18App    1.094555    35Ap     1.139841    36Ap     1.269326  
      19App    1.415557    37Ap     1.416916    20App    1.425080  
      38Ap     1.538942    39Ap     1.679414    21App    1.769077  
      40Ap     1.813722    41Ap     1.949908    22App    2.050973  
      42Ap     2.074685    23App    2.081231    43Ap     2.367701  
      44Ap     2.608923    24App    2.657505    25App    4.699972  
      45Ap     4.711580    46Ap     4.749671    26App    4.799651  
      47Ap     4.824186  

    Final Occupation by Irrep:
             Ap   App 
    DOCC [     9,    3 ]

  @DF-RKS Final Energy:  -437.39694039552512

   => Energetics <=

    Nuclear Repulsion Energy =             44.8497962826092191
    One-Electron Energy =                -690.9720933211681313
    Two-Electron Energy =                 232.1291706221883828
    DFT Exchange-Correlation Energy =     -23.5030924433521129
    Empirical Dispersion Energy =           0.0000000000000000
    VV10 Nonlocal Energy =                  0.0992784641975527
    Total Energy =                       -437.3969403955251209

Computation Completed


Properties will be evaluated at   0.000000,   0.000000,   0.000000 [a0]

Properties computed using the SCF density matrix

  Nuclear Dipole Moment: [e a0]
     X:     0.0000      Y:    -0.0030      Z:     3.1181

  Electronic Dipole Moment: [e a0]
     X:     0.0000      Y:     0.0020      Z:    -2.3930

  Dipole Moment: [e a0]
     X:     0.0000      Y:    -0.0011      Z:     0.7252     Total:     0.7252

  Dipole Moment: [D]
     X:     0.0000      Y:    -0.0027      Z:     1.8432     Total:     1.8432


*** tstop() called on bp1-compute00090.data.bp.acrc.priv at Tue Apr 27 17:56:25 2021
Module time:
	user time   =      88.46 seconds =       1.47 minutes
	system time =       2.22 seconds =       0.04 minutes
	total time  =          4 seconds =       0.07 minutes
Total time:
	user time   =    5816.45 seconds =      96.94 minutes
	system time =     156.40 seconds =       2.61 minutes
	total time  =        251 seconds =       4.18 minutes

         ----------------------------------------------------------
                                   FINDIF
                     R. A. King and Jonathon Misiewicz
         ---------------------------------------------------------

  Computing second-derivative from energies using projected, 
  symmetry-adapted, cartesian coordinates.

  18 energies passed in, including the reference geometry.
    Using 3-point formula.
    Energy without displacement: -437.3969409281
    Check energies below for precision!
    0: -1        :      -437.3969403269
    0: 1         :      -437.3969402759
    1: -1        :      -437.3969389137
    1: 1         :      -437.3969388652
    2: -1        :      -437.3969373652
    2: 1         :      -437.3969373536
    0: 1, 1: 1   :      -437.3969383935
    0: -1, 1: -1 :      -437.3969384928
    0: 1, 2: 1   :      -437.3969366706
    0: -1, 2: -1 :      -437.3969367337
    1: 1, 2: 1   :      -437.3969384383
    1: -1, 2: -1 :      -437.3969385173
    3: -1        :      -437.3969404434
    4: -1        :      -437.3969360814
    3: 1, 4: 1   :      -437.3969356402
    3: -1, 4: -1 :      -437.3969356405
    5: -1        :      -437.3969403955

-------------------------------------------------------------


  ==> Harmonic Vibrational Analysis <==

  non-mass-weighted Hessian:       Symmetric? True   Hermitian? True   Lin Dep Dim?  6 (0)
  projection of translations (True) and rotations (True) removed 6 degrees of freedom (6)
  total projector:                 Symmetric? True   Hermitian? True   Lin Dep Dim?  6 (6)
  mass-weighted Hessian:           Symmetric? True   Hermitian? True   Lin Dep Dim?  6 (0)
  pre-proj  low-frequency mode:    0.0000i [cm^-1]
  pre-proj  low-frequency mode:    0.0000i [cm^-1]
  pre-proj  low-frequency mode:    0.0000i [cm^-1]
  pre-proj  low-frequency mode:    0.0000i [cm^-1]
  pre-proj  low-frequency mode:    0.0000  [cm^-1]
  pre-proj  low-frequency mode:    0.0000  [cm^-1]
  pre-proj  all modes:['0.0000i' '0.0000i' '0.0000i' '0.0000i' '0.0000' '0.0000' '1012.0879'
 '1061.0321' '1140.1987' '1497.1094' '3104.3423' '3200.9438']
  projected mass-weighted Hessian: Symmetric? True   Hermitian? True   Lin Dep Dim?  6 (6)
  post-proj low-frequency mode:    0.0000i [cm^-1] (TR)
  post-proj low-frequency mode:    0.0000i [cm^-1] (TR)
  post-proj low-frequency mode:    0.0000i [cm^-1] (TR)
  post-proj low-frequency mode:    0.0000i [cm^-1] (TR)
  post-proj low-frequency mode:    0.0000  [cm^-1] (TR)
  post-proj low-frequency mode:    0.0000  [cm^-1] (TR)
  post-proj  all modes:['0.0000i' '0.0000i' '0.0000i' '0.0000i' '0.0000' '0.0000' '1012.0879'
 '1061.0321' '1140.1987' '1497.1094' '3104.3423' '3200.9438']

  Vibration                       7                   8                   9           
  Freq [cm^-1]                1012.0879           1061.0321           1140.1987       
  Irrep                           B1                  B2                  A1          
  Reduced mass [u]              1.2079              1.2956              4.0093        
  Force const [mDyne/A]         0.7290              0.8594              3.0710        
  Turning point v=0 [a0]        0.3138              0.2959              0.1623        
  RMS dev v=0 [a0 u^1/2]        0.2439              0.2382              0.2298        
  Char temp [K]               1456.1691           1526.5890           1640.4921       
  ----------------------------------------------------------------------------------
      1   S               -0.03 -0.00 -0.00    0.00  0.02 -0.00    0.00 -0.00 -0.19   
      2   C                0.13 -0.00  0.00   -0.00 -0.16  0.00    0.00  0.00  0.41   
      3   H               -0.27  0.00  0.65   -0.00  0.70  0.00   -0.10 -0.00  0.62   
      4   H               -0.27  0.00 -0.65    0.00  0.70  0.00    0.10 -0.00  0.62   

  Vibration                       10                  11                  12          
  Freq [cm^-1]                1497.1094           3104.3423           3200.9438       
  Irrep                           A1                  A1                  B1          
  Reduced mass [u]              1.2317              1.0518              1.1200        
  Force const [mDyne/A]         1.6265              5.9718              6.7611        
  Turning point v=0 [a0]        0.2555              0.1920              0.1833        
  RMS dev v=0 [a0 u^1/2]        0.2005              0.1393              0.1371        
  Char temp [K]               2154.0070           4466.4575           4605.4455       
  ----------------------------------------------------------------------------------
      1   S                0.00  0.00  0.02    0.00  0.00  0.00    0.00  0.00  0.00   
      2   C               -0.00  0.00 -0.14    0.00  0.00 -0.06   -0.10  0.00 -0.00   
      3   H               -0.41 -0.00  0.57    0.61  0.00  0.35    0.60  0.00  0.37   
      4   H                0.41 -0.00  0.57   -0.61 -0.00  0.35    0.60  0.00 -0.37   

  ==> Thermochemistry Components <==

  Entropy, S
    Electronic S            0.000 [cal/(mol K)]        0.000 [J/(mol K)]       0.00000000 [mEh/K] (multiplicity = 1)
    Translational S        37.403 [cal/(mol K)]      156.492 [J/(mol K)]       0.05960470 [mEh/K] (mol. weight = 45.9877 [u], P = 101325.00 [Pa])
    Rotational S           17.483 [cal/(mol K)]       73.148 [J/(mol K)]       0.02786053 [mEh/K] (symmetry no. = 2)
    Vibrational S           0.227 [cal/(mol K)]        0.950 [J/(mol K)]       0.00036171 [mEh/K]
  Total S                  55.112 [cal/(mol K)]      230.590 [J/(mol K)]       0.08782694 [mEh/K]
  Correction S              0.000 [cal/(mol K)]        0.000 [J/(mol K)]       0.00000000 [mEh/K]

  Constant volume heat capacity, Cv
    Electronic Cv           0.000 [cal/(mol K)]        0.000 [J/(mol K)]       0.00000000 [mEh/K]
    Translational Cv        2.981 [cal/(mol K)]       12.472 [J/(mol K)]       0.00475022 [mEh/K]
    Rotational Cv           2.981 [cal/(mol K)]       12.472 [J/(mol K)]       0.00475022 [mEh/K]
    Vibrational Cv          1.002 [cal/(mol K)]        4.194 [J/(mol K)]       0.00159745 [mEh/K]
  Total Cv                  6.964 [cal/(mol K)]       29.137 [J/(mol K)]       0.01109788 [mEh/K]
  Correction Cv             0.000 [cal/(mol K)]        0.000 [J/(mol K)]       0.00000000 [mEh/K]

  Constant pressure heat capacity, Cp
    Electronic Cp           0.000 [cal/(mol K)]        0.000 [J/(mol K)]       0.00000000 [mEh/K]
    Translational Cp        4.968 [cal/(mol K)]       20.786 [J/(mol K)]       0.00791703 [mEh/K]
    Rotational Cp           2.981 [cal/(mol K)]       12.472 [J/(mol K)]       0.00475022 [mEh/K]
    Vibrational Cp          1.002 [cal/(mol K)]        4.194 [J/(mol K)]       0.00159745 [mEh/K]
  Total Cp                  8.951 [cal/(mol K)]       37.452 [J/(mol K)]       0.01426469 [mEh/K]
  Correction Cp             0.000 [cal/(mol K)]        0.000 [J/(mol K)]       0.00000000 [mEh/K]

  ==> Thermochemistry Energy Analysis <==

  Raw electronic energy, E0
  Total E0, Electronic energy at well bottom at 0 [K]                 -437.39694093 [Eh]

  Zero-point energy, ZPE_vib = Sum_i nu_i / 2
    Electronic ZPE          0.000 [kcal/mol]        0.000 [kJ/mol]       0.00000000 [Eh]
    Translational ZPE       0.000 [kcal/mol]        0.000 [kJ/mol]       0.00000000 [Eh]
    Rotational ZPE          0.000 [kcal/mol]        0.000 [kJ/mol]       0.00000000 [Eh]
    Vibrational ZPE        15.748 [kcal/mol]       65.889 [kJ/mol]       0.02509564 [Eh]        5507.857 [cm^-1]
  Correction ZPE           15.748 [kcal/mol]       65.889 [kJ/mol]       0.02509564 [Eh]        5507.857 [cm^-1]
  Total ZPE, Electronic energy at 0 [K]                               -437.37184528 [Eh]

  Thermal Energy, E (includes ZPE)
    Electronic E            0.000 [kcal/mol]        0.000 [kJ/mol]       0.00000000 [Eh]
    Translational E         0.889 [kcal/mol]        3.718 [kJ/mol]       0.00141628 [Eh]
    Rotational E            0.889 [kcal/mol]        3.718 [kJ/mol]       0.00141628 [Eh]
    Vibrational E          15.805 [kcal/mol]       66.126 [kJ/mol]       0.02518611 [Eh]
  Correction E             17.582 [kcal/mol]       73.563 [kJ/mol]       0.02801866 [Eh]
  Total E, Electronic energy at  298.15 [K]                           -437.36892226 [Eh]

  Enthalpy, H_trans = E_trans + k_B * T
    Electronic H            0.000 [kcal/mol]        0.000 [kJ/mol]       0.00000000 [Eh]
    Translational H         1.481 [kcal/mol]        6.197 [kJ/mol]       0.00236046 [Eh]
    Rotational H            0.889 [kcal/mol]        3.718 [kJ/mol]       0.00141628 [Eh]
    Vibrational H          15.805 [kcal/mol]       66.126 [kJ/mol]       0.02518611 [Eh]
  Correction H             18.174 [kcal/mol]       76.042 [kJ/mol]       0.02896285 [Eh]
  Total H, Enthalpy at  298.15 [K]                                    -437.36797808 [Eh]

  Gibbs free energy, G = H - T * S
    Electronic G            0.000 [kcal/mol]        0.000 [kJ/mol]       0.00000000 [Eh]
    Translational G        -9.670 [kcal/mol]      -40.461 [kJ/mol]      -0.01541068 [Eh]
    Rotational G           -4.324 [kcal/mol]      -18.091 [kJ/mol]      -0.00689034 [Eh]
    Vibrational G          15.737 [kcal/mol]       65.843 [kJ/mol]       0.02507827 [Eh]
  Correction G              1.743 [kcal/mol]        7.292 [kJ/mol]       0.00277725 [Eh]
  Total G, Free enthalpy at  298.15 [K]                               -437.39416368 [Eh]

    Psi4 stopped on: Tuesday, 27 April 2021 05:56PM
    Psi4 wall time for execution: 0:04:11.21

*** Psi4 exiting successfully. Buy a developer a beer!
