
    -----------------------------------------------------------------------
          Psi4: An Open-Source Ab Initio Electronic Structure Package
                               Psi4 1.3.2 release

                         Git: Rev {HEAD} ecbda83 


    R. M. Parrish, L. A. Burns, D. G. A. Smith, A. C. Simmonett,
    A. E. DePrince III, E. G. Hohenstein, U. Bozkaya, A. Yu. Sokolov,
    R. Di Remigio, R. M. Richard, J. F. Gonthier, A. M. James,
    H. R. McAlexander, A. Kumar, M. Saitow, X. Wang, B. P. Pritchard,
    P. Verma, H. F. Schaefer III, K. Patkowski, R. A. King, E. F. Valeev,
    F. A. Evangelista, J. M. Turney, T. D. Crawford, and C. D. Sherrill,
    J. Chem. Theory Comput. 13(7) pp 3185--3197 (2017).
    (doi: 10.1021/acs.jctc.7b00174)


                         Additional Contributions by
    P. Kraus, H. Kruse, M. H. Lechner, M. C. Schieber, R. A. Shaw,
    A. Alenaizan, R. Galvelis, Z. L. Glick, S. Lehtola, and J. P. Misiewicz

    -----------------------------------------------------------------------


    Psi4 started on: Tuesday, 27 April 2021 05:52PM

    Process ID: 197276
    Host:       bp1-compute00105.data.bp.acrc.priv
    PSIDATADIR: /work/zw18965/.conda/envs/p4env/share/psi4
    Memory:     500.0 MiB
    Threads:    24
    
  ==> Input File <==

--------------------------------------------------------------------------
memory 144 GB

molecule {
0 1
S 0.0000000000 0.0000000000 0.0000000000
H 0.0000000000 0.0000000000 1.3377284100
H 1.3366219004 0.0000000000 -0.0543984776
}

set dynamic_level 1
set basis aug-cc-pV(D+d)Z
 
optimize("wB97X-V")
frequencies("wB97X-V")
--------------------------------------------------------------------------

  Memory set to 134.110 GiB by Python driver.
gradient() will perform gradient computation by finite difference of analytic energies.

         ----------------------------------------------------------
                                   FINDIF
                     R. A. King and Jonathon Misiewicz
         ---------------------------------------------------------

  Using finite-differences of energies to determine gradients.
    Generating geometries for use with 3-point formula.
    Displacement size will be 5.00e-03.
    Number of atoms is 3.
    Number of symmetric SALCs is 2.
    Translations projected? 1. Rotations projected? 1.
    Number of geometries (including reference) is 5.

  //>>>>>>>>>>>>>>>>>>>>>>>>>>>>>>>>>>>//
  //    Loading displacement 1 of 5    //
  //<<<<<<<<<<<<<<<<<<<<<<<<<<<<<<<<<<<//

*** tstart() called on bp1-compute00105.data.bp.acrc.priv
*** at Tue Apr 27 17:52:24 2021

   => Loading Basis Set <=

    Name: AUG-CC-PV(D+D)Z
    Role: ORBITAL
    Keyword: BASIS
    atoms 1   entry S          line   724 file /work/zw18965/.conda/envs/p4env/share/psi4/basis/aug-cc-pv_dpd_z.gbs 
    atoms 2-3 entry H          line    56 file /work/zw18965/.conda/envs/p4env/share/psi4/basis/aug-cc-pv_dpd_z.gbs 


         ---------------------------------------------------------
                                   SCF
               by Justin Turney, Rob Parrish, Andy Simmonett
                          and Daniel G. A. Smith
                              RKS Reference
                       24 Threads, 137329 MiB Core
         ---------------------------------------------------------

  ==> Geometry <==

    Molecular point group: c2v
    Full point group: C2v

    Geometry (in Angstrom), charge = 0, multiplicity = 1:

       Center              X                  Y                   Z               Mass       
    ------------   -----------------  -----------------  -----------------  -----------------
         S           -0.000000000000     0.000000000000    -0.054945385977    31.972071174400
         H           -0.000000000000     0.964957949318     0.871539074231     1.007825032230
         H            0.000000000000    -0.964957949318     0.871539074231     1.007825032230

  Running in c2v symmetry.

  Rotational constants: A =     10.35753  B =      8.98182  C =      4.81037 [cm^-1]
  Rotational constants: A = 310511.05038  B = 269268.33579  C = 144211.39450 [MHz]
  Nuclear repulsion =   12.932723691197257

  Charge       = 0
  Multiplicity = 1
  Electrons    = 18
  Nalpha       = 9
  Nbeta        = 9

  ==> Algorithm <==

  SCF Algorithm Type is DF.
  DIIS enabled.
  MOM disabled.
  Fractional occupation disabled.
  Guess Type is SAD.
  Energy threshold   = 1.00e-08
  Density threshold  = 1.00e-08
  Integral threshold = 0.00e+00

  ==> Primary Basis <==

  Basis Set: AUG-CC-PV(D+D)Z
    Blend: AUG-CC-PV(D+D)Z
    Number of shells: 22
    Number of basis function: 50
    Number of Cartesian functions: 53
    Spherical Harmonics?: true
    Max angular momentum: 2

  ==> DFT Potential <==

   => Composite Functional: WB97X-V <= 

    wB97X-V Hyb-GGA Exchange-Correlation Functional

    N. Mardirossian and M. Head-Gordon, Phys. Chem. Chem. Phys. 16, 9904 (2014)

    Deriv               =              1
    GGA                 =           TRUE
    Meta                =          FALSE

    Exchange Hybrid     =           TRUE
    MP2 Hybrid          =          FALSE

   => Exchange-Correlation Functionals <=

    1.0000   wB97X-V range-separated functional

   => Exact (HF) Exchange <=

    0.8330            HF,LR [omega = 0.3000]
    0.1670               HF 

   => VV10 Non-Local Parameters <=

    VV10 B              =     6.0000E+00
    VV10 C              =     1.0000E-02

   => Molecular Quadrature <=

    Radial Scheme          =       TREUTLER
    Pruning Scheme         =           FLAT
    Nuclear Scheme         =       TREUTLER

    BS radius alpha        =              1
    Pruning alpha          =              1
    Radial Points          =             75
    Spherical Points       =            302
    Total Points           =          67950
    Total Blocks           =            574
    Max Points             =            252
    Max Functions          =             50

   => Loading Basis Set <=

    Name: (AUG-CC-PV(D+D)Z AUX)
    Role: JKFIT
    Keyword: DF_BASIS_SCF
    atoms 1   entry S          line   690 file /work/zw18965/.conda/envs/p4env/share/psi4/basis/aug-cc-pvdz-jkfit.gbs 
    atoms 2-3 entry H          line    70 file /work/zw18965/.conda/envs/p4env/share/psi4/basis/aug-cc-pvdz-jkfit.gbs 

  ==> Pre-Iterations <==

   -------------------------------------------------------
    Irrep   Nso     Nmo     Nalpha   Nbeta   Ndocc  Nsocc
   -------------------------------------------------------
     A1        22      22       0       0       0       0
     A2         5       5       0       0       0       0
     B1         9       9       0       0       0       0
     B2        14      14       0       0       0       0
   -------------------------------------------------------
    Total      50      50       9       9       9       0
   -------------------------------------------------------

  ==> Integral Setup <==

  ==> DiskDFJK: Density-Fitted J/K Matrices <==

    J tasked:                  Yes
    K tasked:                  Yes
    wK tasked:                 Yes
    Omega:               3.000E-01
    OpenMP threads:             24
    Integrals threads:          24
    Memory [MiB]:           102899
    Algorithm:                Core
    Integral Cache:           NONE
    Schwarz Cutoff:          1E-12
    Fitting Condition:       1E-10

   => Auxiliary Basis Set <=

  Basis Set: (AUG-CC-PV(D+D)Z AUX)
    Blend: AUG-CC-PVDZ-JKFIT
    Number of shells: 64
    Number of basis function: 192
    Number of Cartesian functions: 220
    Spherical Harmonics?: true
    Max angular momentum: 3

  Cached 100.0% of DFT collocation blocks in 0.095 [GiB].

  Minimum eigenvalue in the overlap matrix is 9.4819881710E-04.
  Using Symmetric Orthogonalization.

  SCF Guess: Superposition of Atomic Densities via on-the-fly atomic UHF.

  ==> Iterations <==

                           Total Energy        Delta E     RMS |[F,P]|

   @DF-RKS iter SAD:  -399.07456839381496   -3.99075e+02   0.00000e+00 
   @DF-RKS iter   1:  -399.30215133085892   -2.27583e-01   7.79470e-03 DIIS
   @DF-RKS iter   2:  -399.32761364108785   -2.54623e-02   4.24256e-03 DIIS
   @DF-RKS iter   3:  -399.33517783204115   -7.56419e-03   3.68727e-04 DIIS
   @DF-RKS iter   4:  -399.33535546131282   -1.77629e-04   9.36511e-05 DIIS
   @DF-RKS iter   5:  -399.33536584246644   -1.03812e-05   1.92538e-05 DIIS
   @DF-RKS iter   6:  -399.33536615628805   -3.13822e-07   3.51573e-06 DIIS
   @DF-RKS iter   7:  -399.33536616767134   -1.13833e-08   5.57472e-07 DIIS
   @DF-RKS iter   8:  -399.33536616798432   -3.12980e-10   7.50068e-08 DIIS
   @DF-RKS iter   9:  -399.33536616799427   -9.94760e-12   9.26161e-09 DIIS
  Energy and wave function converged.


  ==> Post-Iterations <==

    Orbital Energies [Eh]
    ---------------------

    Doubly Occupied:                                                      

       1A1   -88.887402     2A1    -8.054103     1B2    -6.010667  
       3A1    -6.007249     1B1    -6.000396     4A1    -0.874503  
       2B2    -0.552451     5A1    -0.473327     2B1    -0.366236  

    Virtual:                                                              

       6A1     0.032372     3B2     0.062040     4B2     0.096636  
       7A1     0.109677     3B1     0.120682     8A1     0.156114  
       5B2     0.175941     9A1     0.202294    10A1     0.236909  
       1A2     0.270451     4B1     0.276890     6B2     0.379374  
      11A1     0.421559     7B2     0.449544    12A1     0.488496  
       5B1     0.491153     2A2     0.497328    13A1     0.533574  
       8B2     0.577961    14A1     0.736724     6B1     0.774140  
       9B2     0.776278    15A1     0.794194     3A2     0.947487  
       7B1     0.970337    16A1     1.006911    10B2     1.036476  
      17A1     1.056345    11B2     1.207464    18A1     1.494629  
       4A2     1.682819    12B2     1.706520     8B1     1.733703  
      19A1     1.831891    20A1     2.184315    13B2     2.249600  
       5A2     4.735693     9B1     4.739844    21A1     4.757158  
      22A1     4.773458    14B2     4.877012  

    Final Occupation by Irrep:
             A1    A2    B1    B2 
    DOCC [     5,    0,    2,    2 ]

  @DF-RKS Final Energy:  -399.33536616799427

   => Energetics <=

    Nuclear Repulsion Energy =             12.9327236911972570
    One-Electron Energy =                -576.6773096680876733
    Two-Electron Energy =                 184.0731553447583053
    DFT Exchange-Correlation Energy =     -19.7397089270008905
    Empirical Dispersion Energy =           0.0000000000000000
    VV10 Nonlocal Energy =                  0.0757733911387856
    Total Energy =                       -399.3353661679942093

Computation Completed


Properties will be evaluated at   0.000000,   0.000000,   0.000000 [a0]

Properties computed using the SCF density matrix

  Nuclear Dipole Moment: [e a0]
     X:    -0.0000      Y:     0.0000      Z:     1.6326

  Electronic Dipole Moment: [e a0]
     X:     0.0000      Y:     0.0000      Z:    -1.2101

  Dipole Moment: [e a0]
     X:    -0.0000      Y:     0.0000      Z:     0.4225     Total:     0.4225

  Dipole Moment: [D]
     X:    -0.0000      Y:     0.0000      Z:     1.0739     Total:     1.0739


*** tstop() called on bp1-compute00105.data.bp.acrc.priv at Tue Apr 27 17:52:27 2021
Module time:
	user time   =      54.32 seconds =       0.91 minutes
	system time =       2.21 seconds =       0.04 minutes
	total time  =          3 seconds =       0.05 minutes
Total time:
	user time   =      54.32 seconds =       0.91 minutes
	system time =       2.21 seconds =       0.04 minutes
	total time  =          3 seconds =       0.05 minutes

  //>>>>>>>>>>>>>>>>>>>>>>>>>>>>>>>>>>>//
  //    Loading displacement 2 of 5    //
  //<<<<<<<<<<<<<<<<<<<<<<<<<<<<<<<<<<<//

*** tstart() called on bp1-compute00105.data.bp.acrc.priv
*** at Tue Apr 27 17:52:27 2021

   => Loading Basis Set <=

    Name: AUG-CC-PV(D+D)Z
    Role: ORBITAL
    Keyword: BASIS
    atoms 1   entry S          line   724 file /work/zw18965/.conda/envs/p4env/share/psi4/basis/aug-cc-pv_dpd_z.gbs 
    atoms 2-3 entry H          line    56 file /work/zw18965/.conda/envs/p4env/share/psi4/basis/aug-cc-pv_dpd_z.gbs 


         ---------------------------------------------------------
                                   SCF
               by Justin Turney, Rob Parrish, Andy Simmonett
                          and Daniel G. A. Smith
                              RKS Reference
                       24 Threads, 137329 MiB Core
         ---------------------------------------------------------

  ==> Geometry <==

    Molecular point group: c2v
    Full point group: C2v

    Geometry (in Angstrom), charge = 0, multiplicity = 1:

       Center              X                  Y                   Z               Mass       
    ------------   -----------------  -----------------  -----------------  -----------------
         S           -0.000000000000     0.000000000000    -0.055059340691    31.972071174400
         H           -0.000000000000     0.964957949318     0.873346614288     1.007825032230
         H            0.000000000000    -0.964957949318     0.873346614288     1.007825032230

  Running in c2v symmetry.

  Rotational constants: A =     10.31470  B =      8.98182  C =      4.80112 [cm^-1]
  Rotational constants: A = 309227.06911  B = 269268.33579  C = 143933.82830 [MHz]
  Nuclear repulsion =   12.920136565049020

  Charge       = 0
  Multiplicity = 1
  Electrons    = 18
  Nalpha       = 9
  Nbeta        = 9

  ==> Algorithm <==

  SCF Algorithm Type is DF.
  DIIS enabled.
  MOM disabled.
  Fractional occupation disabled.
  Guess Type is SAD.
  Energy threshold   = 1.00e-08
  Density threshold  = 1.00e-08
  Integral threshold = 0.00e+00

  ==> Primary Basis <==

  Basis Set: AUG-CC-PV(D+D)Z
    Blend: AUG-CC-PV(D+D)Z
    Number of shells: 22
    Number of basis function: 50
    Number of Cartesian functions: 53
    Spherical Harmonics?: true
    Max angular momentum: 2

  ==> DFT Potential <==

   => Composite Functional: WB97X-V <= 

    wB97X-V Hyb-GGA Exchange-Correlation Functional

    N. Mardirossian and M. Head-Gordon, Phys. Chem. Chem. Phys. 16, 9904 (2014)

    Deriv               =              1
    GGA                 =           TRUE
    Meta                =          FALSE

    Exchange Hybrid     =           TRUE
    MP2 Hybrid          =          FALSE

   => Exchange-Correlation Functionals <=

    1.0000   wB97X-V range-separated functional

   => Exact (HF) Exchange <=

    0.8330            HF,LR [omega = 0.3000]
    0.1670               HF 

   => VV10 Non-Local Parameters <=

    VV10 B              =     6.0000E+00
    VV10 C              =     1.0000E-02

   => Molecular Quadrature <=

    Radial Scheme          =       TREUTLER
    Pruning Scheme         =           FLAT
    Nuclear Scheme         =       TREUTLER

    BS radius alpha        =              1
    Pruning alpha          =              1
    Radial Points          =             75
    Spherical Points       =            302
    Total Points           =          67950
    Total Blocks           =            575
    Max Points             =            255
    Max Functions          =             50

   => Loading Basis Set <=

    Name: (AUG-CC-PV(D+D)Z AUX)
    Role: JKFIT
    Keyword: DF_BASIS_SCF
    atoms 1   entry S          line   690 file /work/zw18965/.conda/envs/p4env/share/psi4/basis/aug-cc-pvdz-jkfit.gbs 
    atoms 2-3 entry H          line    70 file /work/zw18965/.conda/envs/p4env/share/psi4/basis/aug-cc-pvdz-jkfit.gbs 

  ==> Pre-Iterations <==

   -------------------------------------------------------
    Irrep   Nso     Nmo     Nalpha   Nbeta   Ndocc  Nsocc
   -------------------------------------------------------
     A1        22      22       0       0       0       0
     A2         5       5       0       0       0       0
     B1         9       9       0       0       0       0
     B2        14      14       0       0       0       0
   -------------------------------------------------------
    Total      50      50       9       9       9       0
   -------------------------------------------------------

  ==> Integral Setup <==

  ==> DiskDFJK: Density-Fitted J/K Matrices <==

    J tasked:                  Yes
    K tasked:                  Yes
    wK tasked:                 Yes
    Omega:               3.000E-01
    OpenMP threads:             24
    Integrals threads:          24
    Memory [MiB]:           102899
    Algorithm:                Core
    Integral Cache:           NONE
    Schwarz Cutoff:          1E-12
    Fitting Condition:       1E-10

   => Auxiliary Basis Set <=

  Basis Set: (AUG-CC-PV(D+D)Z AUX)
    Blend: AUG-CC-PVDZ-JKFIT
    Number of shells: 64
    Number of basis function: 192
    Number of Cartesian functions: 220
    Spherical Harmonics?: true
    Max angular momentum: 3

  Cached 100.0% of DFT collocation blocks in 0.095 [GiB].

  Minimum eigenvalue in the overlap matrix is 9.5250720029E-04.
  Using Symmetric Orthogonalization.

  SCF Guess: Superposition of Atomic Densities via on-the-fly atomic UHF.

  ==> Iterations <==

                           Total Energy        Delta E     RMS |[F,P]|

   @DF-RKS iter SAD:  -399.07340518313833   -3.99073e+02   0.00000e+00 
   @DF-RKS iter   1:  -399.30212675035517   -2.28722e-01   7.79728e-03 DIIS
   @DF-RKS iter   2:  -399.32759414469575   -2.54674e-02   4.25105e-03 DIIS
   @DF-RKS iter   3:  -399.33519569292139   -7.60155e-03   3.68733e-04 DIIS
   @DF-RKS iter   4:  -399.33537337272708   -1.77680e-04   9.37789e-05 DIIS
   @DF-RKS iter   5:  -399.33538379676378   -1.04240e-05   1.92849e-05 DIIS
   @DF-RKS iter   6:  -399.33538411241670   -3.15653e-07   3.52942e-06 DIIS
   @DF-RKS iter   7:  -399.33538412386639   -1.14497e-08   5.58942e-07 DIIS
   @DF-RKS iter   8:  -399.33538412418284   -3.16447e-10   7.51526e-08 DIIS
   @DF-RKS iter   9:  -399.33538412419273   -9.89075e-12   9.25420e-09 DIIS
  Energy and wave function converged.


  ==> Post-Iterations <==

    Orbital Energies [Eh]
    ---------------------

    Doubly Occupied:                                                      

       1A1   -88.887585     2A1    -8.054217     1B2    -6.010782  
       3A1    -6.007377     1B1    -6.000510     4A1    -0.874236  
       2B2    -0.551941     5A1    -0.473446     2B1    -0.366215  

    Virtual:                                                              

       6A1     0.032338     3B2     0.062013     4B2     0.096434  
       7A1     0.109676     3B1     0.120687     8A1     0.155981  
       5B2     0.175752     9A1     0.202390    10A1     0.236701  
       1A2     0.270497     4B1     0.276744     6B2     0.379541  
      11A1     0.421532     7B2     0.449387    12A1     0.488296  
       5B1     0.491118     2A2     0.497166    13A1     0.533407  
       8B2     0.578195    14A1     0.736772     6B1     0.774061  
       9B2     0.776179    15A1     0.794244     3A2     0.947554  
       7B1     0.970462    16A1     1.006660    10B2     1.036540  
      17A1     1.055934    11B2     1.205460    18A1     1.493955  
       4A2     1.682497    12B2     1.706952     8B1     1.733448  
      19A1     1.831081    20A1     2.182900    13B2     2.247252  
       5A2     4.735402     9B1     4.739741    21A1     4.757049  
      22A1     4.773150    14B2     4.877089  

    Final Occupation by Irrep:
             A1    A2    B1    B2 
    DOCC [     5,    0,    2,    2 ]

  @DF-RKS Final Energy:  -399.33538412419273

   => Energetics <=

    Nuclear Repulsion Energy =             12.9201365650490203
    One-Electron Energy =                -576.6526267261559724
    Two-Electron Energy =                 184.0604085601262057
    DFT Exchange-Correlation Energy =     -19.7390750507802579
    Empirical Dispersion Energy =           0.0000000000000000
    VV10 Nonlocal Energy =                  0.0757725275682902
    Total Energy =                       -399.3353841241926716

Computation Completed


Properties will be evaluated at   0.000000,   0.000000,   0.000000 [a0]

Properties computed using the SCF density matrix

  Nuclear Dipole Moment: [e a0]
     X:    -0.0000      Y:     0.0000      Z:     1.6360

  Electronic Dipole Moment: [e a0]
     X:     0.0000      Y:     0.0000      Z:    -1.2136

  Dipole Moment: [e a0]
     X:    -0.0000      Y:     0.0000      Z:     0.4224     Total:     0.4224

  Dipole Moment: [D]
     X:    -0.0000      Y:     0.0000      Z:     1.0736     Total:     1.0736


*** tstop() called on bp1-compute00105.data.bp.acrc.priv at Tue Apr 27 17:52:29 2021
Module time:
	user time   =      56.05 seconds =       0.93 minutes
	system time =       2.18 seconds =       0.04 minutes
	total time  =          2 seconds =       0.03 minutes
Total time:
	user time   =     110.51 seconds =       1.84 minutes
	system time =       4.40 seconds =       0.07 minutes
	total time  =          5 seconds =       0.08 minutes

  //>>>>>>>>>>>>>>>>>>>>>>>>>>>>>>>>>>>//
  //    Loading displacement 3 of 5    //
  //<<<<<<<<<<<<<<<<<<<<<<<<<<<<<<<<<<<//

*** tstart() called on bp1-compute00105.data.bp.acrc.priv
*** at Tue Apr 27 17:52:29 2021

   => Loading Basis Set <=

    Name: AUG-CC-PV(D+D)Z
    Role: ORBITAL
    Keyword: BASIS
    atoms 1   entry S          line   724 file /work/zw18965/.conda/envs/p4env/share/psi4/basis/aug-cc-pv_dpd_z.gbs 
    atoms 2-3 entry H          line    56 file /work/zw18965/.conda/envs/p4env/share/psi4/basis/aug-cc-pv_dpd_z.gbs 


         ---------------------------------------------------------
                                   SCF
               by Justin Turney, Rob Parrish, Andy Simmonett
                          and Daniel G. A. Smith
                              RKS Reference
                       24 Threads, 137329 MiB Core
         ---------------------------------------------------------

  ==> Geometry <==

    Molecular point group: c2v
    Full point group: C2v

    Geometry (in Angstrom), charge = 0, multiplicity = 1:

       Center              X                  Y                   Z               Mass       
    ------------   -----------------  -----------------  -----------------  -----------------
         S           -0.000000000000     0.000000000000    -0.054831431263    31.972071174400
         H           -0.000000000000     0.964957949318     0.869731534174     1.007825032230
         H            0.000000000000    -0.964957949318     0.869731534174     1.007825032230

  Running in c2v symmetry.

  Rotational constants: A =     10.40063  B =      8.98182  C =      4.81965 [cm^-1]
  Rotational constants: A = 311803.04537  B = 269268.33579  C = 144489.45490 [MHz]
  Nuclear repulsion =   12.945322282799047

  Charge       = 0
  Multiplicity = 1
  Electrons    = 18
  Nalpha       = 9
  Nbeta        = 9

  ==> Algorithm <==

  SCF Algorithm Type is DF.
  DIIS enabled.
  MOM disabled.
  Fractional occupation disabled.
  Guess Type is SAD.
  Energy threshold   = 1.00e-08
  Density threshold  = 1.00e-08
  Integral threshold = 0.00e+00

  ==> Primary Basis <==

  Basis Set: AUG-CC-PV(D+D)Z
    Blend: AUG-CC-PV(D+D)Z
    Number of shells: 22
    Number of basis function: 50
    Number of Cartesian functions: 53
    Spherical Harmonics?: true
    Max angular momentum: 2

  ==> DFT Potential <==

   => Composite Functional: WB97X-V <= 

    wB97X-V Hyb-GGA Exchange-Correlation Functional

    N. Mardirossian and M. Head-Gordon, Phys. Chem. Chem. Phys. 16, 9904 (2014)

    Deriv               =              1
    GGA                 =           TRUE
    Meta                =          FALSE

    Exchange Hybrid     =           TRUE
    MP2 Hybrid          =          FALSE

   => Exchange-Correlation Functionals <=

    1.0000   wB97X-V range-separated functional

   => Exact (HF) Exchange <=

    0.8330            HF,LR [omega = 0.3000]
    0.1670               HF 

   => VV10 Non-Local Parameters <=

    VV10 B              =     6.0000E+00
    VV10 C              =     1.0000E-02

   => Molecular Quadrature <=

    Radial Scheme          =       TREUTLER
    Pruning Scheme         =           FLAT
    Nuclear Scheme         =       TREUTLER

    BS radius alpha        =              1
    Pruning alpha          =              1
    Radial Points          =             75
    Spherical Points       =            302
    Total Points           =          67950
    Total Blocks           =            574
    Max Points             =            256
    Max Functions          =             50

   => Loading Basis Set <=

    Name: (AUG-CC-PV(D+D)Z AUX)
    Role: JKFIT
    Keyword: DF_BASIS_SCF
    atoms 1   entry S          line   690 file /work/zw18965/.conda/envs/p4env/share/psi4/basis/aug-cc-pvdz-jkfit.gbs 
    atoms 2-3 entry H          line    70 file /work/zw18965/.conda/envs/p4env/share/psi4/basis/aug-cc-pvdz-jkfit.gbs 

  ==> Pre-Iterations <==

   -------------------------------------------------------
    Irrep   Nso     Nmo     Nalpha   Nbeta   Ndocc  Nsocc
   -------------------------------------------------------
     A1        22      22       0       0       0       0
     A2         5       5       0       0       0       0
     B1         9       9       0       0       0       0
     B2        14      14       0       0       0       0
   -------------------------------------------------------
    Total      50      50       9       9       9       0
   -------------------------------------------------------

  ==> Integral Setup <==

  ==> DiskDFJK: Density-Fitted J/K Matrices <==

    J tasked:                  Yes
    K tasked:                  Yes
    wK tasked:                 Yes
    Omega:               3.000E-01
    OpenMP threads:             24
    Integrals threads:          24
    Memory [MiB]:           102899
    Algorithm:                Core
    Integral Cache:           NONE
    Schwarz Cutoff:          1E-12
    Fitting Condition:       1E-10

   => Auxiliary Basis Set <=

  Basis Set: (AUG-CC-PV(D+D)Z AUX)
    Blend: AUG-CC-PVDZ-JKFIT
    Number of shells: 64
    Number of basis function: 192
    Number of Cartesian functions: 220
    Spherical Harmonics?: true
    Max angular momentum: 3

  Cached 100.0% of DFT collocation blocks in 0.095 [GiB].

  Minimum eigenvalue in the overlap matrix is 9.4393520251E-04.
  Using Symmetric Orthogonalization.

  SCF Guess: Superposition of Atomic Densities via on-the-fly atomic UHF.

  ==> Iterations <==

                           Total Energy        Delta E     RMS |[F,P]|

   @DF-RKS iter SAD:  -399.07573284535658   -3.99076e+02   0.00000e+00 
   @DF-RKS iter   1:  -399.30217050020678   -2.26438e-01   7.79219e-03 DIIS
   @DF-RKS iter   2:  -399.32762851006544   -2.54580e-02   4.23415e-03 DIIS
   @DF-RKS iter   3:  -399.33515569670561   -7.52719e-03   3.68733e-04 DIIS
   @DF-RKS iter   4:  -399.33533328809216   -1.77591e-04   9.35238e-05 DIIS
   @DF-RKS iter   5:  -399.33534362639580   -1.03383e-05   1.92228e-05 DIIS
   @DF-RKS iter   6:  -399.33534393839381   -3.11998e-07   3.50207e-06 DIIS
   @DF-RKS iter   7:  -399.33534394971048   -1.13167e-08   5.56025e-07 DIIS
   @DF-RKS iter   8:  -399.33534395002113   -3.10649e-10   7.48570e-08 DIIS
   @DF-RKS iter   9:  -399.33534395003085   -9.72022e-12   9.26904e-09 DIIS
  Energy and wave function converged.


  ==> Post-Iterations <==

    Orbital Energies [Eh]
    ---------------------

    Doubly Occupied:                                                      

       1A1   -88.887218     2A1    -8.053989     1B2    -6.010552  
       3A1    -6.007121     1B1    -6.000281     4A1    -0.874771  
       2B2    -0.552962     5A1    -0.473207     2B1    -0.366257  

    Virtual:                                                              

       6A1     0.032406     3B2     0.062066     4B2     0.096838  
       7A1     0.109678     3B1     0.120677     8A1     0.156246  
       5B2     0.176131     9A1     0.202196    10A1     0.237119  
       1A2     0.270405     4B1     0.277036     6B2     0.379206  
      11A1     0.421585     7B2     0.449703    12A1     0.488696  
       5B1     0.491187     2A2     0.497490    13A1     0.533738  
       8B2     0.577726    14A1     0.736674     6B1     0.774219  
       9B2     0.776380    15A1     0.794147     3A2     0.947421  
       7B1     0.970211    16A1     1.007163    10B2     1.036408  
      17A1     1.056759    11B2     1.209474    18A1     1.495304  
       4A2     1.683144    12B2     1.706082     8B1     1.733958  
      19A1     1.832700    20A1     2.185732    13B2     2.251953  
       5A2     4.735985     9B1     4.739946    21A1     4.757257  
      22A1     4.773777    14B2     4.876932  

    Final Occupation by Irrep:
             A1    A2    B1    B2 
    DOCC [     5,    0,    2,    2 ]

  @DF-RKS Final Energy:  -399.33534395003085

   => Energetics <=

    Nuclear Repulsion Energy =             12.9453222827990473
    One-Electron Energy =                -576.7020051857413137
    Two-Electron Energy =                 184.0859079173325483
    DFT Exchange-Correlation Energy =     -19.7403432188586621
    Empirical Dispersion Energy =           0.0000000000000000
    VV10 Nonlocal Energy =                  0.0757742544375595
    Total Energy =                       -399.3353439500309037

Computation Completed


Properties will be evaluated at   0.000000,   0.000000,   0.000000 [a0]

Properties computed using the SCF density matrix

  Nuclear Dipole Moment: [e a0]
     X:    -0.0000      Y:     0.0000      Z:     1.6292

  Electronic Dipole Moment: [e a0]
     X:     0.0000      Y:     0.0000      Z:    -1.2067

  Dipole Moment: [e a0]
     X:    -0.0000      Y:     0.0000      Z:     0.4226     Total:     0.4226

  Dipole Moment: [D]
     X:    -0.0000      Y:     0.0000      Z:     1.0741     Total:     1.0741


*** tstop() called on bp1-compute00105.data.bp.acrc.priv at Tue Apr 27 17:52:32 2021
Module time:
	user time   =      53.47 seconds =       0.89 minutes
	system time =       1.69 seconds =       0.03 minutes
	total time  =          3 seconds =       0.05 minutes
Total time:
	user time   =     164.11 seconds =       2.74 minutes
	system time =       6.10 seconds =       0.10 minutes
	total time  =          8 seconds =       0.13 minutes

  //>>>>>>>>>>>>>>>>>>>>>>>>>>>>>>>>>>>//
  //    Loading displacement 4 of 5    //
  //<<<<<<<<<<<<<<<<<<<<<<<<<<<<<<<<<<<//

*** tstart() called on bp1-compute00105.data.bp.acrc.priv
*** at Tue Apr 27 17:52:32 2021

   => Loading Basis Set <=

    Name: AUG-CC-PV(D+D)Z
    Role: ORBITAL
    Keyword: BASIS
    atoms 1   entry S          line   724 file /work/zw18965/.conda/envs/p4env/share/psi4/basis/aug-cc-pv_dpd_z.gbs 
    atoms 2-3 entry H          line    56 file /work/zw18965/.conda/envs/p4env/share/psi4/basis/aug-cc-pv_dpd_z.gbs 


         ---------------------------------------------------------
                                   SCF
               by Justin Turney, Rob Parrish, Andy Simmonett
                          and Daniel G. A. Smith
                              RKS Reference
                       24 Threads, 137329 MiB Core
         ---------------------------------------------------------

  ==> Geometry <==

    Molecular point group: c2v
    Full point group: C2v

    Geometry (in Angstrom), charge = 0, multiplicity = 1:

       Center              X                  Y                   Z               Mass       
    ------------   -----------------  -----------------  -----------------  -----------------
         S           -0.000000000000     0.000000000000    -0.054945385977    31.972071174400
         H           -0.000000000000     0.963094302686     0.871539074231     1.007825032230
         H            0.000000000000    -0.963094302686     0.871539074231     1.007825032230

  Running in c2v symmetry.

  Rotational constants: A =     10.35753  B =      9.01662  C =      4.82034 [cm^-1]
  Rotational constants: A = 310511.05038  B = 270311.44559  C = 144510.05511 [MHz]
  Nuclear repulsion =   12.945982106081932

  Charge       = 0
  Multiplicity = 1
  Electrons    = 18
  Nalpha       = 9
  Nbeta        = 9

  ==> Algorithm <==

  SCF Algorithm Type is DF.
  DIIS enabled.
  MOM disabled.
  Fractional occupation disabled.
  Guess Type is SAD.
  Energy threshold   = 1.00e-08
  Density threshold  = 1.00e-08
  Integral threshold = 0.00e+00

  ==> Primary Basis <==

  Basis Set: AUG-CC-PV(D+D)Z
    Blend: AUG-CC-PV(D+D)Z
    Number of shells: 22
    Number of basis function: 50
    Number of Cartesian functions: 53
    Spherical Harmonics?: true
    Max angular momentum: 2

  ==> DFT Potential <==

   => Composite Functional: WB97X-V <= 

    wB97X-V Hyb-GGA Exchange-Correlation Functional

    N. Mardirossian and M. Head-Gordon, Phys. Chem. Chem. Phys. 16, 9904 (2014)

    Deriv               =              1
    GGA                 =           TRUE
    Meta                =          FALSE

    Exchange Hybrid     =           TRUE
    MP2 Hybrid          =          FALSE

   => Exchange-Correlation Functionals <=

    1.0000   wB97X-V range-separated functional

   => Exact (HF) Exchange <=

    0.8330            HF,LR [omega = 0.3000]
    0.1670               HF 

   => VV10 Non-Local Parameters <=

    VV10 B              =     6.0000E+00
    VV10 C              =     1.0000E-02

   => Molecular Quadrature <=

    Radial Scheme          =       TREUTLER
    Pruning Scheme         =           FLAT
    Nuclear Scheme         =       TREUTLER

    BS radius alpha        =              1
    Pruning alpha          =              1
    Radial Points          =             75
    Spherical Points       =            302
    Total Points           =          67950
    Total Blocks           =            575
    Max Points             =            255
    Max Functions          =             50

   => Loading Basis Set <=

    Name: (AUG-CC-PV(D+D)Z AUX)
    Role: JKFIT
    Keyword: DF_BASIS_SCF
    atoms 1   entry S          line   690 file /work/zw18965/.conda/envs/p4env/share/psi4/basis/aug-cc-pvdz-jkfit.gbs 
    atoms 2-3 entry H          line    70 file /work/zw18965/.conda/envs/p4env/share/psi4/basis/aug-cc-pvdz-jkfit.gbs 

  ==> Pre-Iterations <==

   -------------------------------------------------------
    Irrep   Nso     Nmo     Nalpha   Nbeta   Ndocc  Nsocc
   -------------------------------------------------------
     A1        22      22       0       0       0       0
     A2         5       5       0       0       0       0
     B1         9       9       0       0       0       0
     B2        14      14       0       0       0       0
   -------------------------------------------------------
    Total      50      50       9       9       9       0
   -------------------------------------------------------

  ==> Integral Setup <==

  ==> DiskDFJK: Density-Fitted J/K Matrices <==

    J tasked:                  Yes
    K tasked:                  Yes
    wK tasked:                 Yes
    Omega:               3.000E-01
    OpenMP threads:             24
    Integrals threads:          24
    Memory [MiB]:           102899
    Algorithm:                Core
    Integral Cache:           NONE
    Schwarz Cutoff:          1E-12
    Fitting Condition:       1E-10

   => Auxiliary Basis Set <=

  Basis Set: (AUG-CC-PV(D+D)Z AUX)
    Blend: AUG-CC-PVDZ-JKFIT
    Number of shells: 64
    Number of basis function: 192
    Number of Cartesian functions: 220
    Spherical Harmonics?: true
    Max angular momentum: 3

  Cached 100.0% of DFT collocation blocks in 0.095 [GiB].

  Minimum eigenvalue in the overlap matrix is 9.4271619766E-04.
  Using Symmetric Orthogonalization.

  SCF Guess: Superposition of Atomic Densities via on-the-fly atomic UHF.

  ==> Iterations <==

                           Total Energy        Delta E     RMS |[F,P]|

   @DF-RKS iter SAD:  -399.07592040076406   -3.99076e+02   0.00000e+00 
   @DF-RKS iter   1:  -399.30218525156994   -2.26265e-01   7.79060e-03 DIIS
   @DF-RKS iter   2:  -399.32761633544555   -2.54311e-02   4.23575e-03 DIIS
   @DF-RKS iter   3:  -399.33515119176246   -7.53486e-03   3.68784e-04 DIIS
   @DF-RKS iter   4:  -399.33532861647137   -1.77425e-04   9.40337e-05 DIIS
   @DF-RKS iter   5:  -399.33533903354879   -1.04171e-05   1.93111e-05 DIIS
   @DF-RKS iter   6:  -399.33533934968898   -3.16140e-07   3.51252e-06 DIIS
   @DF-RKS iter   7:  -399.33533936110007   -1.14111e-08   5.56928e-07 DIIS
   @DF-RKS iter   8:  -399.33533936141299   -3.12923e-10   7.49349e-08 DIIS
   @DF-RKS iter   9:  -399.33533936142237   -9.37916e-12   9.24948e-09 DIIS
  Energy and wave function converged.


  ==> Post-Iterations <==

    Orbital Energies [Eh]
    ---------------------

    Doubly Occupied:                                                      

       1A1   -88.887228     2A1    -8.053997     1B2    -6.010552  
       3A1    -6.007140     1B1    -6.000287     4A1    -0.874817  
       2B2    -0.552542     5A1    -0.473563     2B1    -0.366263  

    Virtual:                                                              

       6A1     0.032413     3B2     0.062094     4B2     0.096664  
       7A1     0.109658     3B1     0.120677     8A1     0.156348  
       5B2     0.176075     9A1     0.202600    10A1     0.236872  
       1A2     0.270576     4B1     0.276847     6B2     0.379316  
      11A1     0.421592     7B2     0.449771    12A1     0.488473  
       5B1     0.491275     2A2     0.497430    13A1     0.533656  
       8B2     0.577992    14A1     0.737310     6B1     0.774181  
       9B2     0.776273    15A1     0.794299     3A2     0.947386  
       7B1     0.970334    16A1     1.006580    10B2     1.036615  
      17A1     1.056734    11B2     1.207797    18A1     1.495392  
       4A2     1.682963    12B2     1.707741     8B1     1.734272  
      19A1     1.832360    20A1     2.186425    13B2     2.251499  
       5A2     4.735806     9B1     4.740125    21A1     4.757094  
      22A1     4.773856    14B2     4.876805  

    Final Occupation by Irrep:
             A1    A2    B1    B2 
    DOCC [     5,    0,    2,    2 ]

  @DF-RKS Final Energy:  -399.33533936142237

   => Energetics <=

    Nuclear Repulsion Energy =             12.9459821060819316
    One-Electron Energy =                -576.7032373905960867
    Two-Electron Energy =                 184.0865113776257544
    DFT Exchange-Correlation Energy =     -19.7403694575745519
    Empirical Dispersion Energy =           0.0000000000000000
    VV10 Nonlocal Energy =                  0.0757740030405527
    Total Energy =                       -399.3353393614223705

Computation Completed


Properties will be evaluated at   0.000000,   0.000000,   0.000000 [a0]

Properties computed using the SCF density matrix

  Nuclear Dipole Moment: [e a0]
     X:     0.0000      Y:     0.0000      Z:     1.6326

  Electronic Dipole Moment: [e a0]
     X:     0.0000      Y:     0.0000      Z:    -1.2102

  Dipole Moment: [e a0]
     X:     0.0000      Y:     0.0000      Z:     0.4224     Total:     0.4224

  Dipole Moment: [D]
     X:     0.0000      Y:     0.0000      Z:     1.0737     Total:     1.0737


*** tstop() called on bp1-compute00105.data.bp.acrc.priv at Tue Apr 27 17:52:34 2021
Module time:
	user time   =      55.47 seconds =       0.92 minutes
	system time =       1.75 seconds =       0.03 minutes
	total time  =          2 seconds =       0.03 minutes
Total time:
	user time   =     219.71 seconds =       3.66 minutes
	system time =       7.85 seconds =       0.13 minutes
	total time  =         10 seconds =       0.17 minutes

  //>>>>>>>>>>>>>>>>>>>>>>>>>>>>>>>>>>>//
  //    Loading displacement 5 of 5    //
  //<<<<<<<<<<<<<<<<<<<<<<<<<<<<<<<<<<<//

*** tstart() called on bp1-compute00105.data.bp.acrc.priv
*** at Tue Apr 27 17:52:34 2021

   => Loading Basis Set <=

    Name: AUG-CC-PV(D+D)Z
    Role: ORBITAL
    Keyword: BASIS
    atoms 1   entry S          line   724 file /work/zw18965/.conda/envs/p4env/share/psi4/basis/aug-cc-pv_dpd_z.gbs 
    atoms 2-3 entry H          line    56 file /work/zw18965/.conda/envs/p4env/share/psi4/basis/aug-cc-pv_dpd_z.gbs 


         ---------------------------------------------------------
                                   SCF
               by Justin Turney, Rob Parrish, Andy Simmonett
                          and Daniel G. A. Smith
                              RKS Reference
                       24 Threads, 137329 MiB Core
         ---------------------------------------------------------

  ==> Geometry <==

    Molecular point group: c2v
    Full point group: C2v

    Geometry (in Angstrom), charge = 0, multiplicity = 1:

       Center              X                  Y                   Z               Mass       
    ------------   -----------------  -----------------  -----------------  -----------------
         S           -0.000000000000     0.000000000000    -0.054945385977    31.972071174400
         H           -0.000000000000     0.966821595950     0.871539074231     1.007825032230
         H            0.000000000000    -0.966821595950     0.871539074231     1.007825032230

  Running in c2v symmetry.

  Rotational constants: A =     10.35753  B =      8.94723  C =      4.80043 [cm^-1]
  Rotational constants: A = 310511.05038  B = 268231.25227  C = 143913.39203 [MHz]
  Nuclear repulsion =   12.919481104525435

  Charge       = 0
  Multiplicity = 1
  Electrons    = 18
  Nalpha       = 9
  Nbeta        = 9

  ==> Algorithm <==

  SCF Algorithm Type is DF.
  DIIS enabled.
  MOM disabled.
  Fractional occupation disabled.
  Guess Type is SAD.
  Energy threshold   = 1.00e-08
  Density threshold  = 1.00e-08
  Integral threshold = 0.00e+00

  ==> Primary Basis <==

  Basis Set: AUG-CC-PV(D+D)Z
    Blend: AUG-CC-PV(D+D)Z
    Number of shells: 22
    Number of basis function: 50
    Number of Cartesian functions: 53
    Spherical Harmonics?: true
    Max angular momentum: 2

  ==> DFT Potential <==

   => Composite Functional: WB97X-V <= 

    wB97X-V Hyb-GGA Exchange-Correlation Functional

    N. Mardirossian and M. Head-Gordon, Phys. Chem. Chem. Phys. 16, 9904 (2014)

    Deriv               =              1
    GGA                 =           TRUE
    Meta                =          FALSE

    Exchange Hybrid     =           TRUE
    MP2 Hybrid          =          FALSE

   => Exchange-Correlation Functionals <=

    1.0000   wB97X-V range-separated functional

   => Exact (HF) Exchange <=

    0.8330            HF,LR [omega = 0.3000]
    0.1670               HF 

   => VV10 Non-Local Parameters <=

    VV10 B              =     6.0000E+00
    VV10 C              =     1.0000E-02

   => Molecular Quadrature <=

    Radial Scheme          =       TREUTLER
    Pruning Scheme         =           FLAT
    Nuclear Scheme         =       TREUTLER

    BS radius alpha        =              1
    Pruning alpha          =              1
    Radial Points          =             75
    Spherical Points       =            302
    Total Points           =          67950
    Total Blocks           =            574
    Max Points             =            252
    Max Functions          =             50

   => Loading Basis Set <=

    Name: (AUG-CC-PV(D+D)Z AUX)
    Role: JKFIT
    Keyword: DF_BASIS_SCF
    atoms 1   entry S          line   690 file /work/zw18965/.conda/envs/p4env/share/psi4/basis/aug-cc-pvdz-jkfit.gbs 
    atoms 2-3 entry H          line    70 file /work/zw18965/.conda/envs/p4env/share/psi4/basis/aug-cc-pvdz-jkfit.gbs 

  ==> Pre-Iterations <==

   -------------------------------------------------------
    Irrep   Nso     Nmo     Nalpha   Nbeta   Ndocc  Nsocc
   -------------------------------------------------------
     A1        22      22       0       0       0       0
     A2         5       5       0       0       0       0
     B1         9       9       0       0       0       0
     B2        14      14       0       0       0       0
   -------------------------------------------------------
    Total      50      50       9       9       9       0
   -------------------------------------------------------

  ==> Integral Setup <==

  ==> DiskDFJK: Density-Fitted J/K Matrices <==

    J tasked:                  Yes
    K tasked:                  Yes
    wK tasked:                 Yes
    Omega:               3.000E-01
    OpenMP threads:             24
    Integrals threads:          24
    Memory [MiB]:           102899
    Algorithm:                Core
    Integral Cache:           NONE
    Schwarz Cutoff:          1E-12
    Fitting Condition:       1E-10

   => Auxiliary Basis Set <=

  Basis Set: (AUG-CC-PV(D+D)Z AUX)
    Blend: AUG-CC-PVDZ-JKFIT
    Number of shells: 64
    Number of basis function: 192
    Number of Cartesian functions: 220
    Spherical Harmonics?: true
    Max angular momentum: 3

  Cached 100.0% of DFT collocation blocks in 0.095 [GiB].

  Minimum eigenvalue in the overlap matrix is 9.5372476817E-04.
  Using Symmetric Orthogonalization.

  SCF Guess: Superposition of Atomic Densities via on-the-fly atomic UHF.

  ==> Iterations <==

                           Total Energy        Delta E     RMS |[F,P]|

   @DF-RKS iter SAD:  -399.07321601913543   -3.99073e+02   0.00000e+00 
   @DF-RKS iter   1:  -399.30211247852338   -2.28896e-01   7.79884e-03 DIIS
   @DF-RKS iter   2:  -399.32760621323376   -2.54937e-02   4.24940e-03 DIIS
   @DF-RKS iter   3:  -399.33519989350367   -7.59368e-03   3.68674e-04 DIIS
   @DF-RKS iter   4:  -399.33537772967520   -1.77836e-04   9.32702e-05 DIIS
   @DF-RKS iter   5:  -399.33538807534308   -1.03457e-05   1.91949e-05 DIIS
   @DF-RKS iter   6:  -399.33538838683296   -3.11490e-07   3.51891e-06 DIIS
   @DF-RKS iter   7:  -399.33538839818738   -1.13544e-08   5.58035e-07 DIIS
   @DF-RKS iter   8:  -399.33538839850144   -3.14060e-10   7.50826e-08 DIIS
   @DF-RKS iter   9:  -399.33538839851116   -9.72022e-12   9.27412e-09 DIIS
  Energy and wave function converged.


  ==> Post-Iterations <==

    Orbital Energies [Eh]
    ---------------------

    Doubly Occupied:                                                      

       1A1   -88.887575     2A1    -8.054209     1B2    -6.010781  
       3A1    -6.007358     1B1    -6.000504     4A1    -0.874191  
       2B2    -0.552359     5A1    -0.473092     2B1    -0.366209  

    Virtual:                                                              

       6A1     0.032332     3B2     0.061986     4B2     0.096608  
       7A1     0.109696     3B1     0.120688     8A1     0.155876  
       5B2     0.175807     9A1     0.201991    10A1     0.236946  
       1A2     0.270325     4B1     0.276932     6B2     0.379431  
      11A1     0.421524     7B2     0.449318    12A1     0.488519  
       5B1     0.491030     2A2     0.497227    13A1     0.533492  
       8B2     0.577929    14A1     0.736139     6B1     0.774099  
       9B2     0.776283    15A1     0.794090     3A2     0.947590  
       7B1     0.970339    16A1     1.007240    10B2     1.036332  
      17A1     1.055958    11B2     1.207132    18A1     1.493864  
       4A2     1.682678    12B2     1.705317     8B1     1.733136  
      19A1     1.831412    20A1     2.182207    13B2     2.247702  
       5A2     4.735579     9B1     4.739564    21A1     4.757220  
      22A1     4.773063    14B2     4.877215  

    Final Occupation by Irrep:
             A1    A2    B1    B2 
    DOCC [     5,    0,    2,    2 ]

  @DF-RKS Final Energy:  -399.33538839851116

   => Energetics <=

    Nuclear Repulsion Energy =             12.9194811045254347
    One-Electron Energy =                -576.6514042730032088
    Two-Electron Energy =                 184.0598110974710266
    DFT Exchange-Correlation Energy =     -19.7390491071776530
    Empirical Dispersion Energy =           0.0000000000000000
    VV10 Nonlocal Energy =                  0.0757727796733000
    Total Energy =                       -399.3353883985111565

Computation Completed


Properties will be evaluated at   0.000000,   0.000000,   0.000000 [a0]

Properties computed using the SCF density matrix

  Nuclear Dipole Moment: [e a0]
     X:     0.0000      Y:     0.0000      Z:     1.6326

  Electronic Dipole Moment: [e a0]
     X:     0.0000      Y:     0.0000      Z:    -1.2101

  Dipole Moment: [e a0]
     X:     0.0000      Y:     0.0000      Z:     0.4226     Total:     0.4226

  Dipole Moment: [D]
     X:     0.0000      Y:     0.0000      Z:     1.0741     Total:     1.0741


*** tstop() called on bp1-compute00105.data.bp.acrc.priv at Tue Apr 27 17:52:36 2021
Module time:
	user time   =      53.70 seconds =       0.89 minutes
	system time =       1.77 seconds =       0.03 minutes
	total time  =          2 seconds =       0.03 minutes
Total time:
	user time   =     273.56 seconds =       4.56 minutes
	system time =       9.62 seconds =       0.16 minutes
	total time  =         12 seconds =       0.20 minutes

         ----------------------------------------------------------
                                   FINDIF
                     R. A. King and Jonathon Misiewicz
         ---------------------------------------------------------

  Computing gradient from energies.
    Using 3-point formula.
    Energy without displacement: -399.3353661680
    Check energies below for precision!
    Forces are for mass-weighted, symmetry-adapted cartesians (in au).

     Coord      Energy(-1)        Energy(+1)            Force
        0   -399.3353841242   -399.3353439500      0.0040174162
        1   -399.3353393614   -399.3353883985     -0.0049037089


-------------------------------------------------------------
  ## New Matrix (Symmetry 0) ##
  Irrep: 1 Size: 3 x 3

                 1                   2                   3

    1     0.00000000000000     0.00000000000000     0.00553195648656
    2     0.00000000000000    -0.00348098580248    -0.00276597824328
    3     0.00000000000000     0.00348098580248    -0.00276597824328




			-----------------------------------------
			 OPTKING 2.0: for geometry optimizations 
			  - R.A. King,  Bethel University        
			-----------------------------------------
	At level 1: Red. Int., RFO, no backsteps, dynamic trust

	Internal coordinates to be generated automatically.
	Detected frag 1 with atoms:  1 2 3
	---Fragment 1 Bond Connectivity---
	 1 : 2 3
	 2 : 1
	 3 : 1

	---Fragment 1 Geometry and Gradient---
	 S          -0.0000000000        0.0000000000       -0.1038317314
	 H          -0.0000000000        1.8235062468        1.6469701579
	 H           0.0000000000       -1.8235062468        1.6469701579
	             0.0000000000        0.0000000000        0.0055319565
	             0.0000000000       -0.0034809858       -0.0027659782
	             0.0000000000        0.0034809858       -0.0027659782

	Previous optimization step data not found.  Starting new optimization.

	---Fragment 1 Intrafragment Coordinates---
	 - Coordinate -           - BOHR/RAD -       - ANG/DEG -
	 R(1,2)           =         2.527940	       1.337728
	 R(1,3)           =         2.527940	       1.337728
	 B(2,1,3)         =         1.611472	      92.330565

	Current energy   :      -399.3353661680

	Generating empirical Hessian (Schlegel '84) for each fragment.
	Taking RFO optimization step.
	Going to follow RFO solution 1.
	Using RFO vector 1.
	Norm of target step-size    0.02441
	Projected energy change by RFO approximation:        -0.0001929705

	Back-transformation to cartesian coordinates...
	Successfully converged to displaced geometry.

	--- Internal Coordinate Step in ANG or DEG, aJ/ANG or AJ/DEG ---
	 ---------------------------------------------------------------------------
	   Coordinate                Previous        Force       Change         New 
	   ----------                --------       ------       ------       ------
	    1 R(1,2)          =      1.337728     0.036470     0.008800     1.346528
	    2 R(1,3)          =      1.337728     0.036470     0.008800     1.346528
	    3 B(2,1,3)        =     92.330565     0.000080     0.375906    92.706471
	 ---------------------------------------------------------------------------
	Successfully symmetrized geometry.

  ==> Convergence Check <==

  Measures of convergence in internal coordinates in au.
  Criteria marked as inactive (o), active & met (*), and active & unmet ( ).
  --------------------------------------------------------------------------------------------- ~
   Step     Total Energy     Delta E     MAX Force     RMS Force      MAX Disp      RMS Disp    ~
  --------------------------------------------------------------------------------------------- ~
    Convergence Criteria    1.00e-06 *    3.00e-04 *             o    1.20e-03 *             o  ~
  --------------------------------------------------------------------------------------------- ~
      1    -399.33536617   -3.99e+02      4.43e-03      3.66e-03 o    1.66e-02      1.41e-02 o  ~
  ---------------------------------------------------------------------------------------------

	Writing optimization data to binary file.
	Structure for next step:
	Cartesian Geometry (in Angstrom)
	    S     0.0000000000   0.0000000000  -0.0568808267
	    H    -0.0000000000   0.9743594622   0.8725067913
	    H     0.0000000000  -0.9743594622   0.8725067913
			--------------------------
			 OPTKING Finished Execution 
			--------------------------

    Structure for next step:
    Molecular point group: c2v
    Full point group: C2v

    Geometry (in Angstrom), charge = 0, multiplicity = 1:

    S            0.000000000000     0.000000000000    -0.055117558673
    H           -0.000000000000     0.974359466076     0.874270063001
    H            0.000000000000    -0.974359466076     0.874270063001

gradient() will perform gradient computation by finite difference of analytic energies.

         ----------------------------------------------------------
                                   FINDIF
                     R. A. King and Jonathon Misiewicz
         ---------------------------------------------------------

  Using finite-differences of energies to determine gradients.
    Generating geometries for use with 3-point formula.
    Displacement size will be 5.00e-03.
    Number of atoms is 3.
    Number of symmetric SALCs is 2.
    Translations projected? 1. Rotations projected? 1.
    Number of geometries (including reference) is 5.

  //>>>>>>>>>>>>>>>>>>>>>>>>>>>>>>>>>>>//
  //    Loading displacement 1 of 5    //
  //<<<<<<<<<<<<<<<<<<<<<<<<<<<<<<<<<<<//

*** tstart() called on bp1-compute00105.data.bp.acrc.priv
*** at Tue Apr 27 17:52:36 2021

   => Loading Basis Set <=

    Name: AUG-CC-PV(D+D)Z
    Role: ORBITAL
    Keyword: BASIS
    atoms 1   entry S          line   724 file /work/zw18965/.conda/envs/p4env/share/psi4/basis/aug-cc-pv_dpd_z.gbs 
    atoms 2-3 entry H          line    56 file /work/zw18965/.conda/envs/p4env/share/psi4/basis/aug-cc-pv_dpd_z.gbs 


         ---------------------------------------------------------
                                   SCF
               by Justin Turney, Rob Parrish, Andy Simmonett
                          and Daniel G. A. Smith
                              RKS Reference
                       24 Threads, 137329 MiB Core
         ---------------------------------------------------------

  ==> Geometry <==

    Molecular point group: c2v
    Full point group: C2v

    Geometry (in Angstrom), charge = 0, multiplicity = 1:

       Center              X                  Y                   Z               Mass       
    ------------   -----------------  -----------------  -----------------  -----------------
         S           -0.000000000000     0.000000000000    -0.055117558673    31.972071174400
         H           -0.000000000000     0.974359466076     0.874270063001     1.007825032230
         H            0.000000000000    -0.974359466076     0.874270063001     1.007825032230

  Running in c2v symmetry.

  Rotational constants: A =     10.29293  B =      8.80933  C =      4.74676 [cm^-1]
  Rotational constants: A = 308574.17124  B = 264097.10773  C = 142304.23131 [MHz]
  Nuclear repulsion =   12.847354009076168

  Charge       = 0
  Multiplicity = 1
  Electrons    = 18
  Nalpha       = 9
  Nbeta        = 9

  ==> Algorithm <==

  SCF Algorithm Type is DF.
  DIIS enabled.
  MOM disabled.
  Fractional occupation disabled.
  Guess Type is READ.
  Energy threshold   = 1.00e-08
  Density threshold  = 1.00e-08
  Integral threshold = 0.00e+00

  ==> Primary Basis <==

  Basis Set: AUG-CC-PV(D+D)Z
    Blend: AUG-CC-PV(D+D)Z
    Number of shells: 22
    Number of basis function: 50
    Number of Cartesian functions: 53
    Spherical Harmonics?: true
    Max angular momentum: 2

  ==> DFT Potential <==

   => Composite Functional: WB97X-V <= 

    wB97X-V Hyb-GGA Exchange-Correlation Functional

    N. Mardirossian and M. Head-Gordon, Phys. Chem. Chem. Phys. 16, 9904 (2014)

    Deriv               =              1
    GGA                 =           TRUE
    Meta                =          FALSE

    Exchange Hybrid     =           TRUE
    MP2 Hybrid          =          FALSE

   => Exchange-Correlation Functionals <=

    1.0000   wB97X-V range-separated functional

   => Exact (HF) Exchange <=

    0.8330            HF,LR [omega = 0.3000]
    0.1670               HF 

   => VV10 Non-Local Parameters <=

    VV10 B              =     6.0000E+00
    VV10 C              =     1.0000E-02

   => Molecular Quadrature <=

    Radial Scheme          =       TREUTLER
    Pruning Scheme         =           FLAT
    Nuclear Scheme         =       TREUTLER

    BS radius alpha        =              1
    Pruning alpha          =              1
    Radial Points          =             75
    Spherical Points       =            302
    Total Points           =          67950
    Total Blocks           =            572
    Max Points             =            254
    Max Functions          =             50

   => Loading Basis Set <=

    Name: (AUG-CC-PV(D+D)Z AUX)
    Role: JKFIT
    Keyword: DF_BASIS_SCF
    atoms 1   entry S          line   690 file /work/zw18965/.conda/envs/p4env/share/psi4/basis/aug-cc-pvdz-jkfit.gbs 
    atoms 2-3 entry H          line    70 file /work/zw18965/.conda/envs/p4env/share/psi4/basis/aug-cc-pvdz-jkfit.gbs 

   => Loading Basis Set <=

    Name: AUG-CC-PV(D+D)Z
    Role: ORBITAL
    Keyword: BASIS
    atoms 1   entry S          line   724 file /work/zw18965/.conda/envs/p4env/share/psi4/basis/aug-cc-pv_dpd_z.gbs 
    atoms 2-3 entry H          line    56 file /work/zw18965/.conda/envs/p4env/share/psi4/basis/aug-cc-pv_dpd_z.gbs 

  Reading orbitals from file 180, no projection.

  ==> Pre-Iterations <==

   -------------------------------------------------------
    Irrep   Nso     Nmo     Nalpha   Nbeta   Ndocc  Nsocc
   -------------------------------------------------------
     A1        22      22       0       0       0       0
     A2         5       5       0       0       0       0
     B1         9       9       0       0       0       0
     B2        14      14       0       0       0       0
   -------------------------------------------------------
    Total      50      50       9       9       9       0
   -------------------------------------------------------

  ==> Integral Setup <==

  ==> DiskDFJK: Density-Fitted J/K Matrices <==

    J tasked:                  Yes
    K tasked:                  Yes
    wK tasked:                 Yes
    Omega:               3.000E-01
    OpenMP threads:             24
    Integrals threads:          24
    Memory [MiB]:           102899
    Algorithm:                Core
    Integral Cache:           NONE
    Schwarz Cutoff:          1E-12
    Fitting Condition:       1E-10

   => Auxiliary Basis Set <=

  Basis Set: (AUG-CC-PV(D+D)Z AUX)
    Blend: AUG-CC-PVDZ-JKFIT
    Number of shells: 64
    Number of basis function: 192
    Number of Cartesian functions: 220
    Spherical Harmonics?: true
    Max angular momentum: 3

  Cached 100.0% of DFT collocation blocks in 0.095 [GiB].

  Minimum eigenvalue in the overlap matrix is 9.8326610087E-04.
  Using Symmetric Orthogonalization.

  SCF Guess: Orbitals guess was supplied from a previous computation.

  ==> Iterations <==

                           Total Energy        Delta E     RMS |[F,P]|

   @DF-RKS iter   0:  -399.32705711276287   -3.99327e+02   8.28876e-04 
   @DF-RKS iter   1:  -399.33542891936168   -8.37181e-03   1.09283e-04 DIIS
   @DF-RKS iter   2:  -399.33543414623364   -5.22687e-06   4.98348e-05 DIIS
   @DF-RKS iter   3:  -399.33543486203456   -7.15801e-07   3.66243e-06 DIIS
   @DF-RKS iter   4:  -399.33543487628901   -1.42545e-08   9.15496e-07 DIIS
   @DF-RKS iter   5:  -399.33543487753212   -1.24311e-09   3.28028e-07 DIIS
   @DF-RKS iter   6:  -399.33543487759590   -6.37783e-11   6.09132e-08 DIIS
   @DF-RKS iter   7:  -399.33543487760119   -5.28644e-12   7.32147e-09 DIIS
  Energy and wave function converged.


  ==> Post-Iterations <==

    Orbital Energies [Eh]
    ---------------------

    Doubly Occupied:                                                      

       1A1   -88.888545     2A1    -8.054810     1B2    -6.011418  
       3A1    -6.007991     1B1    -6.001114     4A1    -0.872537  
       2B2    -0.551209     5A1    -0.472322     2B1    -0.366071  

    Virtual:                                                              

       6A1     0.032109     3B2     0.061717     4B2     0.096186  
       7A1     0.109769     3B1     0.120717     8A1     0.154678  
       5B2     0.174986     9A1     0.200952    10A1     0.236786  
       1A2     0.269891     4B1     0.276883     6B2     0.379901  
      11A1     0.421333     7B2     0.448162    12A1     0.488308  
       5B1     0.490476     2A2     0.496573    13A1     0.532904  
       8B2     0.578135    14A1     0.733905     6B1     0.773809  
       9B2     0.776169    15A1     0.793750     3A2     0.948108  
       7B1     0.970534    16A1     1.008167    10B2     1.035779  
      17A1     1.053807    11B2     1.202826    18A1     1.489721  
       4A2     1.681643    12B2     1.701282     8B1     1.730489  
      19A1     1.828201    20A1     2.171651    13B2     2.236577  
       5A2     4.734665     9B1     4.738277    21A1     4.757308  
      22A1     4.771000    14B2     4.878093  

    Final Occupation by Irrep:
             A1    A2    B1    B2 
    DOCC [     5,    0,    2,    2 ]

  @DF-RKS Final Energy:  -399.33543487760119

   => Energetics <=

    Nuclear Repulsion Energy =             12.8473540090761684
    One-Electron Energy =                -576.5100730194567404
    Two-Electron Energy =                 183.9869607731711199
    DFT Exchange-Correlation Energy =     -19.7354456780693255
    Empirical Dispersion Energy =           0.0000000000000000
    VV10 Nonlocal Energy =                  0.0757690376775727
    Total Energy =                       -399.3354348776011875

Computation Completed


Properties will be evaluated at   0.000000,   0.000000,   0.000000 [a0]

Properties computed using the SCF density matrix

  Nuclear Dipole Moment: [e a0]
     X:     0.0000      Y:     0.0000      Z:     1.6377

  Electronic Dipole Moment: [e a0]
     X:     0.0000      Y:     0.0000      Z:    -1.2151

  Dipole Moment: [e a0]
     X:     0.0000      Y:     0.0000      Z:     0.4227     Total:     0.4227

  Dipole Moment: [D]
     X:     0.0000      Y:     0.0000      Z:     1.0744     Total:     1.0744


*** tstop() called on bp1-compute00105.data.bp.acrc.priv at Tue Apr 27 17:52:38 2021
Module time:
	user time   =      39.92 seconds =       0.67 minutes
	system time =       1.23 seconds =       0.02 minutes
	total time  =          2 seconds =       0.03 minutes
Total time:
	user time   =     313.84 seconds =       5.23 minutes
	system time =      10.88 seconds =       0.18 minutes
	total time  =         14 seconds =       0.23 minutes

  //>>>>>>>>>>>>>>>>>>>>>>>>>>>>>>>>>>>//
  //    Loading displacement 2 of 5    //
  //<<<<<<<<<<<<<<<<<<<<<<<<<<<<<<<<<<<//

*** tstart() called on bp1-compute00105.data.bp.acrc.priv
*** at Tue Apr 27 17:52:38 2021

   => Loading Basis Set <=

    Name: AUG-CC-PV(D+D)Z
    Role: ORBITAL
    Keyword: BASIS
    atoms 1   entry S          line   724 file /work/zw18965/.conda/envs/p4env/share/psi4/basis/aug-cc-pv_dpd_z.gbs 
    atoms 2-3 entry H          line    56 file /work/zw18965/.conda/envs/p4env/share/psi4/basis/aug-cc-pv_dpd_z.gbs 


         ---------------------------------------------------------
                                   SCF
               by Justin Turney, Rob Parrish, Andy Simmonett
                          and Daniel G. A. Smith
                              RKS Reference
                       24 Threads, 137329 MiB Core
         ---------------------------------------------------------

  ==> Geometry <==

    Molecular point group: c2v
    Full point group: C2v

    Geometry (in Angstrom), charge = 0, multiplicity = 1:

       Center              X                  Y                   Z               Mass       
    ------------   -----------------  -----------------  -----------------  -----------------
         S           -0.000000000000     0.000000000000    -0.055231513387    31.972071174400
         H           -0.000000000000     0.974359466076     0.876077603057     1.007825032230
         H            0.000000000000    -0.974359466076     0.876077603057     1.007825032230

  Running in c2v symmetry.

  Rotational constants: A =     10.25050  B =      8.80933  C =      4.73771 [cm^-1]
  Rotational constants: A = 307302.17255  B = 264097.10773  C = 142033.10674 [MHz]
  Nuclear repulsion =   12.834973228656116

  Charge       = 0
  Multiplicity = 1
  Electrons    = 18
  Nalpha       = 9
  Nbeta        = 9

  ==> Algorithm <==

  SCF Algorithm Type is DF.
  DIIS enabled.
  MOM disabled.
  Fractional occupation disabled.
  Guess Type is READ.
  Energy threshold   = 1.00e-08
  Density threshold  = 1.00e-08
  Integral threshold = 0.00e+00

  ==> Primary Basis <==

  Basis Set: AUG-CC-PV(D+D)Z
    Blend: AUG-CC-PV(D+D)Z
    Number of shells: 22
    Number of basis function: 50
    Number of Cartesian functions: 53
    Spherical Harmonics?: true
    Max angular momentum: 2

  ==> DFT Potential <==

   => Composite Functional: WB97X-V <= 

    wB97X-V Hyb-GGA Exchange-Correlation Functional

    N. Mardirossian and M. Head-Gordon, Phys. Chem. Chem. Phys. 16, 9904 (2014)

    Deriv               =              1
    GGA                 =           TRUE
    Meta                =          FALSE

    Exchange Hybrid     =           TRUE
    MP2 Hybrid          =          FALSE

   => Exchange-Correlation Functionals <=

    1.0000   wB97X-V range-separated functional

   => Exact (HF) Exchange <=

    0.8330            HF,LR [omega = 0.3000]
    0.1670               HF 

   => VV10 Non-Local Parameters <=

    VV10 B              =     6.0000E+00
    VV10 C              =     1.0000E-02

   => Molecular Quadrature <=

    Radial Scheme          =       TREUTLER
    Pruning Scheme         =           FLAT
    Nuclear Scheme         =       TREUTLER

    BS radius alpha        =              1
    Pruning alpha          =              1
    Radial Points          =             75
    Spherical Points       =            302
    Total Points           =          67950
    Total Blocks           =            572
    Max Points             =            254
    Max Functions          =             50

   => Loading Basis Set <=

    Name: (AUG-CC-PV(D+D)Z AUX)
    Role: JKFIT
    Keyword: DF_BASIS_SCF
    atoms 1   entry S          line   690 file /work/zw18965/.conda/envs/p4env/share/psi4/basis/aug-cc-pvdz-jkfit.gbs 
    atoms 2-3 entry H          line    70 file /work/zw18965/.conda/envs/p4env/share/psi4/basis/aug-cc-pvdz-jkfit.gbs 

   => Loading Basis Set <=

    Name: AUG-CC-PV(D+D)Z
    Role: ORBITAL
    Keyword: BASIS
    atoms 1   entry S          line   724 file /work/zw18965/.conda/envs/p4env/share/psi4/basis/aug-cc-pv_dpd_z.gbs 
    atoms 2-3 entry H          line    56 file /work/zw18965/.conda/envs/p4env/share/psi4/basis/aug-cc-pv_dpd_z.gbs 

  Reading orbitals from file 180, no projection.

  ==> Pre-Iterations <==

   -------------------------------------------------------
    Irrep   Nso     Nmo     Nalpha   Nbeta   Ndocc  Nsocc
   -------------------------------------------------------
     A1        22      22       0       0       0       0
     A2         5       5       0       0       0       0
     B1         9       9       0       0       0       0
     B2        14      14       0       0       0       0
   -------------------------------------------------------
    Total      50      50       9       9       9       0
   -------------------------------------------------------

  ==> Integral Setup <==

  ==> DiskDFJK: Density-Fitted J/K Matrices <==

    J tasked:                  Yes
    K tasked:                  Yes
    wK tasked:                 Yes
    Omega:               3.000E-01
    OpenMP threads:             24
    Integrals threads:          24
    Memory [MiB]:           102899
    Algorithm:                Core
    Integral Cache:           NONE
    Schwarz Cutoff:          1E-12
    Fitting Condition:       1E-10

   => Auxiliary Basis Set <=

  Basis Set: (AUG-CC-PV(D+D)Z AUX)
    Blend: AUG-CC-PVDZ-JKFIT
    Number of shells: 64
    Number of basis function: 192
    Number of Cartesian functions: 220
    Spherical Harmonics?: true
    Max angular momentum: 3

  Cached 100.0% of DFT collocation blocks in 0.095 [GiB].

  Minimum eigenvalue in the overlap matrix is 9.8778649068E-04.
  Using Symmetric Orthogonalization.

  SCF Guess: Orbitals guess was supplied from a previous computation.

  ==> Iterations <==

                           Total Energy        Delta E     RMS |[F,P]|

   @DF-RKS iter   0:  -399.33392850276067   -3.99334e+02   1.16497e-04 
   @DF-RKS iter   1:  -399.33543134898741   -1.50285e-03   2.00644e-05 DIIS
   @DF-RKS iter   2:  -399.33543153458788   -1.85600e-07   9.16376e-06 DIIS
   @DF-RKS iter   3:  -399.33543155863299   -2.40451e-08   7.90842e-07 DIIS
   @DF-RKS iter   4:  -399.33543155937053   -7.37543e-10   1.87237e-07 DIIS
   @DF-RKS iter   5:  -399.33543155943164   -6.11067e-11   3.72733e-08 DIIS
   @DF-RKS iter   6:  -399.33543155943312   -1.47793e-12   1.35852e-08 DIIS
   @DF-RKS iter   7:  -399.33543155943323   -1.13687e-13   1.59171e-09 DIIS
  Energy and wave function converged.


  ==> Post-Iterations <==

    Orbital Energies [Eh]
    ---------------------

    Doubly Occupied:                                                      

       1A1   -88.888725     2A1    -8.054924     1B2    -6.011532  
       3A1    -6.008118     1B1    -6.001228     4A1    -0.872275  
       2B2    -0.550705     5A1    -0.472439     2B1    -0.366050  

    Virtual:                                                              

       6A1     0.032074     3B2     0.061686     4B2     0.095984  
       7A1     0.109767     3B1     0.120721     8A1     0.154542  
       5B2     0.174802     9A1     0.201055    10A1     0.236576  
       1A2     0.269937     4B1     0.276737     6B2     0.380060  
      11A1     0.421306     7B2     0.448007    12A1     0.488110  
       5B1     0.490443     2A2     0.496410    13A1     0.532731  
       8B2     0.578366    14A1     0.733970     6B1     0.773730  
       9B2     0.776085    15A1     0.793792     3A2     0.948173  
       7B1     0.970660    16A1     1.007918    10B2     1.035825  
      17A1     1.053411    11B2     1.200868    18A1     1.489037  
       4A2     1.681329    12B2     1.701706     8B1     1.730249  
      19A1     1.827421    20A1     2.170299    13B2     2.234285  
       5A2     4.734373     9B1     4.738172    21A1     4.757206  
      22A1     4.770678    14B2     4.878155  

    Final Occupation by Irrep:
             A1    A2    B1    B2 
    DOCC [     5,    0,    2,    2 ]

  @DF-RKS Final Energy:  -399.33543155943323

   => Energetics <=

    Nuclear Repulsion Energy =             12.8349732286561160
    One-Electron Energy =                -576.4857439049064851
    Two-Electron Energy =                 183.9743936481023070
    DFT Exchange-Correlation Energy =     -19.7348227259208748
    Empirical Dispersion Energy =           0.0000000000000000
    VV10 Nonlocal Energy =                  0.0757681946356866
    Total Energy =                       -399.3354315594331752

Computation Completed


Properties will be evaluated at   0.000000,   0.000000,   0.000000 [a0]

Properties computed using the SCF density matrix

  Nuclear Dipole Moment: [e a0]
     X:     0.0000      Y:     0.0000      Z:     1.6411

  Electronic Dipole Moment: [e a0]
     X:     0.0000      Y:     0.0000      Z:    -1.2185

  Dipole Moment: [e a0]
     X:     0.0000      Y:     0.0000      Z:     0.4226     Total:     0.4226

  Dipole Moment: [D]
     X:     0.0000      Y:     0.0000      Z:     1.0741     Total:     1.0741


*** tstop() called on bp1-compute00105.data.bp.acrc.priv at Tue Apr 27 17:52:40 2021
Module time:
	user time   =      42.56 seconds =       0.71 minutes
	system time =       1.38 seconds =       0.02 minutes
	total time  =          2 seconds =       0.03 minutes
Total time:
	user time   =     356.54 seconds =       5.94 minutes
	system time =      12.27 seconds =       0.20 minutes
	total time  =         16 seconds =       0.27 minutes

  //>>>>>>>>>>>>>>>>>>>>>>>>>>>>>>>>>>>//
  //    Loading displacement 3 of 5    //
  //<<<<<<<<<<<<<<<<<<<<<<<<<<<<<<<<<<<//

*** tstart() called on bp1-compute00105.data.bp.acrc.priv
*** at Tue Apr 27 17:52:40 2021

   => Loading Basis Set <=

    Name: AUG-CC-PV(D+D)Z
    Role: ORBITAL
    Keyword: BASIS
    atoms 1   entry S          line   724 file /work/zw18965/.conda/envs/p4env/share/psi4/basis/aug-cc-pv_dpd_z.gbs 
    atoms 2-3 entry H          line    56 file /work/zw18965/.conda/envs/p4env/share/psi4/basis/aug-cc-pv_dpd_z.gbs 


         ---------------------------------------------------------
                                   SCF
               by Justin Turney, Rob Parrish, Andy Simmonett
                          and Daniel G. A. Smith
                              RKS Reference
                       24 Threads, 137329 MiB Core
         ---------------------------------------------------------

  ==> Geometry <==

    Molecular point group: c2v
    Full point group: C2v

    Geometry (in Angstrom), charge = 0, multiplicity = 1:

       Center              X                  Y                   Z               Mass       
    ------------   -----------------  -----------------  -----------------  -----------------
         S           -0.000000000000     0.000000000000    -0.055003603959    31.972071174400
         H           -0.000000000000     0.974359466076     0.872462522944     1.007825032230
         H            0.000000000000    -0.974359466076     0.872462522944     1.007825032230

  Running in c2v symmetry.

  Rotational constants: A =     10.33562  B =      8.80933  C =      4.75582 [cm^-1]
  Rotational constants: A = 309854.08399  B = 264097.10773  C = 142575.82976 [MHz]
  Nuclear repulsion =   12.859745779860637

  Charge       = 0
  Multiplicity = 1
  Electrons    = 18
  Nalpha       = 9
  Nbeta        = 9

  ==> Algorithm <==

  SCF Algorithm Type is DF.
  DIIS enabled.
  MOM disabled.
  Fractional occupation disabled.
  Guess Type is READ.
  Energy threshold   = 1.00e-08
  Density threshold  = 1.00e-08
  Integral threshold = 0.00e+00

  ==> Primary Basis <==

  Basis Set: AUG-CC-PV(D+D)Z
    Blend: AUG-CC-PV(D+D)Z
    Number of shells: 22
    Number of basis function: 50
    Number of Cartesian functions: 53
    Spherical Harmonics?: true
    Max angular momentum: 2

  ==> DFT Potential <==

   => Composite Functional: WB97X-V <= 

    wB97X-V Hyb-GGA Exchange-Correlation Functional

    N. Mardirossian and M. Head-Gordon, Phys. Chem. Chem. Phys. 16, 9904 (2014)

    Deriv               =              1
    GGA                 =           TRUE
    Meta                =          FALSE

    Exchange Hybrid     =           TRUE
    MP2 Hybrid          =          FALSE

   => Exchange-Correlation Functionals <=

    1.0000   wB97X-V range-separated functional

   => Exact (HF) Exchange <=

    0.8330            HF,LR [omega = 0.3000]
    0.1670               HF 

   => VV10 Non-Local Parameters <=

    VV10 B              =     6.0000E+00
    VV10 C              =     1.0000E-02

   => Molecular Quadrature <=

    Radial Scheme          =       TREUTLER
    Pruning Scheme         =           FLAT
    Nuclear Scheme         =       TREUTLER

    BS radius alpha        =              1
    Pruning alpha          =              1
    Radial Points          =             75
    Spherical Points       =            302
    Total Points           =          67950
    Total Blocks           =            572
    Max Points             =            254
    Max Functions          =             50

   => Loading Basis Set <=

    Name: (AUG-CC-PV(D+D)Z AUX)
    Role: JKFIT
    Keyword: DF_BASIS_SCF
    atoms 1   entry S          line   690 file /work/zw18965/.conda/envs/p4env/share/psi4/basis/aug-cc-pvdz-jkfit.gbs 
    atoms 2-3 entry H          line    70 file /work/zw18965/.conda/envs/p4env/share/psi4/basis/aug-cc-pvdz-jkfit.gbs 

   => Loading Basis Set <=

    Name: AUG-CC-PV(D+D)Z
    Role: ORBITAL
    Keyword: BASIS
    atoms 1   entry S          line   724 file /work/zw18965/.conda/envs/p4env/share/psi4/basis/aug-cc-pv_dpd_z.gbs 
    atoms 2-3 entry H          line    56 file /work/zw18965/.conda/envs/p4env/share/psi4/basis/aug-cc-pv_dpd_z.gbs 

  Reading orbitals from file 180, no projection.

  ==> Pre-Iterations <==

   -------------------------------------------------------
    Irrep   Nso     Nmo     Nalpha   Nbeta   Ndocc  Nsocc
   -------------------------------------------------------
     A1        22      22       0       0       0       0
     A2         5       5       0       0       0       0
     B1         9       9       0       0       0       0
     B2        14      14       0       0       0       0
   -------------------------------------------------------
    Total      50      50       9       9       9       0
   -------------------------------------------------------

  ==> Integral Setup <==

  ==> DiskDFJK: Density-Fitted J/K Matrices <==

    J tasked:                  Yes
    K tasked:                  Yes
    wK tasked:                 Yes
    Omega:               3.000E-01
    OpenMP threads:             24
    Integrals threads:          24
    Memory [MiB]:           102899
    Algorithm:                Core
    Integral Cache:           NONE
    Schwarz Cutoff:          1E-12
    Fitting Condition:       1E-10

   => Auxiliary Basis Set <=

  Basis Set: (AUG-CC-PV(D+D)Z AUX)
    Blend: AUG-CC-PVDZ-JKFIT
    Number of shells: 64
    Number of basis function: 192
    Number of Cartesian functions: 220
    Spherical Harmonics?: true
    Max angular momentum: 3

  Cached 100.0% of DFT collocation blocks in 0.095 [GiB].

  Minimum eigenvalue in the overlap matrix is 9.7879207393E-04.
  Using Symmetric Orthogonalization.

  SCF Guess: Orbitals guess was supplied from a previous computation.

  ==> Iterations <==

                           Total Energy        Delta E     RMS |[F,P]|

   @DF-RKS iter   0:  -399.33693569057033   -3.99337e+02   1.16784e-04 
   @DF-RKS iter   1:  -399.33543387943411    1.50181e-03   2.00094e-05 DIIS
   @DF-RKS iter   2:  -399.33543406407603   -1.84642e-07   9.13379e-06 DIIS
   @DF-RKS iter   3:  -399.33543408795151   -2.38755e-08   7.88168e-07 DIIS
   @DF-RKS iter   4:  -399.33543408868303   -7.31518e-10   1.86377e-07 DIIS
   @DF-RKS iter   5:  -399.33543408874397   -6.09361e-11   3.65070e-08 DIIS
[...]
       2B2    -0.550748     5A1    -0.472880     2B1    -0.366091  

    Virtual:                                                              

       6A1     0.032141     3B2     0.061779     4B2     0.095985  
       7A1     0.109735     3B1     0.120713     8A1     0.154949  
       5B2     0.174988     9A1     0.201585    10A1     0.236459  
       1A2     0.270167     4B1     0.276627     6B2     0.380008  
      11A1     0.421367     7B2     0.448368    12A1     0.488022  
       5B1     0.490653     2A2     0.496548    13A1     0.532834  
       8B2     0.578490    14A1     0.734977     6B1     0.773784  
       9B2     0.776047    15A1     0.793984     3A2     0.948007  
       7B1     0.970689    16A1     1.007293    10B2     1.036131  
      17A1     1.053972    11B2     1.200930    18A1     1.490234  
       4A2     1.681486    12B2     1.703811     8B1     1.731166  
      19A1     1.828102    20A1     2.173605    13B2     2.237000  
       5A2     4.734509     9B1     4.738637    21A1     4.757064  
      22A1     4.771299    14B2     4.877850  

    Final Occupation by Irrep:
             A1    A2    B1    B2 
    DOCC [     5,    0,    2,    2 ]

  @DF-RKS Final Energy:  -399.33543432916298

   => Energetics <=

    Nuclear Repulsion Energy =             12.8549323860365217
    One-Electron Energy =                -576.5248482932804563
    Two-Electron Energy =                 183.9945278532919986
    DFT Exchange-Correlation Energy =     -19.7358153149128199
    Empirical Dispersion Energy =           0.0000000000000000
    VV10 Nonlocal Energy =                  0.0757690397018341
    Total Energy =                       -399.3354343291630357

Computation Completed


Properties will be evaluated at   0.000000,   0.000000,   0.000000 [a0]

Properties computed using the SCF density matrix

  Nuclear Dipole Moment: [e a0]
     X:     0.0000      Y:     0.0000      Z:     1.6420

  Electronic Dipole Moment: [e a0]
     X:     0.0000      Y:     0.0000      Z:    -1.2195

  Dipole Moment: [e a0]
     X:     0.0000      Y:     0.0000      Z:     0.4225     Total:     0.4225

  Dipole Moment: [D]
     X:     0.0000      Y:     0.0000      Z:     1.0738     Total:     1.0738


*** tstop() called on bp1-compute00105.data.bp.acrc.priv at Tue Apr 27 17:53:24 2021
Module time:
	user time   =      59.87 seconds =       1.00 minutes
	system time =       1.67 seconds =       0.03 minutes
	total time  =          3 seconds =       0.05 minutes
Total time:
	user time   =    1355.43 seconds =      22.59 minutes
	system time =      41.91 seconds =       0.70 minutes
	total time  =         60 seconds =       1.00 minutes

  //>>>>>>>>>>>>>>>>>>>>>>>>>>>>>>>>>>>//
  //    Loading displacement 8 of 8    //
  //<<<<<<<<<<<<<<<<<<<<<<<<<<<<<<<<<<<//

*** tstart() called on bp1-compute00105.data.bp.acrc.priv
*** at Tue Apr 27 17:53:24 2021

   => Loading Basis Set <=

    Name: AUG-CC-PV(D+D)Z
    Role: ORBITAL
    Keyword: BASIS
    atoms 1   entry S          line   724 file /work/zw18965/.conda/envs/p4env/share/psi4/basis/aug-cc-pv_dpd_z.gbs 
    atoms 2-3 entry H          line    56 file /work/zw18965/.conda/envs/p4env/share/psi4/basis/aug-cc-pv_dpd_z.gbs 


         ---------------------------------------------------------
                                   SCF
               by Justin Turney, Rob Parrish, Andy Simmonett
                          and Daniel G. A. Smith
                              RKS Reference
                       24 Threads, 137329 MiB Core
         ---------------------------------------------------------

  ==> Geometry <==

    Molecular point group: cs
    Full point group: Cs

    Geometry (in Angstrom), charge = 0, multiplicity = 1:

       Center              X                  Y                   Z               Mass       
    ------------   -----------------  -----------------  -----------------  -----------------
         S            0.000000000000    -0.000083573175    -0.055145514149    31.972071174400
         H            0.000000000000     0.974272820758     0.875980413832     1.007825032230
         H            0.000000000000    -0.971621559461     0.873446566964     1.007825032230

  Running in cs symmetry.

  Rotational constants: A =     10.28305  B =      8.83448  C =      4.75194 [cm^-1]
  Rotational constants: A = 308278.06436  B = 264851.08345  C = 142459.65270 [MHz]
  Nuclear repulsion =   12.854275888091353

  Charge       = 0
  Multiplicity = 1
  Electrons    = 18
  Nalpha       = 9
  Nbeta        = 9

  ==> Algorithm <==

  SCF Algorithm Type is DF.
  DIIS enabled.
  MOM disabled.
  Fractional occupation disabled.
  Guess Type is SAD.
  Energy threshold   = 1.00e-10
  Density threshold  = 1.00e-10
  Integral threshold = 0.00e+00

  ==> Primary Basis <==

  Basis Set: AUG-CC-PV(D+D)Z
    Blend: AUG-CC-PV(D+D)Z
    Number of shells: 22
    Number of basis function: 50
    Number of Cartesian functions: 53
    Spherical Harmonics?: true
    Max angular momentum: 2

  ==> DFT Potential <==

   => Composite Functional: WB97X-V <= 

    wB97X-V Hyb-GGA Exchange-Correlation Functional

    N. Mardirossian and M. Head-Gordon, Phys. Chem. Chem. Phys. 16, 9904 (2014)

    Deriv               =              1
    GGA                 =           TRUE
    Meta                =          FALSE

    Exchange Hybrid     =           TRUE
    MP2 Hybrid          =          FALSE

   => Exchange-Correlation Functionals <=

    1.0000   wB97X-V range-separated functional

   => Exact (HF) Exchange <=

    0.8330            HF,LR [omega = 0.3000]
    0.1670               HF 

   => VV10 Non-Local Parameters <=

    VV10 B              =     6.0000E+00
    VV10 C              =     1.0000E-02

   => Molecular Quadrature <=

    Radial Scheme          =       TREUTLER
    Pruning Scheme         =           FLAT
    Nuclear Scheme         =       TREUTLER

    BS radius alpha        =              1
    Pruning alpha          =              1
    Radial Points          =             75
    Spherical Points       =            302
    Total Points           =          67950
    Total Blocks           =            578
    Max Points             =            254
    Max Functions          =             50

   => Loading Basis Set <=

    Name: (AUG-CC-PV(D+D)Z AUX)
    Role: JKFIT
    Keyword: DF_BASIS_SCF
    atoms 1   entry S          line   690 file /work/zw18965/.conda/envs/p4env/share/psi4/basis/aug-cc-pvdz-jkfit.gbs 
    atoms 2-3 entry H          line    70 file /work/zw18965/.conda/envs/p4env/share/psi4/basis/aug-cc-pvdz-jkfit.gbs 

  ==> Pre-Iterations <==

   -------------------------------------------------------
    Irrep   Nso     Nmo     Nalpha   Nbeta   Ndocc  Nsocc
   -------------------------------------------------------
     A'        36      36       0       0       0       0
     A"        14      14       0       0       0       0
   -------------------------------------------------------
    Total      50      50       9       9       9       0
   -------------------------------------------------------

  ==> Integral Setup <==

  ==> DiskDFJK: Density-Fitted J/K Matrices <==

    J tasked:                  Yes
    K tasked:                  Yes
    wK tasked:                 Yes
    Omega:               3.000E-01
    OpenMP threads:             24
    Integrals threads:          24
    Memory [MiB]:           102899
    Algorithm:                Core
    Integral Cache:           NONE
    Schwarz Cutoff:          1E-12
    Fitting Condition:       1E-10

   => Auxiliary Basis Set <=

  Basis Set: (AUG-CC-PV(D+D)Z AUX)
    Blend: AUG-CC-PVDZ-JKFIT
    Number of shells: 64
    Number of basis function: 192
    Number of Cartesian functions: 220
    Spherical Harmonics?: true
    Max angular momentum: 3

  Cached 100.0% of DFT collocation blocks in 0.095 [GiB].

  Minimum eigenvalue in the overlap matrix is 9.7988641312E-04.
  Using Symmetric Orthogonalization.

  SCF Guess: Superposition of Atomic Densities via on-the-fly atomic UHF.

  ==> Iterations <==

                           Total Energy        Delta E     RMS |[F,P]|

   @DF-RKS iter SAD:  -399.06673064871086   -3.99067e+02   0.00000e+00 
   @DF-RKS iter   1:  -399.30187657976956   -2.35146e-01   5.67396e-03 DIIS
   @DF-RKS iter   2:  -399.32748438189100   -2.56078e-02   3.11162e-03 DIIS
   @DF-RKS iter   3:  -399.33524291420707   -7.75853e-03   2.67485e-04 DIIS
   @DF-RKS iter   4:  -399.33542153278489   -1.78619e-04   6.69621e-05 DIIS
   @DF-RKS iter   5:  -399.33543183847615   -1.03057e-05   1.38248e-05 DIIS
   @DF-RKS iter   6:  -399.33543214538707   -3.06911e-07   2.58018e-06 DIIS
   @DF-RKS iter   7:  -399.33543215676326   -1.13762e-08   4.09447e-07 DIIS
   @DF-RKS iter   8:  -399.33543215708522   -3.21961e-10   5.97586e-08 DIIS
   @DF-RKS iter   9:  -399.33543215709511   -9.89075e-12   1.83885e-08 DIIS
   @DF-RKS iter  10:  -399.33543215709545   -3.41061e-13   3.28046e-09 DIIS
   @DF-RKS iter  11:  -399.33543215709545    0.00000e+00   3.33671e-10 DIIS
   @DF-RKS iter  12:  -399.33543215709562   -1.70530e-13   5.38909e-11 DIIS
  Energy and wave function converged.


  ==> Post-Iterations <==

    Orbital Energies [Eh]
    ---------------------

    Doubly Occupied:                                                      

       1Ap   -88.888459     2Ap    -8.054757     3Ap    -6.011359  
       4Ap    -6.007939     1App   -6.001060     5Ap    -0.872707  
       6Ap    -0.551159     7Ap    -0.472528     2App   -0.366086  

    Virtual:                                                              

       8Ap     0.032133     9Ap     0.061752    10Ap     0.096157  
      11Ap     0.109755     3App    0.120714    12Ap     0.154834  
      13Ap     0.175043    14Ap     0.201197    15Ap     0.236704  
       4App    0.269995     5App    0.276816    16Ap     0.379899  
      17Ap     0.421355    18Ap     0.448296    19Ap     0.488243  
       6App    0.490558     7App    0.496614    20Ap     0.532924  
      21Ap     0.578220    22Ap     0.734352     8App    0.773822  
      23Ap     0.776145    24Ap     0.793835     9App    0.948044  
      10App    0.970565    25Ap     1.007862    26Ap     1.035911  
      27Ap     1.054001    28Ap     1.202587    29Ap     1.490144  
      11App    1.681665    30Ap     1.702244    12App    1.730858  
      31Ap     1.828392    32Ap     2.172810    33Ap     2.237535  
      13App    4.734672    14App    4.738473    34Ap     4.757239  
      35Ap     4.771214    36Ap     4.877968  

    Final Occupation by Irrep:
             Ap   App 
    DOCC [     7,    2 ]

  @DF-RKS Final Energy:  -399.33543215709562

   => Energetics <=

    Nuclear Repulsion Energy =             12.8542758880913528
    One-Electron Energy =                -576.5236156395395710
    Two-Electron Energy =                 183.9939275233625153
    DFT Exchange-Correlation Energy =     -19.7357892254091354
    Empirical Dispersion Energy =           0.0000000000000000
    VV10 Nonlocal Energy =                  0.0757692963991639
    Total Energy =                       -399.3354321570956245

Computation Completed


Properties will be evaluated at   0.000000,   0.000000,   0.000000 [a0]

Properties computed using the SCF density matrix

  Nuclear Dipole Moment: [e a0]
     X:     0.0000      Y:     0.0025      Z:     1.6386

  Electronic Dipole Moment: [e a0]
     X:     0.0000      Y:    -0.0025      Z:    -1.2160

  Dipole Moment: [e a0]
     X:     0.0000      Y:     0.0000      Z:     0.4226     Total:     0.4226

  Dipole Moment: [D]
     X:     0.0000      Y:     0.0000      Z:     1.0742     Total:     1.0742


*** tstop() called on bp1-compute00105.data.bp.acrc.priv at Tue Apr 27 17:53:26 2021
Module time:
	user time   =      60.27 seconds =       1.00 minutes
	system time =       1.68 seconds =       0.03 minutes
	total time  =          2 seconds =       0.03 minutes
Total time:
	user time   =    1415.83 seconds =      23.60 minutes
	system time =      43.59 seconds =       0.73 minutes
	total time  =         62 seconds =       1.03 minutes

         ----------------------------------------------------------
                                   FINDIF
                     R. A. King and Jonathon Misiewicz
         ---------------------------------------------------------

  Computing second-derivative from energies using projected, 
  symmetry-adapted, cartesian coordinates.

  8 energies passed in, including the reference geometry.
    Using 3-point formula.
    Energy without displacement: -399.3354357418
    Check energies below for precision!
    0: -1        :      -399.3354336047
    0: 1         :      -399.3354337578
    1: -1        :      -399.3354335590
    1: 1         :      -399.3354334930
    0: 1, 1: 1   :      -399.3354344146
    0: -1, 1: -1 :      -399.3354343292
    2: -1        :      -399.3354321571

-------------------------------------------------------------


  ==> Harmonic Vibrational Analysis <==

  non-mass-weighted Hessian:       Symmetric? True   Hermitian? True   Lin Dep Dim?  6 (0)
  projection of translations (True) and rotations (True) removed 6 degrees of freedom (6)
  total projector:                 Symmetric? True   Hermitian? True   Lin Dep Dim?  6 (6)
  mass-weighted Hessian:           Symmetric? True   Hermitian? True   Lin Dep Dim?  6 (0)
  pre-proj  low-frequency mode:    0.0000i [cm^-1]
  pre-proj  low-frequency mode:    0.0000i [cm^-1]
  pre-proj  low-frequency mode:    0.0000  [cm^-1]
  pre-proj  low-frequency mode:    0.0000  [cm^-1]
  pre-proj  low-frequency mode:    0.0000  [cm^-1]
  pre-proj  low-frequency mode:    0.0000  [cm^-1]
  pre-proj  all modes:['0.0000i' '0.0000i' '0.0000' '0.0000' '0.0000' '0.0000' '1201.4818'
 '2752.7901' '2756.1352']
  projected mass-weighted Hessian: Symmetric? True   Hermitian? True   Lin Dep Dim?  6 (6)
  post-proj low-frequency mode:    0.0000i [cm^-1] (TR)
  post-proj low-frequency mode:    0.0000i [cm^-1] (TR)
  post-proj low-frequency mode:    0.0000  [cm^-1] (TR)
  post-proj low-frequency mode:    0.0000  [cm^-1] (TR)
  post-proj low-frequency mode:    0.0000  [cm^-1] (TR)
  post-proj low-frequency mode:    0.0000  [cm^-1] (TR)
  post-proj  all modes:['0.0000i' '0.0000i' '0.0000' '0.0000' '0.0000' '0.0000' '1201.4818'
 '2752.7901' '2756.1352']

  Vibration                       7                   8                   9           
  Freq [cm^-1]                1201.4818           2752.7901           2756.1352       
  Irrep                           A1                  B2                  A1          
  Reduced mass [u]              1.0393              1.0400              1.0360        
  Force const [mDyne/A]         0.8839              4.6431              4.6367        
  Turning point v=0 [a0]        0.3105              0.2051              0.2053        
  RMS dev v=0 [a0 u^1/2]        0.2238              0.1479              0.1478        
  Char temp [K]               1728.6648           3960.6521           3965.4649       
  ----------------------------------------------------------------------------------
      1   S               -0.00  0.00 -0.03   -0.00 -0.03  0.00    0.00 -0.00 -0.03   
      2   H                0.00 -0.49  0.51    0.00  0.51  0.49   -0.00  0.52  0.48   
      3   H                0.00  0.49  0.51   -0.00  0.51 -0.49   -0.00 -0.52  0.48   

  ==> Thermochemistry Components <==

  Entropy, S
    Electronic S            0.000 [cal/(mol K)]        0.000 [J/(mol K)]       0.00000000 [mEh/K] (multiplicity = 1)
    Translational S        36.501 [cal/(mol K)]      152.721 [J/(mol K)]       0.05816835 [mEh/K] (mol. weight = 33.9877 [u], P = 101325.00 [Pa])
    Rotational S           12.611 [cal/(mol K)]       52.764 [J/(mol K)]       0.02009679 [mEh/K] (symmetry no. = 2)
    Vibrational S           0.041 [cal/(mol K)]        0.172 [J/(mol K)]       0.00006565 [mEh/K]
  Total S                  49.153 [cal/(mol K)]      205.657 [J/(mol K)]       0.07833079 [mEh/K]
  Correction S              0.000 [cal/(mol K)]        0.000 [J/(mol K)]       0.00000000 [mEh/K]

  Constant volume heat capacity, Cv
    Electronic Cv           0.000 [cal/(mol K)]        0.000 [J/(mol K)]       0.00000000 [mEh/K]
    Translational Cv        2.981 [cal/(mol K)]       12.472 [J/(mol K)]       0.00475022 [mEh/K]
    Rotational Cv           2.981 [cal/(mol K)]       12.472 [J/(mol K)]       0.00475022 [mEh/K]
    Vibrational Cv          0.205 [cal/(mol K)]        0.858 [J/(mol K)]       0.00032682 [mEh/K]
  Total Cv                  6.167 [cal/(mol K)]       25.801 [J/(mol K)]       0.00982725 [mEh/K]
  Correction Cv             0.000 [cal/(mol K)]        0.000 [J/(mol K)]       0.00000000 [mEh/K]

  Constant pressure heat capacity, Cp
    Electronic Cp           0.000 [cal/(mol K)]        0.000 [J/(mol K)]       0.00000000 [mEh/K]
    Translational Cp        4.968 [cal/(mol K)]       20.786 [J/(mol K)]       0.00791703 [mEh/K]
    Rotational Cp           2.981 [cal/(mol K)]       12.472 [J/(mol K)]       0.00475022 [mEh/K]
    Vibrational Cp          0.205 [cal/(mol K)]        0.858 [J/(mol K)]       0.00032682 [mEh/K]
  Total Cp                  8.154 [cal/(mol K)]       34.116 [J/(mol K)]       0.01299406 [mEh/K]
  Correction Cp             0.000 [cal/(mol K)]        0.000 [J/(mol K)]       0.00000000 [mEh/K]

  ==> Thermochemistry Energy Analysis <==

  Raw electronic energy, E0
  Total E0, Electronic energy at well bottom at 0 [K]                 -399.33543574 [Eh]

  Zero-point energy, ZPE_vib = Sum_i nu_i / 2
    Electronic ZPE          0.000 [kcal/mol]        0.000 [kJ/mol]       0.00000000 [Eh]
    Translational ZPE       0.000 [kcal/mol]        0.000 [kJ/mol]       0.00000000 [Eh]
    Rotational ZPE          0.000 [kcal/mol]        0.000 [kJ/mol]       0.00000000 [Eh]
    Vibrational ZPE         9.593 [kcal/mol]       40.137 [kJ/mol]       0.01528743 [Eh]        3355.204 [cm^-1]
  Correction ZPE            9.593 [kcal/mol]       40.137 [kJ/mol]       0.01528743 [Eh]        3355.204 [cm^-1]
  Total ZPE, Electronic energy at 0 [K]                               -399.32014831 [Eh]

  Thermal Energy, E (includes ZPE)
    Electronic E            0.000 [kcal/mol]        0.000 [kJ/mol]       0.00000000 [Eh]
    Translational E         0.889 [kcal/mol]        3.718 [kJ/mol]       0.00141628 [Eh]
    Rotational E            0.889 [kcal/mol]        3.718 [kJ/mol]       0.00141628 [Eh]
    Vibrational E           9.603 [kcal/mol]       40.181 [kJ/mol]       0.01530413 [Eh]
  Correction E             11.381 [kcal/mol]       47.618 [kJ/mol]       0.01813669 [Eh]
  Total E, Electronic energy at  298.15 [K]                           -399.31729906 [Eh]

  Enthalpy, H_trans = E_trans + k_B * T
    Electronic H            0.000 [kcal/mol]        0.000 [kJ/mol]       0.00000000 [Eh]
    Translational H         1.481 [kcal/mol]        6.197 [kJ/mol]       0.00236046 [Eh]
    Rotational H            0.889 [kcal/mol]        3.718 [kJ/mol]       0.00141628 [Eh]
    Vibrational H           9.603 [kcal/mol]       40.181 [kJ/mol]       0.01530413 [Eh]
  Correction H             11.973 [kcal/mol]       50.097 [kJ/mol]       0.01908087 [Eh]
  Total H, Enthalpy at  298.15 [K]                                    -399.31635487 [Eh]

  Gibbs free energy, G = H - T * S
    Electronic G            0.000 [kcal/mol]        0.000 [kJ/mol]       0.00000000 [Eh]
    Translational G        -9.402 [kcal/mol]      -39.336 [kJ/mol]      -0.01498243 [Eh]
    Rotational G           -2.871 [kcal/mol]      -12.013 [kJ/mol]      -0.00457558 [Eh]
    Vibrational G           9.591 [kcal/mol]       40.130 [kJ/mol]       0.01528456 [Eh]
  Correction G             -2.682 [kcal/mol]      -11.220 [kJ/mol]      -0.00427345 [Eh]
  Total G, Free enthalpy at  298.15 [K]                               -399.33970920 [Eh]

    Psi4 stopped on: Tuesday, 27 April 2021 05:53PM
    Psi4 wall time for execution: 0:01:02.43

*** Psi4 exiting successfully. Buy a developer a beer!
