
    -----------------------------------------------------------------------
          Psi4: An Open-Source Ab Initio Electronic Structure Package
                               Psi4 1.3.2 release

                         Git: Rev {HEAD} ecbda83 


    R. M. Parrish, L. A. Burns, D. G. A. Smith, A. C. Simmonett,
    A. E. DePrince III, E. G. Hohenstein, U. Bozkaya, A. Yu. Sokolov,
    R. Di Remigio, R. M. Richard, J. F. Gonthier, A. M. James,
    H. R. McAlexander, A. Kumar, M. Saitow, X. Wang, B. P. Pritchard,
    P. Verma, H. F. Schaefer III, K. Patkowski, R. A. King, E. F. Valeev,
    F. A. Evangelista, J. M. Turney, T. D. Crawford, and C. D. Sherrill,
    J. Chem. Theory Comput. 13(7) pp 3185--3197 (2017).
    (doi: 10.1021/acs.jctc.7b00174)


                         Additional Contributions by
    P. Kraus, H. Kruse, M. H. Lechner, M. C. Schieber, R. A. Shaw,
    A. Alenaizan, R. Galvelis, Z. L. Glick, S. Lehtola, and J. P. Misiewicz

    -----------------------------------------------------------------------


    Psi4 started on: Tuesday, 27 April 2021 05:53PM

    Process ID: 197448
    Host:       bp1-compute00105.data.bp.acrc.priv
    PSIDATADIR: /work/zw18965/.conda/envs/p4env/share/psi4
    Memory:     500.0 MiB
    Threads:    24
    
  ==> Input File <==

--------------------------------------------------------------------------
memory 144 GB

molecule {
0 1
N 0.0000000000 0.0000000000 0.0000000000
H 0.0000000000 0.0000000000 1.0535284100
O 1.1513717966 0.0000000000 -0.3743228181
}

set dynamic_level 1
set basis aug-cc-pV(D+d)Z
 
optimize("wB97X-V")
frequencies("wB97X-V")
--------------------------------------------------------------------------

  Memory set to 134.110 GiB by Python driver.
gradient() will perform gradient computation by finite difference of analytic energies.

         ----------------------------------------------------------
                                   FINDIF
                     R. A. King and Jonathon Misiewicz
         ---------------------------------------------------------

  Using finite-differences of energies to determine gradients.
    Generating geometries for use with 3-point formula.
    Displacement size will be 5.00e-03.
    Number of atoms is 3.
    Number of symmetric SALCs is 3.
    Translations projected? 1. Rotations projected? 1.
    Number of geometries (including reference) is 7.

  //>>>>>>>>>>>>>>>>>>>>>>>>>>>>>>>>>>>//
  //    Loading displacement 1 of 7    //
  //<<<<<<<<<<<<<<<<<<<<<<<<<<<<<<<<<<<//

*** tstart() called on bp1-compute00105.data.bp.acrc.priv
*** at Tue Apr 27 17:53:31 2021

   => Loading Basis Set <=

    Name: AUG-CC-PV(D+D)Z
    Role: ORBITAL
    Keyword: BASIS
    atoms 1 entry N          line   234 file /work/zw18965/.conda/envs/p4env/share/psi4/basis/aug-cc-pv_dpd_z.gbs 
    atoms 2 entry H          line    56 file /work/zw18965/.conda/envs/p4env/share/psi4/basis/aug-cc-pv_dpd_z.gbs 
    atoms 3 entry O          line   270 file /work/zw18965/.conda/envs/p4env/share/psi4/basis/aug-cc-pv_dpd_z.gbs 


         ---------------------------------------------------------
                                   SCF
               by Justin Turney, Rob Parrish, Andy Simmonett
                          and Daniel G. A. Smith
                              RKS Reference
                       24 Threads, 137329 MiB Core
         ---------------------------------------------------------

  ==> Geometry <==

    Molecular point group: cs
    Full point group: Cs

    Geometry (in Angstrom), charge = 0, multiplicity = 1:

       Center              X                  Y                   Z               Mass       
    ------------   -----------------  -----------------  -----------------  -----------------
         N            0.593956145973     0.158856957167     0.000000000000    14.003074004430
         H            0.593956145973     1.212385367167     0.000000000000     1.007825032230
         O           -0.557415650627    -0.215465860933     0.000000000000    15.994914619570

  Running in cs symmetry.

  Rotational constants: A =     18.79965  B =      1.41115  C =      1.31262 [cm^-1]
  Rotational constants: A = 563599.28425  B =  42305.12378  C =  39351.31873 [MHz]
  Nuclear repulsion =   30.300887510772334

  Charge       = 0
  Multiplicity = 1
  Electrons    = 16
  Nalpha       = 8
  Nbeta        = 8

  ==> Algorithm <==

  SCF Algorithm Type is DF.
  DIIS enabled.
  MOM disabled.
  Fractional occupation disabled.
  Guess Type is SAD.
  Energy threshold   = 1.00e-08
  Density threshold  = 1.00e-08
  Integral threshold = 0.00e+00

  ==> Primary Basis <==

  Basis Set: AUG-CC-PV(D+D)Z
    Blend: AUG-CC-PV(D+D)Z
    Number of shells: 23
    Number of basis function: 55
    Number of Cartesian functions: 59
    Spherical Harmonics?: true
    Max angular momentum: 2

  ==> DFT Potential <==

   => Composite Functional: WB97X-V <= 

    wB97X-V Hyb-GGA Exchange-Correlation Functional

    N. Mardirossian and M. Head-Gordon, Phys. Chem. Chem. Phys. 16, 9904 (2014)

    Deriv               =              1
    GGA                 =           TRUE
    Meta                =          FALSE

    Exchange Hybrid     =           TRUE
    MP2 Hybrid          =          FALSE

   => Exchange-Correlation Functionals <=

    1.0000   wB97X-V range-separated functional

   => Exact (HF) Exchange <=

    0.8330            HF,LR [omega = 0.3000]
    0.1670               HF 

   => VV10 Non-Local Parameters <=

    VV10 B              =     6.0000E+00
    VV10 C              =     1.0000E-02

   => Molecular Quadrature <=

    Radial Scheme          =       TREUTLER
    Pruning Scheme         =           FLAT
    Nuclear Scheme         =       TREUTLER

    BS radius alpha        =              1
    Pruning alpha          =              1
    Radial Points          =             75
    Spherical Points       =            302
    Total Points           =          67950
    Total Blocks           =            573
    Max Points             =            256
    Max Functions          =             55

   => Loading Basis Set <=

    Name: (AUG-CC-PV(D+D)Z AUX)
    Role: JKFIT
    Keyword: DF_BASIS_SCF
    atoms 1 entry N          line   212 file /work/zw18965/.conda/envs/p4env/share/psi4/basis/aug-cc-pvdz-jkfit.gbs 
    atoms 2 entry H          line    70 file /work/zw18965/.conda/envs/p4env/share/psi4/basis/aug-cc-pvdz-jkfit.gbs 
    atoms 3 entry O          line   270 file /work/zw18965/.conda/envs/p4env/share/psi4/basis/aug-cc-pvdz-jkfit.gbs 

  ==> Pre-Iterations <==

   -------------------------------------------------------
    Irrep   Nso     Nmo     Nalpha   Nbeta   Ndocc  Nsocc
   -------------------------------------------------------
     A'        39      39       0       0       0       0
     A"        16      16       0       0       0       0
   -------------------------------------------------------
    Total      55      55       8       8       8       0
   -------------------------------------------------------

  ==> Integral Setup <==

  ==> DiskDFJK: Density-Fitted J/K Matrices <==

    J tasked:                  Yes
    K tasked:                  Yes
    wK tasked:                 Yes
    Omega:               3.000E-01
    OpenMP threads:             24
    Integrals threads:          24
    Memory [MiB]:           102890
    Algorithm:                Core
    Integral Cache:           NONE
    Schwarz Cutoff:          1E-12
    Fitting Condition:       1E-10

   => Auxiliary Basis Set <=

  Basis Set: (AUG-CC-PV(D+D)Z AUX)
    Blend: AUG-CC-PVDZ-JKFIT
    Number of shells: 68
    Number of basis function: 204
    Number of Cartesian functions: 237
    Spherical Harmonics?: true
    Max angular momentum: 3

  Cached 100.0% of DFT collocation blocks in 0.104 [GiB].

  Minimum eigenvalue in the overlap matrix is 9.5197795425E-04.
  Using Symmetric Orthogonalization.

  SCF Guess: Superposition of Atomic Densities via on-the-fly atomic UHF.

  ==> Iterations <==

                           Total Energy        Delta E     RMS |[F,P]|

   @DF-RKS iter SAD:  -129.87931291384112   -1.29879e+02   0.00000e+00 
   @DF-RKS iter   1:  -130.41582733146723   -5.36514e-01   6.59219e-03 DIIS
   @DF-RKS iter   2:  -130.43364311239333   -1.78158e-02   5.61280e-03 DIIS
   @DF-RKS iter   3:  -130.45168909629885   -1.80460e-02   1.83003e-03 DIIS
   @DF-RKS iter   4:  -130.45379893074144   -2.10983e-03   3.62355e-04 DIIS
   @DF-RKS iter   5:  -130.45391889615030   -1.19965e-04   8.18539e-05 DIIS
   @DF-RKS iter   6:  -130.45392746329355   -8.56714e-06   1.06275e-05 DIIS
   @DF-RKS iter   7:  -130.45392784415711   -3.80864e-07   1.90809e-06 DIIS
   @DF-RKS iter   8:  -130.45392785663643   -1.24793e-08   3.84717e-07 DIIS
   @DF-RKS iter   9:  -130.45392785730218   -6.65750e-10   9.11882e-08 DIIS
   @DF-RKS iter  10:  -130.45392785733483   -3.26565e-11   1.90139e-08 DIIS
   @DF-RKS iter  11:  -130.45392785733651   -1.67688e-12   3.83103e-09 DIIS
  Energy and wave function converged.


  ==> Post-Iterations <==

    Orbital Energies [Eh]
    ---------------------

    Doubly Occupied:                                                      

       1Ap   -19.324110     2Ap   -14.560899     3Ap    -1.314508  
       4Ap    -0.860727     5Ap    -0.654476     1App   -0.577219  
       6Ap    -0.572641     7Ap    -0.359476  

    Virtual:                                                              

       2App   -0.015848     8Ap     0.036009     9Ap     0.106879  
      10Ap     0.140812     3App    0.144495    11Ap     0.177178  
      12Ap     0.209518    13Ap     0.235684     4App    0.237525  
      14Ap     0.268164    15Ap     0.345157     5App    0.345550  
      16Ap     0.430278    17Ap     0.482625    18Ap     0.538587  
      19Ap     0.640371     6App    0.693733    20Ap     0.749993  
       7App    0.765253    21Ap     0.848016    22Ap     0.885727  
      23Ap     0.941102     8App    0.971142     9App    1.036055  
      24Ap     1.089582    25Ap     1.109945    10App    1.110374  
      26Ap     1.214334    27Ap     1.354560    11App    1.502125  
      28Ap     1.587600    12App    1.754876    29Ap     1.777935  
      30Ap     1.930387    31Ap     2.081653    32Ap     2.098177  
      13App    2.268009    33Ap     2.402200    14App    2.404890  
      34Ap     2.565410    35Ap     2.885588    36Ap     3.207195  
      15App    3.294995    37Ap     3.383407    16App    3.524616  
      38Ap     3.580779    39Ap     3.717335  

    Final Occupation by Irrep:
             Ap   App 
    DOCC [     7,    1 ]

  @DF-RKS Final Energy:  -130.45392785733651

   => Energetics <=

    Nuclear Repulsion Energy =             30.3008875107723341
    One-Electron Energy =                -237.5986564488667057
    Two-Electron Energy =                  87.9014815713322690
    DFT Exchange-Correlation Energy =     -11.1246021957207049
    Empirical Dispersion Energy =           0.0000000000000000
    VV10 Nonlocal Energy =                  0.0669617051463087
    Total Energy =                       -130.4539278573365095

Computation Completed


Properties will be evaluated at   0.000000,   0.000000,   0.000000 [a0]

Properties computed using the SCF density matrix

  Nuclear Dipole Moment: [e a0]
     X:     0.5524      Y:     1.1351      Z:     0.0000

  Electronic Dipole Moment: [e a0]
     X:    -0.3669      Y:    -0.4675      Z:     0.0000

  Dipole Moment: [e a0]
     X:     0.1855      Y:     0.6675      Z:     0.0000     Total:     0.6928

  Dipole Moment: [D]
     X:     0.4716      Y:     1.6967      Z:     0.0000     Total:     1.7610


*** tstop() called on bp1-compute00105.data.bp.acrc.priv at Tue Apr 27 17:53:34 2021
Module time:
	user time   =      64.08 seconds =       1.07 minutes
	system time =       2.65 seconds =       0.04 minutes
	total time  =          3 seconds =       0.05 minutes
Total time:
	user time   =      64.08 seconds =       1.07 minutes
	system time =       2.65 seconds =       0.04 minutes
	total time  =          3 seconds =       0.05 minutes

  //>>>>>>>>>>>>>>>>>>>>>>>>>>>>>>>>>>>//
  //    Loading displacement 2 of 7    //
  //<<<<<<<<<<<<<<<<<<<<<<<<<<<<<<<<<<<//

*** tstart() called on bp1-compute00105.data.bp.acrc.priv
*** at Tue Apr 27 17:53:34 2021

   => Loading Basis Set <=

    Name: AUG-CC-PV(D+D)Z
    Role: ORBITAL
    Keyword: BASIS
    atoms 1 entry N          line   234 file /work/zw18965/.conda/envs/p4env/share/psi4/basis/aug-cc-pv_dpd_z.gbs 
    atoms 2 entry H          line    56 file /work/zw18965/.conda/envs/p4env/share/psi4/basis/aug-cc-pv_dpd_z.gbs 
    atoms 3 entry O          line   270 file /work/zw18965/.conda/envs/p4env/share/psi4/basis/aug-cc-pv_dpd_z.gbs 


         ---------------------------------------------------------
                                   SCF
               by Justin Turney, Rob Parrish, Andy Simmonett
                          and Daniel G. A. Smith
                              RKS Reference
                       24 Threads, 137329 MiB Core
         ---------------------------------------------------------

  ==> Geometry <==

    Molecular point group: cs
    Full point group: Cs

    Geometry (in Angstrom), charge = 0, multiplicity = 1:

       Center              X                  Y                   Z               Mass       
    ------------   -----------------  -----------------  -----------------  -----------------
         N            0.593445853998     0.158756165124     0.000000000000    14.003074004430
         H            0.594604349552     1.212284575124     0.000000000000     1.007825032230
         O           -0.557009747836    -0.215371269670     0.000000000000    15.994914619570

  Running in cs symmetry.

  Rotational constants: A =     18.81882  B =      1.41297  C =      1.31429 [cm^-1]
  Rotational constants: A = 564174.14970  B =  42359.64686  C =  39401.29616 [MHz]
  Nuclear repulsion =   30.319736449052463

  Charge       = 0
  Multiplicity = 1
  Electrons    = 16
  Nalpha       = 8
  Nbeta        = 8

  ==> Algorithm <==

  SCF Algorithm Type is DF.
  DIIS enabled.
  MOM disabled.
  Fractional occupation disabled.
  Guess Type is SAD.
  Energy threshold   = 1.00e-08
  Density threshold  = 1.00e-08
  Integral threshold = 0.00e+00

  ==> Primary Basis <==

  Basis Set: AUG-CC-PV(D+D)Z
    Blend: AUG-CC-PV(D+D)Z
    Number of shells: 23
    Number of basis function: 55
    Number of Cartesian functions: 59
    Spherical Harmonics?: true
    Max angular momentum: 2

  ==> DFT Potential <==

   => Composite Functional: WB97X-V <= 

    wB97X-V Hyb-GGA Exchange-Correlation Functional

    N. Mardirossian and M. Head-Gordon, Phys. Chem. Chem. Phys. 16, 9904 (2014)

    Deriv               =              1
    GGA                 =           TRUE
    Meta                =          FALSE

    Exchange Hybrid     =           TRUE
    MP2 Hybrid          =          FALSE

   => Exchange-Correlation Functionals <=

    1.0000   wB97X-V range-separated functional

   => Exact (HF) Exchange <=

    0.8330            HF,LR [omega = 0.3000]
    0.1670               HF 

   => VV10 Non-Local Parameters <=

    VV10 B              =     6.0000E+00
    VV10 C              =     1.0000E-02

   => Molecular Quadrature <=

    Radial Scheme          =       TREUTLER
    Pruning Scheme         =           FLAT
    Nuclear Scheme         =       TREUTLER

    BS radius alpha        =              1
    Pruning alpha          =              1
    Radial Points          =             75
    Spherical Points       =            302
    Total Points           =          67950
    Total Blocks           =            571
    Max Points             =            255
    Max Functions          =             55

   => Loading Basis Set <=

    Name: (AUG-CC-PV(D+D)Z AUX)
    Role: JKFIT
    Keyword: DF_BASIS_SCF
    atoms 1 entry N          line   212 file /work/zw18965/.conda/envs/p4env/share/psi4/basis/aug-cc-pvdz-jkfit.gbs 
    atoms 2 entry H          line    70 file /work/zw18965/.conda/envs/p4env/share/psi4/basis/aug-cc-pvdz-jkfit.gbs 
    atoms 3 entry O          line   270 file /work/zw18965/.conda/envs/p4env/share/psi4/basis/aug-cc-pvdz-jkfit.gbs 

  ==> Pre-Iterations <==

   -------------------------------------------------------
    Irrep   Nso     Nmo     Nalpha   Nbeta   Ndocc  Nsocc
   -------------------------------------------------------
     A'        39      39       0       0       0       0
     A"        16      16       0       0       0       0
   -------------------------------------------------------
    Total      55      55       8       8       8       0
   -------------------------------------------------------

  ==> Integral Setup <==

  ==> DiskDFJK: Density-Fitted J/K Matrices <==

    J tasked:                  Yes
    K tasked:                  Yes
    wK tasked:                 Yes
    Omega:               3.000E-01
    OpenMP threads:             24
    Integrals threads:          24
    Memory [MiB]:           102890
    Algorithm:                Core
    Integral Cache:           NONE
    Schwarz Cutoff:          1E-12
    Fitting Condition:       1E-10

   => Auxiliary Basis Set <=

  Basis Set: (AUG-CC-PV(D+D)Z AUX)
    Blend: AUG-CC-PVDZ-JKFIT
    Number of shells: 68
    Number of basis function: 204
    Number of Cartesian functions: 237
    Spherical Harmonics?: true
    Max angular momentum: 3

  Cached 100.0% of DFT collocation blocks in 0.104 [GiB].

  Minimum eigenvalue in the overlap matrix is 9.5005635203E-04.
  Using Symmetric Orthogonalization.

  SCF Guess: Superposition of Atomic Densities via on-the-fly atomic UHF.

  ==> Iterations <==

                           Total Energy        Delta E     RMS |[F,P]|

   @DF-RKS iter SAD:  -129.88127078068504   -1.29881e+02   0.00000e+00 
   @DF-RKS iter   1:  -130.41581855837839   -5.34548e-01   6.59460e-03 DIIS
   @DF-RKS iter   2:  -130.43370848725635   -1.78899e-02   5.60666e-03 DIIS
   @DF-RKS iter   3:  -130.45172261442420   -1.80141e-02   1.82597e-03 DIIS
   @DF-RKS iter   4:  -130.45382179408219   -2.09918e-03   3.62692e-04 DIIS
   @DF-RKS iter   5:  -130.45394197500491   -1.20181e-04   8.19022e-05 DIIS
   @DF-RKS iter   6:  -130.45395055925644   -8.58425e-06   1.06561e-05 DIIS
   @DF-RKS iter   7:  -130.45395094212884   -3.82872e-07   1.91295e-06 DIIS
   @DF-RKS iter   8:  -130.45395095465949   -1.25306e-08   3.85365e-07 DIIS
   @DF-RKS iter   9:  -130.45395095532854   -6.69047e-10   9.14405e-08 DIIS
   @DF-RKS iter  10:  -130.45395095536128   -3.27418e-11   1.90690e-08 DIIS
   @DF-RKS iter  11:  -130.45395095536293   -1.64846e-12   3.84757e-09 DIIS
  Energy and wave function converged.


  ==> Post-Iterations <==

    Orbital Energies [Eh]
    ---------------------

    Doubly Occupied:                                                      

       1Ap   -19.324072     2Ap   -14.560790     3Ap    -1.315142  
       4Ap    -0.860590     5Ap    -0.654683     1App   -0.577573  
       6Ap    -0.572848     7Ap    -0.359227  

    Virtual:                                                              

       2App   -0.015571     8Ap     0.036019     9Ap     0.106883  
      10Ap     0.140803     3App    0.144475    11Ap     0.177193  
      12Ap     0.209535    13Ap     0.235695     4App    0.237538  
      14Ap     0.268231    15Ap     0.345324     5App    0.345604  
      16Ap     0.430244    17Ap     0.483496    18Ap     0.538671  
      19Ap     0.640412     6App    0.693620    20Ap     0.750074  
       7App    0.765445    21Ap     0.848074    22Ap     0.885666  
      23Ap     0.941089     8App    0.970961     9App    1.036199  
      24Ap     1.089628    25Ap     1.110090    10App    1.110516  
      26Ap     1.214647    27Ap     1.354567    11App    1.502578  
      28Ap     1.587817    12App    1.755028    29Ap     1.778848  
      30Ap     1.930372    31Ap     2.081846    32Ap     2.098210  
      13App    2.268151    33Ap     2.402187    14App    2.404806  
      34Ap     2.566605    35Ap     2.885197    36Ap     3.207822  
      15App    3.295046    37Ap     3.383578    16App    3.525197  
      38Ap     3.581624    39Ap     3.718007  

    Final Occupation by Irrep:
             Ap   App 
    DOCC [     7,    1 ]

  @DF-RKS Final Energy:  -130.45395095536293

   => Energetics <=

    Nuclear Repulsion Energy =             30.3197364490524635
    One-Electron Energy =                -237.6342699783144212
    Two-Electron Energy =                  87.9188403973049333
    DFT Exchange-Correlation Energy =     -11.1252194497870640
    Empirical Dispersion Energy =           0.0000000000000000
    VV10 Nonlocal Energy =                  0.0669616263811473
    Total Energy =                       -130.4539509553629273

Computation Completed


Properties will be evaluated at   0.000000,   0.000000,   0.000000 [a0]

Properties computed using the SCF density matrix

  Nuclear Dipole Moment: [e a0]
     X:     0.5530      Y:     1.1350      Z:     0.0000

  Electronic Dipole Moment: [e a0]
     X:    -0.3680      Y:    -0.4681      Z:     0.0000

  Dipole Moment: [e a0]
     X:     0.1850      Y:     0.6669      Z:     0.0000     Total:     0.6921

  Dipole Moment: [D]
     X:     0.4703      Y:     1.6951      Z:     0.0000     Total:     1.7591


*** tstop() called on bp1-compute00105.data.bp.acrc.priv at Tue Apr 27 17:53:37 2021
Module time:
	user time   =      65.15 seconds =       1.09 minutes
	system time =       2.50 seconds =       0.04 minutes
	total time  =          3 seconds =       0.05 minutes
Total time:
	user time   =     129.36 seconds =       2.16 minutes
	system time =       5.16 seconds =       0.09 minutes
	total time  =          6 seconds =       0.10 minutes

  //>>>>>>>>>>>>>>>>>>>>>>>>>>>>>>>>>>>//
  //    Loading displacement 3 of 7    //
  //<<<<<<<<<<<<<<<<<<<<<<<<<<<<<<<<<<<//

*** tstart() called on bp1-compute00105.data.bp.acrc.priv
*** at Tue Apr 27 17:53:37 2021

   => Loading Basis Set <=

    Name: AUG-CC-PV(D+D)Z
    Role: ORBITAL
    Keyword: BASIS
    atoms 1 entry N          line   234 file /work/zw18965/.conda/envs/p4env/share/psi4/basis/aug-cc-pv_dpd_z.gbs 
    atoms 2 entry H          line    56 file /work/zw18965/.conda/envs/p4env/share/psi4/basis/aug-cc-pv_dpd_z.gbs 
    atoms 3 entry O          line   270 file /work/zw18965/.conda/envs/p4env/share/psi4/basis/aug-cc-pv_dpd_z.gbs 


         ---------------------------------------------------------
                                   SCF
               by Justin Turney, Rob Parrish, Andy Simmonett
                          and Daniel G. A. Smith
                              RKS Reference
                       24 Threads, 137329 MiB Core
         ---------------------------------------------------------

  ==> Geometry <==

    Molecular point group: cs
    Full point group: Cs

    Geometry (in Angstrom), charge = 0, multiplicity = 1:

       Center              X                  Y                   Z               Mass       
    ------------   -----------------  -----------------  -----------------  -----------------
         N            0.594466437947     0.158957749209     0.000000000000    14.003074004430
         H            0.593307942393     1.212486159209     0.000000000000     1.007825032230
         O           -0.557821553419    -0.215560452197     0.000000000000    15.994914619570

  Running in cs symmetry.

  Rotational constants: A =     18.78052  B =      1.40933  C =      1.31095 [cm^-1]
  Rotational constants: A = 563025.82596  B =  42250.69008  C =  39301.42513 [MHz]
  Nuclear repulsion =   30.282063088167718

  Charge       = 0
  Multiplicity = 1
  Electrons    = 16
  Nalpha       = 8
  Nbeta        = 8

  ==> Algorithm <==

  SCF Algorithm Type is DF.
  DIIS enabled.
  MOM disabled.
  Fractional occupation disabled.
  Guess Type is SAD.
  Energy threshold   = 1.00e-08
  Density threshold  = 1.00e-08
  Integral threshold = 0.00e+00

  ==> Primary Basis <==

  Basis Set: AUG-CC-PV(D+D)Z
    Blend: AUG-CC-PV(D+D)Z
    Number of shells: 23
    Number of basis function: 55
    Number of Cartesian functions: 59
    Spherical Harmonics?: true
    Max angular momentum: 2

  ==> DFT Potential <==

   => Composite Functional: WB97X-V <= 

    wB97X-V Hyb-GGA Exchange-Correlation Functional

    N. Mardirossian and M. Head-Gordon, Phys. Chem. Chem. Phys. 16, 9904 (2014)

    Deriv               =              1
    GGA                 =           TRUE
    Meta                =          FALSE

    Exchange Hybrid     =           TRUE
    MP2 Hybrid          =          FALSE

   => Exchange-Correlation Functionals <=

    1.0000   wB97X-V range-separated functional

   => Exact (HF) Exchange <=

    0.8330            HF,LR [omega = 0.3000]
    0.1670               HF 

   => VV10 Non-Local Parameters <=

    VV10 B              =     6.0000E+00
    VV10 C              =     1.0000E-02

   => Molecular Quadrature <=

    Radial Scheme          =       TREUTLER
    Pruning Scheme         =           FLAT
    Nuclear Scheme         =       TREUTLER

    BS radius alpha        =              1
    Pruning alpha          =              1
    Radial Points          =             75
    Spherical Points       =            302
    Total Points           =          67950
    Total Blocks           =            572
    Max Points             =            256
    Max Functions          =             55

   => Loading Basis Set <=

    Name: (AUG-CC-PV(D+D)Z AUX)
    Role: JKFIT
    Keyword: DF_BASIS_SCF
    atoms 1 entry N          line   212 file /work/zw18965/.conda/envs/p4env/share/psi4/basis/aug-cc-pvdz-jkfit.gbs 
    atoms 2 entry H          line    70 file /work/zw18965/.conda/envs/p4env/share/psi4/basis/aug-cc-pvdz-jkfit.gbs 
    atoms 3 entry O          line   270 file /work/zw18965/.conda/envs/p4env/share/psi4/basis/aug-cc-pvdz-jkfit.gbs 

  ==> Pre-Iterations <==

   -------------------------------------------------------
    Irrep   Nso     Nmo     Nalpha   Nbeta   Ndocc  Nsocc
   -------------------------------------------------------
     A'        39      39       0       0       0       0
     A"        16      16       0       0       0       0
   -------------------------------------------------------
    Total      55      55       8       8       8       0
   -------------------------------------------------------

  ==> Integral Setup <==

  ==> DiskDFJK: Density-Fitted J/K Matrices <==

    J tasked:                  Yes
    K tasked:                  Yes
    wK tasked:                 Yes
    Omega:               3.000E-01
    OpenMP threads:             24
    Integrals threads:          24
    Memory [MiB]:           102890
    Algorithm:                Core
    Integral Cache:           NONE
    Schwarz Cutoff:          1E-12
    Fitting Condition:       1E-10

   => Auxiliary Basis Set <=

  Basis Set: (AUG-CC-PV(D+D)Z AUX)
    Blend: AUG-CC-PVDZ-JKFIT
    Number of shells: 68
    Number of basis function: 204
    Number of Cartesian functions: 237
    Spherical Harmonics?: true
    Max angular momentum: 3

  Cached 100.0% of DFT collocation blocks in 0.104 [GiB].

  Minimum eigenvalue in the overlap matrix is 9.5390500752E-04.
  Using Symmetric Orthogonalization.

  SCF Guess: Superposition of Atomic Densities via on-the-fly atomic UHF.

  ==> Iterations <==

                           Total Energy        Delta E     RMS |[F,P]|

   @DF-RKS iter SAD:  -129.87735800547691   -1.29877e+02   0.00000e+00 
   @DF-RKS iter   1:  -130.41583308843204   -5.38475e-01   6.58982e-03 DIIS
   @DF-RKS iter   2:  -130.43357430743262   -1.77412e-02   5.61903e-03 DIIS
   @DF-RKS iter   3:  -130.45165291529875   -1.80786e-02   1.83410e-03 DIIS
   @DF-RKS iter   4:  -130.45377342973103   -2.12051e-03   3.62019e-04 DIIS
   @DF-RKS iter   5:  -130.45389318037735   -1.19751e-04   8.18062e-05 DIIS
   @DF-RKS iter   6:  -130.45390173057922   -8.55020e-06   1.05992e-05 DIIS
   @DF-RKS iter   7:  -130.45390210945780   -3.78879e-07   1.90330e-06 DIIS
   @DF-RKS iter   8:  -130.45390212188676   -1.24290e-08   3.84118e-07 DIIS
   @DF-RKS iter   9:  -130.45390212254952   -6.62766e-10   9.09454e-08 DIIS
   @DF-RKS iter  10:  -130.45390212258170   -3.21734e-11   1.89604e-08 DIIS
   @DF-RKS iter  11:  -130.45390212258357   -1.87583e-12   3.81482e-09 DIIS
  Energy and wave function converged.


  ==> Post-Iterations <==

    Orbital Energies [Eh]
    ---------------------

    Doubly Occupied:                                                      

       1Ap   -19.324147     2Ap   -14.561008     3Ap    -1.313875  
       4Ap    -0.860864     5Ap    -0.654269     1App   -0.576866  
       6Ap    -0.572435     7Ap    -0.359724  

    Virtual:                                                              

       2App   -0.016124     8Ap     0.035999     9Ap     0.106875  
      10Ap     0.140821     3App    0.144515    11Ap     0.177163  
      12Ap     0.209500    13Ap     0.235673     4App    0.237512  
      14Ap     0.268097    15Ap     0.344987     5App    0.345497  
      16Ap     0.430312    17Ap     0.481755    18Ap     0.538505  
      19Ap     0.640331     6App    0.693845    20Ap     0.749912  
       7App    0.765061    21Ap     0.847957    22Ap     0.885788  
      23Ap     0.941115     8App    0.971321     9App    1.035912  
      24Ap     1.089532    25Ap     1.109803    10App    1.110232  
      26Ap     1.214022    27Ap     1.354553    11App    1.501673  
      28Ap     1.587383    12App    1.754724    29Ap     1.777023  
      30Ap     1.930404    31Ap     2.081461    32Ap     2.098144  
      13App    2.267868    33Ap     2.402211    14App    2.404973  
      34Ap     2.564214    35Ap     2.885979    36Ap     3.206569  
      15App    3.294945    37Ap     3.383236    16App    3.524035  
      38Ap     3.579938    39Ap     3.716669  

    Final Occupation by Irrep:
             Ap   App 
    DOCC [     7,    1 ]

  @DF-RKS Final Energy:  -130.45390212258357

   => Energetics <=

    Nuclear Repulsion Energy =             30.2820630881677175
    One-Electron Energy =                -237.5630808500532680
    Two-Electron Energy =                  87.8841397068138690
    DFT Exchange-Correlation Energy =     -11.1239858530011233
    Empirical Dispersion Energy =           0.0000000000000000
    VV10 Nonlocal Energy =                  0.0669617854892332
    Total Energy =                       -130.4539021225835711

Computation Completed


Properties will be evaluated at   0.000000,   0.000000,   0.000000 [a0]

Properties computed using the SCF density matrix

  Nuclear Dipole Moment: [e a0]
     X:     0.5518      Y:     1.1352      Z:     0.0000

  Electronic Dipole Moment: [e a0]
     X:    -0.3657      Y:    -0.4670      Z:     0.0000

  Dipole Moment: [e a0]
     X:     0.1861      Y:     0.6681      Z:     0.0000     Total:     0.6936

  Dipole Moment: [D]
     X:     0.4729      Y:     1.6983      Z:     0.0000     Total:     1.7629


*** tstop() called on bp1-compute00105.data.bp.acrc.priv at Tue Apr 27 17:53:40 2021
Module time:
	user time   =      62.27 seconds =       1.04 minutes
	system time =       1.97 seconds =       0.03 minutes
	total time  =          3 seconds =       0.05 minutes
Total time:
	user time   =     191.77 seconds =       3.20 minutes
	system time =       7.14 seconds =       0.12 minutes
	total time  =          9 seconds =       0.15 minutes

  //>>>>>>>>>>>>>>>>>>>>>>>>>>>>>>>>>>>//
  //    Loading displacement 4 of 7    //
  //<<<<<<<<<<<<<<<<<<<<<<<<<<<<<<<<<<<//

*** tstart() called on bp1-compute00105.data.bp.acrc.priv
*** at Tue Apr 27 17:53:40 2021

   => Loading Basis Set <=

    Name: AUG-CC-PV(D+D)Z
    Role: ORBITAL
    Keyword: BASIS
    atoms 1 entry N          line   234 file /work/zw18965/.conda/envs/p4env/share/psi4/basis/aug-cc-pv_dpd_z.gbs 
    atoms 2 entry H          line    56 file /work/zw18965/.conda/envs/p4env/share/psi4/basis/aug-cc-pv_dpd_z.gbs 
    atoms 3 entry O          line   270 file /work/zw18965/.conda/envs/p4env/share/psi4/basis/aug-cc-pv_dpd_z.gbs 


         ---------------------------------------------------------
                                   SCF
               by Justin Turney, Rob Parrish, Andy Simmonett
                          and Daniel G. A. Smith
                              RKS Reference
                       24 Threads, 137329 MiB Core
         ---------------------------------------------------------

  ==> Geometry <==

    Molecular point group: cs
    Full point group: Cs

    Geometry (in Angstrom), charge = 0, multiplicity = 1:

       Center              X                  Y                   Z               Mass       
    ------------   -----------------  -----------------  -----------------  -----------------
         N            0.593956145973     0.158589209370     0.000000000000    14.003074004430
         H            0.592246067627     1.213984828598     0.000000000000     1.007825032230
         O           -0.557307900145    -0.215332236279     0.000000000000    15.994914619570

  Running in cs symmetry.

  Rotational constants: A =     18.70661  B =      1.41193  C =      1.31284 [cm^-1]
  Rotational constants: A = 560809.98869  B =  42328.59878  C =  39357.95437 [MHz]
  Nuclear repulsion =   30.299240876069575

  Charge       = 0
  Multiplicity = 1
  Electrons    = 16
  Nalpha       = 8
  Nbeta        = 8

  ==> Algorithm <==

  SCF Algorithm Type is DF.
  DIIS enabled.
  MOM disabled.
  Fractional occupation disabled.
  Guess Type is SAD.
  Energy threshold   = 1.00e-08
  Density threshold  = 1.00e-08
  Integral threshold = 0.00e+00

  ==> Primary Basis <==

  Basis Set: AUG-CC-PV(D+D)Z
    Blend: AUG-CC-PV(D+D)Z
    Number of shells: 23
    Number of basis function: 55
    Number of Cartesian functions: 59
    Spherical Harmonics?: true
    Max angular momentum: 2

  ==> DFT Potential <==

   => Composite Functional: WB97X-V <= 

    wB97X-V Hyb-GGA Exchange-Correlation Functional

    N. Mardirossian and M. Head-Gordon, Phys. Chem. Chem. Phys. 16, 9904 (2014)

    Deriv               =              1
    GGA                 =           TRUE
    Meta                =          FALSE

    Exchange Hybrid     =           TRUE
    MP2 Hybrid          =          FALSE

   => Exchange-Correlation Functionals <=

    1.0000   wB97X-V range-separated functional

   => Exact (HF) Exchange <=

    0.8330            HF,LR [omega = 0.3000]
    0.1670               HF 

   => VV10 Non-Local Parameters <=

    VV10 B              =     6.0000E+00
    VV10 C              =     1.0000E-02

   => Molecular Quadrature <=

    Radial Scheme          =       TREUTLER
    Pruning Scheme         =           FLAT
    Nuclear Scheme         =       TREUTLER

    BS radius alpha        =              1
    Pruning alpha          =              1
    Radial Points          =             75
    Spherical Points       =            302
    Total Points           =          67950
    Total Blocks           =            571
    Max Points             =            256
    Max Functions          =             55

   => Loading Basis Set <=

    Name: (AUG-CC-PV(D+D)Z AUX)
    Role: JKFIT
    Keyword: DF_BASIS_SCF
    atoms 1 entry N          line   212 file /work/zw18965/.conda/envs/p4env/share/psi4/basis/aug-cc-pvdz-jkfit.gbs 
    atoms 2 entry H          line    70 file /work/zw18965/.conda/envs/p4env/share/psi4/basis/aug-cc-pvdz-jkfit.gbs 
    atoms 3 entry O          line   270 file /work/zw18965/.conda/envs/p4env/share/psi4/basis/aug-cc-pvdz-jkfit.gbs 

  ==> Pre-Iterations <==

   -------------------------------------------------------
    Irrep   Nso     Nmo     Nalpha   Nbeta   Ndocc  Nsocc
   -------------------------------------------------------
     A'        39      39       0       0       0       0
     A"        16      16       0       0       0       0
   -------------------------------------------------------
    Total      55      55       8       8       8       0
   -------------------------------------------------------

  ==> Integral Setup <==

  ==> DiskDFJK: Density-Fitted J/K Matrices <==

    J tasked:                  Yes
    K tasked:                  Yes
    wK tasked:                 Yes
    Omega:               3.000E-01
    OpenMP threads:             24
    Integrals threads:          24
    Memory [MiB]:           102890
    Algorithm:                Core
    Integral Cache:           NONE
    Schwarz Cutoff:          1E-12
    Fitting Condition:       1E-10

   => Auxiliary Basis Set <=

  Basis Set: (AUG-CC-PV(D+D)Z AUX)
    Blend: AUG-CC-PVDZ-JKFIT
    Number of shells: 68
    Number of basis function: 204
    Number of Cartesian functions: 237
    Spherical Harmonics?: true
    Max angular momentum: 3

  Cached 100.0% of DFT collocation blocks in 0.104 [GiB].

  Minimum eigenvalue in the overlap matrix is 9.5146839513E-04.
  Using Symmetric Orthogonalization.

  SCF Guess: Superposition of Atomic Densities via on-the-fly atomic UHF.

  ==> Iterations <==

                           Total Energy        Delta E     RMS |[F,P]|

   @DF-RKS iter SAD:  -129.87922874692026   -1.29879e+02   0.00000e+00 
   @DF-RKS iter   1:  -130.41576727258629   -5.36539e-01   6.59946e-03 DIIS
   @DF-RKS iter   2:  -130.43349090214880   -1.77236e-02   5.63693e-03 DIIS
   @DF-RKS iter   3:  -130.45170832211210   -1.82174e-02   1.82915e-03 DIIS
   @DF-RKS iter   4:  -130.45381690253143   -2.10858e-03   3.62307e-04 DIIS
   @DF-RKS iter   5:  -130.45393686663448   -1.19964e-04   8.18870e-05 DIIS
   @DF-RKS iter   6:  -130.45394544234441   -8.57571e-06   1.06383e-05 DIIS
   @DF-RKS iter   7:  -130.45394582393664   -3.81592e-07   1.91413e-06 DIIS
   @DF-RKS iter   8:  -130.45394583649963   -1.25630e-08   3.87153e-07 DIIS
   @DF-RKS iter   9:  -130.45394583717439   -6.74760e-10   9.18738e-08 DIIS
   @DF-RKS iter  10:  -130.45394583720787   -3.34808e-11   1.93859e-08 DIIS
   @DF-RKS iter  11:  -130.45394583720974   -1.87583e-12   3.95626e-09 DIIS
  Energy and wave function converged.


  ==> Post-Iterations <==

    Orbital Energies [Eh]
    ---------------------

    Doubly Occupied:                                                      

       1Ap   -19.324106     2Ap   -14.561110     3Ap    -1.314703  
       4Ap    -0.860199     5Ap    -0.654400     1App   -0.577338  
       6Ap    -0.572722     7Ap    -0.359463  

    Virtual:                                                              

       2App   -0.015764     8Ap     0.036001     9Ap     0.106891  
      10Ap     0.140785     3App    0.144507    11Ap     0.177049  
      12Ap     0.209447    13Ap     0.235654     4App    0.237518  
      14Ap     0.267731    15Ap     0.345270     5App    0.345366  
      16Ap     0.430399    17Ap     0.482657    18Ap     0.538237  
      19Ap     0.640186     6App    0.693934    20Ap     0.750290  
       7App    0.765113    21Ap     0.847913    22Ap     0.885270  
      23Ap     0.940850     8App    0.971008     9App    1.035767  
      24Ap     1.089442    25Ap     1.109901    10App    1.110350  
      26Ap     1.213963    27Ap     1.354524    11App    1.502198  
      28Ap     1.587846    12App    1.754360    29Ap     1.776540  
      30Ap     1.930578    31Ap     2.081987    32Ap     2.095276  
      13App    2.268096    33Ap     2.402123    14App    2.404102  
      34Ap     2.564518    35Ap     2.883898    36Ap     3.206977  
      15App    3.294937    37Ap     3.383437    16App    3.524706  
      38Ap     3.580360    39Ap     3.717395  

    Final Occupation by Irrep:
             Ap   App 
    DOCC [     7,    1 ]

  @DF-RKS Final Energy:  -130.45394583720974

   => Energetics <=

    Nuclear Repulsion Energy =             30.2992408760695753
    One-Electron Energy =                -237.5956799467933820
    Two-Electron Energy =                  87.8997498144301659
    DFT Exchange-Correlation Energy =     -11.1242172214765080
    Empirical Dispersion Energy =           0.0000000000000000
    VV10 Nonlocal Energy =                  0.0669606405604183
    Total Energy =                       -130.4539458372097442

Computation Completed


Properties will be evaluated at   0.000000,   0.000000,   0.000000 [a0]

Properties computed using the SCF density matrix

  Nuclear Dipole Moment: [e a0]
     X:     0.5508      Y:     1.1366      Z:     0.0000

  Electronic Dipole Moment: [e a0]
     X:    -0.3663      Y:    -0.4704      Z:     0.0000

  Dipole Moment: [e a0]
     X:     0.1845      Y:     0.6661      Z:     0.0000     Total:     0.6912

  Dipole Moment: [D]
     X:     0.4690      Y:     1.6932      Z:     0.0000     Total:     1.7569


*** tstop() called on bp1-compute00105.data.bp.acrc.priv at Tue Apr 27 17:53:43 2021
Module time:
	user time   =      63.79 seconds =       1.06 minutes
	system time =       2.06 seconds =       0.03 minutes
	total time  =          3 seconds =       0.05 minutes
Total time:
	user time   =     255.70 seconds =       4.26 minutes
	system time =       9.20 seconds =       0.15 minutes
	total time  =         12 seconds =       0.20 minutes

  //>>>>>>>>>>>>>>>>>>>>>>>>>>>>>>>>>>>//
  //    Loading displacement 5 of 7    //
  //<<<<<<<<<<<<<<<<<<<<<<<<<<<<<<<<<<<//

*** tstart() called on bp1-compute00105.data.bp.acrc.priv
*** at Tue Apr 27 17:53:43 2021

   => Loading Basis Set <=

    Name: AUG-CC-PV(D+D)Z
    Role: ORBITAL
    Keyword: BASIS
    atoms 1 entry N          line   234 file /work/zw18965/.conda/envs/p4env/share/psi4/basis/aug-cc-pv_dpd_z.gbs 
    atoms 2 entry H          line    56 file /work/zw18965/.conda/envs/p4env/share/psi4/basis/aug-cc-pv_dpd_z.gbs 
    atoms 3 entry O          line   270 file /work/zw18965/.conda/envs/p4env/share/psi4/basis/aug-cc-pv_dpd_z.gbs 


         ---------------------------------------------------------
                                   SCF
               by Justin Turney, Rob Parrish, Andy Simmonett
                          and Daniel G. A. Smith
                              RKS Reference
                       24 Threads, 137329 MiB Core
         ---------------------------------------------------------

  ==> Geometry <==

    Molecular point group: cs
    Full point group: Cs

    Geometry (in Angstrom), charge = 0, multiplicity = 1:

       Center              X                  Y                   Z               Mass       
    ------------   -----------------  -----------------  -----------------  -----------------
         N            0.593956145973     0.159124704963     0.000000000000    14.003074004430
         H            0.595666224318     1.210785905735     0.000000000000     1.007825032230
         O           -0.557523401110    -0.215599485588     0.000000000000    15.994914619570

  Running in cs symmetry.

  Rotational constants: A =     18.89339  B =      1.41036  C =      1.31240 [cm^-1]
  Rotational constants: A = 566409.60290  B =  42281.66351  C =  39344.64245 [MHz]
  Nuclear repulsion =   30.302542917181704

  Charge       = 0
  Multiplicity = 1
  Electrons    = 16
  Nalpha       = 8
  Nbeta        = 8

  ==> Algorithm <==

  SCF Algorithm Type is DF.
  DIIS enabled.
  MOM disabled.
  Fractional occupation disabled.
  Guess Type is SAD.
  Energy threshold   = 1.00e-08
  Density threshold  = 1.00e-08
  Integral threshold = 0.00e+00

  ==> Primary Basis <==

  Basis Set: AUG-CC-PV(D+D)Z
    Blend: AUG-CC-PV(D+D)Z
    Number of shells: 23
    Number of basis function: 55
    Number of Cartesian functions: 59
    Spherical Harmonics?: true
    Max angular momentum: 2

  ==> DFT Potential <==

   => Composite Functional: WB97X-V <= 

    wB97X-V Hyb-GGA Exchange-Correlation Functional

    N. Mardirossian and M. Head-Gordon, Phys. Chem. Chem. Phys. 16, 9904 (2014)

    Deriv               =              1
    GGA                 =           TRUE
    Meta                =          FALSE

    Exchange Hybrid     =           TRUE
    MP2 Hybrid          =          FALSE

   => Exchange-Correlation Functionals <=

    1.0000   wB97X-V range-separated functional

   => Exact (HF) Exchange <=

    0.8330            HF,LR [omega = 0.3000]
    0.1670               HF 

   => VV10 Non-Local Parameters <=

    VV10 B              =     6.0000E+00
    VV10 C              =     1.0000E-02

   => Molecular Quadrature <=

    Radial Scheme          =       TREUTLER
    Pruning Scheme         =           FLAT
    Nuclear Scheme         =       TREUTLER

    BS radius alpha        =              1
    Pruning alpha          =              1
    Radial Points          =             75
    Spherical Points       =            302
    Total Points           =          67950
    Total Blocks           =            572
    Max Points             =            255
    Max Functions          =             55

   => Loading Basis Set <=

    Name: (AUG-CC-PV(D+D)Z AUX)
    Role: JKFIT
    Keyword: DF_BASIS_SCF
    atoms 1 entry N          line   212 file /work/zw18965/.conda/envs/p4env/share/psi4/basis/aug-cc-pvdz-jkfit.gbs 
    atoms 2 entry H          line    70 file /work/zw18965/.conda/envs/p4env/share/psi4/basis/aug-cc-pvdz-jkfit.gbs 
    atoms 3 entry O          line   270 file /work/zw18965/.conda/envs/p4env/share/psi4/basis/aug-cc-pvdz-jkfit.gbs 

  ==> Pre-Iterations <==

   -------------------------------------------------------
    Irrep   Nso     Nmo     Nalpha   Nbeta   Ndocc  Nsocc
   -------------------------------------------------------
     A'        39      39       0       0       0       0
     A"        16      16       0       0       0       0
   -------------------------------------------------------
    Total      55      55       8       8       8       0
   -------------------------------------------------------

  ==> Integral Setup <==

  ==> DiskDFJK: Density-Fitted J/K Matrices <==

    J tasked:                  Yes
    K tasked:                  Yes
    wK tasked:                 Yes
    Omega:               3.000E-01
    OpenMP threads:             24
    Integrals threads:          24
    Memory [MiB]:           102890
    Algorithm:                Core
    Integral Cache:           NONE
    Schwarz Cutoff:          1E-12
    Fitting Condition:       1E-10

   => Auxiliary Basis Set <=

  Basis Set: (AUG-CC-PV(D+D)Z AUX)
    Blend: AUG-CC-PVDZ-JKFIT
    Number of shells: 68
    Number of basis function: 204
    Number of Cartesian functions: 237
    Spherical Harmonics?: true
    Max angular momentum: 3

  Cached 100.0% of DFT collocation blocks in 0.104 [GiB].

  Minimum eigenvalue in the overlap matrix is 9.5248959522E-04.
  Using Symmetric Orthogonalization.

  SCF Guess: Superposition of Atomic Densities via on-the-fly atomic UHF.

  ==> Iterations <==

                           Total Energy        Delta E     RMS |[F,P]|

   @DF-RKS iter SAD:  -129.87939299317478   -1.29879e+02   0.00000e+00 
   @DF-RKS iter   1:  -130.41588153193945   -5.36489e-01   6.58494e-03 DIIS
   @DF-RKS iter   2:  -130.43378976212517   -1.79082e-02   5.58856e-03 DIIS
   @DF-RKS iter   3:  -130.45166445169599   -1.78747e-02   1.83086e-03 DIIS
   @DF-RKS iter   4:  -130.45377541472723   -2.11096e-03   3.62416e-04 DIIS
   @DF-RKS iter   5:  -130.45389538943130   -1.19975e-04   8.18237e-05 DIIS
   @DF-RKS iter   6:  -130.45390394866914   -8.55924e-06   1.06178e-05 DIIS
   @DF-RKS iter   7:  -130.45390432888533   -3.80216e-07   1.90236e-06 DIIS
   @DF-RKS iter   8:  -130.45390434128777   -1.24024e-08   3.82443e-07 DIIS
   @DF-RKS iter   9:  -130.45390434194479   -6.57025e-10   9.05623e-08 DIIS
   @DF-RKS iter  10:  -130.45390434197674   -3.19460e-11   1.86648e-08 DIIS
   @DF-RKS iter  11:  -130.45390434197810   -1.36424e-12   3.70840e-09 DIIS
  Energy and wave function converged.


  ==> Post-Iterations <==

    Orbital Energies [Eh]
    ---------------------

    Doubly Occupied:                                                      

       1Ap   -19.324114     2Ap   -14.560687     3Ap    -1.314314  
       4Ap    -0.861257     5Ap    -0.654552     1App   -0.577101  
       6Ap    -0.572560     7Ap    -0.359488  

    Virtual:                                                              

       2App   -0.015933     8Ap     0.036017     9Ap     0.106867  
      10Ap     0.140838     3App    0.144483    11Ap     0.177305  
      12Ap     0.209587    13Ap     0.235714     4App    0.237532  
      14Ap     0.268600    15Ap     0.345043     5App    0.345735  
      16Ap     0.430156    17Ap     0.482593    18Ap     0.538933  
      19Ap     0.640562     6App    0.693530    20Ap     0.749694  
       7App    0.765394    21Ap     0.848118    22Ap     0.886186  
      23Ap     0.941354     8App    0.971276     9App    1.036346  
      24Ap     1.089722    25Ap     1.109988    10App    1.110397  
      26Ap     1.214705    27Ap     1.354599    11App    1.502052  
      28Ap     1.587349    12App    1.755396    29Ap     1.779327  
      30Ap     1.930200    31Ap     2.081258    32Ap     2.101147  
      13App    2.267923    33Ap     2.402263    14App    2.405677  
      34Ap     2.566319    35Ap     2.887284    36Ap     3.207411  
      15App    3.295053    37Ap     3.383373    16App    3.524526  
      38Ap     3.581211    39Ap     3.717274  

    Final Occupation by Irrep:
             Ap   App 
    DOCC [     7,    1 ]

  @DF-RKS Final Energy:  -130.45390434197810

   => Energetics <=

    Nuclear Repulsion Energy =             30.3025429171817038
    One-Electron Energy =                -237.6016304721875088
    Two-Electron Energy =                  87.9032082225361933
    DFT Exchange-Correlation Energy =     -11.1249877825344150
    Empirical Dispersion Energy =           0.0000000000000000
    VV10 Nonlocal Energy =                  0.0669627730259019
    Total Energy =                       -130.4539043419781308

Computation Completed


Properties will be evaluated at   0.000000,   0.000000,   0.000000 [a0]

Properties computed using the SCF density matrix

  Nuclear Dipole Moment: [e a0]
     X:     0.5540      Y:     1.1336      Z:     0.0000

  Electronic Dipole Moment: [e a0]
     X:    -0.3674      Y:    -0.4647      Z:     0.0000

  Dipole Moment: [e a0]
     X:     0.1866      Y:     0.6689      Z:     0.0000     Total:     0.6944

  Dipole Moment: [D]
     X:     0.4742      Y:     1.7002      Z:     0.0000     Total:     1.7651


*** tstop() called on bp1-compute00105.data.bp.acrc.priv at Tue Apr 27 17:53:46 2021
Module time:
	user time   =      62.34 seconds =       1.04 minutes
	system time =       1.97 seconds =       0.03 minutes
	total time  =          3 seconds =       0.05 minutes
Total time:
	user time   =     318.17 seconds =       5.30 minutes
	system time =      11.18 seconds =       0.19 minutes
	total time  =         15 seconds =       0.25 minutes

  //>>>>>>>>>>>>>>>>>>>>>>>>>>>>>>>>>>>//
  //    Loading displacement 6 of 7    //
  //<<<<<<<<<<<<<<<<<<<<<<<<<<<<<<<<<<<//

*** tstart() called on bp1-compute00105.data.bp.acrc.priv
*** at Tue Apr 27 17:53:46 2021

   => Loading Basis Set <=

    Name: AUG-CC-PV(D+D)Z
    Role: ORBITAL
    Keyword: BASIS
    atoms 1 entry N          line   234 file /work/zw18965/.conda/envs/p4env/share/psi4/basis/aug-cc-pv_dpd_z.gbs 
    atoms 2 entry H          line    56 file /work/zw18965/.conda/envs/p4env/share/psi4/basis/aug-cc-pv_dpd_z.gbs 
    atoms 3 entry O          line   270 file /work/zw18965/.conda/envs/p4env/share/psi4/basis/aug-cc-pv_dpd_z.gbs 


         ---------------------------------------------------------
                                   SCF
               by Justin Turney, Rob Parrish, Andy Simmonett
                          and Daniel G. A. Smith
                              RKS Reference
                       24 Threads, 137329 MiB Core
         ---------------------------------------------------------

  ==> Geometry <==

    Molecular point group: cs
    Full point group: Cs

    Geometry (in Angstrom), charge = 0, multiplicity = 1:

       Center              X                  Y                   Z               Mass       
    ------------   -----------------  -----------------  -----------------  -----------------
         N            0.593956145973     0.158856957167     0.000000000000    14.003074004430
         H            0.592351531111     1.210395435411     0.000000000000     1.007825032230
         O           -0.557314545303    -0.215340477142     0.000000000000    15.994914619570

  Running in cs symmetry.

  Rotational constants: A =     18.84389  B =      1.41201  C =      1.31358 [cm^-1]
  Rotational constants: A = 564925.65097  B =  42331.12874  C =  39380.27744 [MHz]
  Nuclear repulsion =   30.313689360107158

  Charge       = 0
  Multiplicity = 1
  Electrons    = 16
  Nalpha       = 8
  Nbeta        = 8

  ==> Algorithm <==

  SCF Algorithm Type is DF.
  DIIS enabled.
  MOM disabled.
  Fractional occupation disabled.
  Guess Type is SAD.
  Energy threshold   = 1.00e-08
  Density threshold  = 1.00e-08
  Integral threshold = 0.00e+00

  ==> Primary Basis <==

  Basis Set: AUG-CC-PV(D+D)Z
    Blend: AUG-CC-PV(D+D)Z
    Number of shells: 23
    Number of basis function: 55
    Number of Cartesian functions: 59
    Spherical Harmonics?: true
    Max angular momentum: 2

  ==> DFT Potential <==

   => Composite Functional: WB97X-V <= 

    wB97X-V Hyb-GGA Exchange-Correlation Functional

    N. Mardirossian and M. Head-Gordon, Phys. Chem. Chem. Phys. 16, 9904 (2014)

    Deriv               =              1
    GGA                 =           TRUE
    Meta                =          FALSE

    Exchange Hybrid     =           TRUE
    MP2 Hybrid          =          FALSE

   => Exchange-Correlation Functionals <=

    1.0000   wB97X-V range-separated functional

   => Exact (HF) Exchange <=

    0.8330            HF,LR [omega = 0.3000]
    0.1670               HF 

   => VV10 Non-Local Parameters <=

    VV10 B              =     6.0000E+00
    VV10 C              =     1.0000E-02

   => Molecular Quadrature <=

    Radial Scheme          =       TREUTLER
    Pruning Scheme         =           FLAT
    Nuclear Scheme         =       TREUTLER

    BS radius alpha        =              1
    Pruning alpha          =              1
    Radial Points          =             75
    Spherical Points       =            302
    Total Points           =          67950
    Total Blocks           =            570
    Max Points             =            256
    Max Functions          =             55

   => Loading Basis Set <=

    Name: (AUG-CC-PV(D+D)Z AUX)
    Role: JKFIT
    Keyword: DF_BASIS_SCF
    atoms 1 entry N          line   212 file /work/zw18965/.conda/envs/p4env/share/psi4/basis/aug-cc-pvdz-jkfit.gbs 
    atoms 2 entry H          line    70 file /work/zw18965/.conda/envs/p4env/share/psi4/basis/aug-cc-pvdz-jkfit.gbs 
    atoms 3 entry O          line   270 file /work/zw18965/.conda/envs/p4env/share/psi4/basis/aug-cc-pvdz-jkfit.gbs 

  ==> Pre-Iterations <==

   -------------------------------------------------------
    Irrep   Nso     Nmo     Nalpha   Nbeta   Ndocc  Nsocc
   -------------------------------------------------------
     A'        39      39       0       0       0       0
     A"        16      16       0       0       0       0
   -------------------------------------------------------
    Total      55      55       8       8       8       0
   -------------------------------------------------------

  ==> Integral Setup <==

  ==> DiskDFJK: Density-Fitted J/K Matrices <==

    J tasked:                  Yes
    K tasked:                  Yes
    wK tasked:                 Yes
    Omega:               3.000E-01
    OpenMP threads:             24
    Integrals threads:          24
    Memory [MiB]:           102890
    Algorithm:                Core
    Integral Cache:           NONE
    Schwarz Cutoff:          1E-12
    Fitting Condition:       1E-10

   => Auxiliary Basis Set <=

  Basis Set: (AUG-CC-PV(D+D)Z AUX)
    Blend: AUG-CC-PVDZ-JKFIT
    Number of shells: 68
    Number of basis function: 204
    Number of Cartesian functions: 237
    Spherical Harmonics?: true
    Max angular momentum: 3

  Cached 100.0% of DFT collocation blocks in 0.104 [GiB].

  Minimum eigenvalue in the overlap matrix is 9.5113665820E-04.
  Using Symmetric Orthogonalization.

  SCF Guess: Superposition of Atomic Densities via on-the-fly atomic UHF.

  ==> Iterations <==

                           Total Energy        Delta E     RMS |[F,P]|

   @DF-RKS iter SAD:  -129.88054757461251   -1.29881e+02   0.00000e+00 
   @DF-RKS iter   1:  -130.41587684266034   -5.35329e-01   6.58705e-03 DIIS
   @DF-RKS iter   2:  -130.43380509130759   -1.79282e-02   5.58849e-03 DIIS
   @DF-RKS iter   3:  -130.45167920552049   -1.78741e-02   1.82854e-03 DIIS
   @DF-RKS iter   4:  -130.45378454319530   -2.10534e-03   3.62505e-04 DIIS
   @DF-RKS iter   5:  -130.45390437159770   -1.19828e-04   8.16544e-05 DIIS
   @DF-RKS iter   6:  -130.45391288129599   -8.50970e-06   1.05757e-05 DIIS
   @DF-RKS iter   7:  -130.45391325815720   -3.76861e-07   1.89543e-06 DIIS
   @DF-RKS iter   8:  -130.45391327045274   -1.22955e-08   3.81461e-07 DIIS
   @DF-RKS iter   9:  -130.45391327110559   -6.52847e-10   9.03648e-08 DIIS
   @DF-RKS iter  10:  -130.45391327113751   -3.19176e-11   1.87188e-08 DIIS
   @DF-RKS iter  11:  -130.45391327113910   -1.59162e-12   3.73515e-09 DIIS
  Energy and wave function converged.


  ==> Post-Iterations <==

    Orbital Energies [Eh]
    ---------------------

    Doubly Occupied:                                                      

       1Ap   -19.324022     2Ap   -14.560665     3Ap    -1.314652  
       4Ap    -0.861071     5Ap    -0.654616     1App   -0.577258  
       6Ap    -0.572653     7Ap    -0.359502  

    Virtual:                                                              

       2App   -0.015795     8Ap     0.036040     9Ap     0.106900  
      10Ap     0.140822     3App    0.144480    11Ap     0.177344  
      12Ap     0.209514    13Ap     0.235680     4App    0.237533  
      14Ap     0.268535    15Ap     0.345249     5App    0.345642  
      16Ap     0.430588    17Ap     0.482771    18Ap     0.538836  
      19Ap     0.640448     6App    0.693890    20Ap     0.750479  
       7App    0.765230    21Ap     0.848169    22Ap     0.886190  
      23Ap     0.941092     8App    0.971350     9App    1.036100  
      24Ap     1.089731    25Ap     1.109888    10App    1.110445  
      26Ap     1.214533    27Ap     1.354614    11App    1.502219  
      28Ap     1.588083    12App    1.755163    29Ap     1.777039  
      30Ap     1.930560    31Ap     2.081955    32Ap     2.101511  
      13App    2.268060    33Ap     2.403304    14App    2.405760  
      34Ap     2.565472    35Ap     2.887851    36Ap     3.207289  
      15App    3.294987    37Ap     3.383931    16App    3.524723  
      38Ap     3.581070    39Ap     3.717544  

    Final Occupation by Irrep:
             Ap   App 
    DOCC [     7,    1 ]

  @DF-RKS Final Energy:  -130.45391327113910

   => Energetics <=

    Nuclear Repulsion Energy =             30.3136893601071584
    One-Electron Energy =                -237.6229657872411281
    Two-Electron Energy =                  87.9137767614843852
    DFT Exchange-Correlation Energy =     -11.1253758199537636
    Empirical Dispersion Energy =           0.0000000000000000
    VV10 Nonlocal Energy =                  0.0669622144642425
    Total Energy =                       -130.4539132711391005

Computation Completed


Properties will be evaluated at   0.000000,   0.000000,   0.000000 [a0]

Properties computed using the SCF density matrix

  Nuclear Dipole Moment: [e a0]
     X:     0.5509      Y:     1.1332      Z:     0.0000

  Electronic Dipole Moment: [e a0]
     X:    -0.3657      Y:    -0.4650      Z:     0.0000

  Dipole Moment: [e a0]
     X:     0.1852      Y:     0.6682      Z:     0.0000     Total:     0.6934

  Dipole Moment: [D]
     X:     0.4707      Y:     1.6984      Z:     0.0000     Total:     1.7625


*** tstop() called on bp1-compute00105.data.bp.acrc.priv at Tue Apr 27 17:53:48 2021
Module time:
	user time   =      63.93 seconds =       1.07 minutes
	system time =       1.97 seconds =       0.03 minutes
	total time  =          2 seconds =       0.03 minutes
Total time:
	user time   =     382.23 seconds =       6.37 minutes
	system time =      13.16 seconds =       0.22 minutes
	total time  =         17 seconds =       0.28 minutes

  //>>>>>>>>>>>>>>>>>>>>>>>>>>>>>>>>>>>//
  //    Loading displacement 7 of 7    //
  //<<<<<<<<<<<<<<<<<<<<<<<<<<<<<<<<<<<//

*** tstart() called on bp1-compute00105.data.bp.acrc.priv
*** at Tue Apr 27 17:53:48 2021

   => Loading Basis Set <=

    Name: AUG-CC-PV(D+D)Z
    Role: ORBITAL
    Keyword: BASIS
    atoms 1 entry N          line   234 file /work/zw18965/.conda/envs/p4env/share/psi4/basis/aug-cc-pv_dpd_z.gbs 
    atoms 2 entry H          line    56 file /work/zw18965/.conda/envs/p4env/share/psi4/basis/aug-cc-pv_dpd_z.gbs 
    atoms 3 entry O          line   270 file /work/zw18965/.conda/envs/p4env/share/psi4/basis/aug-cc-pv_dpd_z.gbs 


         ---------------------------------------------------------
                                   SCF
               by Justin Turney, Rob Parrish, Andy Simmonett
                          and Daniel G. A. Smith
                              RKS Reference
                       24 Threads, 137329 MiB Core
         ---------------------------------------------------------

  ==> Geometry <==

    Molecular point group: cs
    Full point group: Cs

    Geometry (in Angstrom), charge = 0, multiplicity = 1:

       Center              X                  Y                   Z               Mass       
    ------------   -----------------  -----------------  -----------------  -----------------
         N            0.593956145973     0.158856957167     0.000000000000    14.003074004430
         H            0.595560760834     1.214375298922     0.000000000000     1.007825032230
         O           -0.557516755951    -0.215591244725     0.000000000000    15.994914619570

  Running in cs symmetry.

  Rotational constants: A =     18.75561  B =      1.41028  C =      1.31165 [cm^-1]
  Rotational constants: A = 562278.93115  B =  42279.10236  C =  39322.35975 [MHz]
  Nuclear repulsion =   30.288113202601853

  Charge       = 0
  Multiplicity = 1
  Electrons    = 16
  Nalpha       = 8
  Nbeta        = 8

  ==> Algorithm <==

  SCF Algorithm Type is DF.
  DIIS enabled.
  MOM disabled.
  Fractional occupation disabled.
  Guess Type is SAD.
  Energy threshold   = 1.00e-08
  Density threshold  = 1.00e-08
  Integral threshold = 0.00e+00

  ==> Primary Basis <==

  Basis Set: AUG-CC-PV(D+D)Z
    Blend: AUG-CC-PV(D+D)Z
    Number of shells: 23
    Number of basis function: 55
    Number of Cartesian functions: 59
    Spherical Harmonics?: true
    Max angular momentum: 2

  ==> DFT Potential <==

   => Composite Functional: WB97X-V <= 

    wB97X-V Hyb-GGA Exchange-Correlation Functional

    N. Mardirossian and M. Head-Gordon, Phys. Chem. Chem. Phys. 16, 9904 (2014)

    Deriv               =              1
    GGA                 =           TRUE
    Meta                =          FALSE

    Exchange Hybrid     =           TRUE
    MP2 Hybrid          =          FALSE

   => Exchange-Correlation Functionals <=

    1.0000   wB97X-V range-separated functional

   => Exact (HF) Exchange <=

    0.8330            HF,LR [omega = 0.3000]
    0.1670               HF 

   => VV10 Non-Local Parameters <=

    VV10 B              =     6.0000E+00
    VV10 C              =     1.0000E-02

   => Molecular Quadrature <=

    Radial Scheme          =       TREUTLER
    Pruning Scheme         =           FLAT
    Nuclear Scheme         =       TREUTLER

    BS radius alpha        =              1
    Pruning alpha          =              1
    Radial Points          =             75
    Spherical Points       =            302
    Total Points           =          67950
    Total Blocks           =            569
    Max Points             =            256
    Max Functions          =             55

   => Loading Basis Set <=

    Name: (AUG-CC-PV(D+D)Z AUX)
    Role: JKFIT
    Keyword: DF_BASIS_SCF
    atoms 1 entry N          line   212 file /work/zw18965/.conda/envs/p4env/share/psi4/basis/aug-cc-pvdz-jkfit.gbs 
    atoms 2 entry H          line    70 file /work/zw18965/.conda/envs/p4env/share/psi4/basis/aug-cc-pvdz-jkfit.gbs 
    atoms 3 entry O          line   270 file /work/zw18965/.conda/envs/p4env/share/psi4/basis/aug-cc-pvdz-jkfit.gbs 

  ==> Pre-Iterations <==

   -------------------------------------------------------
    Irrep   Nso     Nmo     Nalpha   Nbeta   Ndocc  Nsocc
   -------------------------------------------------------
     A'        39      39       0       0       0       0
     A"        16      16       0       0       0       0
   -------------------------------------------------------
    Total      55      55       8       8       8       0
   -------------------------------------------------------

  ==> Integral Setup <==

  ==> DiskDFJK: Density-Fitted J/K Matrices <==

    J tasked:                  Yes
    K tasked:                  Yes
    wK tasked:                 Yes
    Omega:               3.000E-01
    OpenMP threads:             24
    Integrals threads:          24
    Memory [MiB]:           102890
    Algorithm:                Core
    Integral Cache:           NONE
    Schwarz Cutoff:          1E-12
    Fitting Condition:       1E-10

   => Auxiliary Basis Set <=

  Basis Set: (AUG-CC-PV(D+D)Z AUX)
    Blend: AUG-CC-PVDZ-JKFIT
    Number of shells: 68
    Number of basis function: 204
    Number of Cartesian functions: 237
    Spherical Harmonics?: true
    Max angular momentum: 3

  Cached 100.0% of DFT collocation blocks in 0.104 [GiB].

  Minimum eigenvalue in the overlap matrix is 9.5282325996E-04.
  Using Symmetric Orthogonalization.

  SCF Guess: Superposition of Atomic Densities via on-the-fly atomic UHF.

  ==> Iterations <==

                           Total Energy        Delta E     RMS |[F,P]|

   @DF-RKS iter SAD:  -129.87807636596628   -1.29878e+02   0.00000e+00 
   @DF-RKS iter   1:  -130.41577173164751   -5.37695e-01   6.59735e-03 DIIS
   @DF-RKS iter   2:  -130.43347475027298   -1.77030e-02   5.63707e-03 DIIS
   @DF-RKS iter   3:  -130.45169335285871   -1.82186e-02   1.83147e-03 DIIS
   @DF-RKS iter   4:  -130.45380755094493   -2.11420e-03   3.62218e-04 DIIS
   @DF-RKS iter   5:  -130.45392766071791   -1.20110e-04   8.20553e-05 DIIS
   @DF-RKS iter   6:  -130.45393628596696   -8.62525e-06   1.06799e-05 DIIS
   @DF-RKS iter   7:  -130.45393667089650   -3.84930e-07   1.92088e-06 DIIS
   @DF-RKS iter   8:  -130.45393668356382   -1.26673e-08   3.88030e-07 DIIS
   @DF-RKS iter   9:  -130.45393668424256   -6.78739e-10   9.20333e-08 DIIS
   @DF-RKS iter  10:  -130.45393668427610   -3.35376e-11   1.93170e-08 DIIS
   @DF-RKS iter  11:  -130.45393668427789   -1.79057e-12   3.92773e-09 DIIS
  Energy and wave function converged.


  ==> Post-Iterations <==

    Orbital Energies [Eh]
    ---------------------

    Doubly Occupied:                                                      

       1Ap   -19.324199     2Ap   -14.561133     3Ap    -1.314366  
       4Ap    -0.860384     5Ap    -0.654336     1App   -0.577181  
       6Ap    -0.572629     7Ap    -0.359449  

    Virtual:                                                              

       2App   -0.015901     8Ap     0.035979     9Ap     0.106858  
      10Ap     0.140800     3App    0.144509    11Ap     0.177011  
      12Ap     0.209521    13Ap     0.235688     4App    0.237517  
      14Ap     0.267794    15Ap     0.345064     5App    0.345458  
      16Ap     0.429970    17Ap     0.482477    18Ap     0.538334  
      19Ap     0.640299     6App    0.693575    20Ap     0.749506  
       7App    0.765276    21Ap     0.847859    22Ap     0.885274  
      23Ap     0.941112     8App    0.970935     9App    1.036010  
      24Ap     1.089431    25Ap     1.110001    10App    1.110302  
      26Ap     1.214133    27Ap     1.354508    11App    1.502031  
      28Ap     1.587109    12App    1.754591    29Ap     1.778831  
      30Ap     1.930214    31Ap     2.081244    32Ap     2.094961  
      13App    2.267959    33Ap     2.401102    14App    2.404020  
      34Ap     2.565346    35Ap     2.883336    36Ap     3.207102  
      15App    3.295004    37Ap     3.382877    16App    3.524508  
      38Ap     3.580491    39Ap     3.717127  

    Final Occupation by Irrep:
             Ap   App 
    DOCC [     7,    1 ]

  @DF-RKS Final Energy:  -130.45393668427789

   => Energetics <=

    Nuclear Repulsion Energy =             30.2881132026018527
    One-Electron Energy =                -237.5743798283172623
    Two-Electron Energy =                  87.8891988041203263
    DFT Exchange-Correlation Energy =     -11.1238300627467730
    Empirical Dispersion Energy =           0.0000000000000000
    VV10 Nonlocal Energy =                  0.0669612000639577
    Total Energy =                       -130.4539366842778918

Computation Completed


Properties will be evaluated at   0.000000,   0.000000,   0.000000 [a0]

Properties computed using the SCF density matrix

  Nuclear Dipole Moment: [e a0]
     X:     0.5539      Y:     1.1369      Z:     0.0000

  Electronic Dipole Moment: [e a0]
     X:    -0.3680      Y:    -0.4701      Z:     0.0000

  Dipole Moment: [e a0]
     X:     0.1859      Y:     0.6668      Z:     0.0000     Total:     0.6922

  Dipole Moment: [D]
     X:     0.4725      Y:     1.6949      Z:     0.0000     Total:     1.7595


*** tstop() called on bp1-compute00105.data.bp.acrc.priv at Tue Apr 27 17:53:51 2021
Module time:
	user time   =      62.84 seconds =       1.05 minutes
	system time =       2.10 seconds =       0.04 minutes
	total time  =          3 seconds =       0.05 minutes
Total time:
	user time   =     445.20 seconds =       7.42 minutes
	system time =      15.27 seconds =       0.25 minutes
	total time  =         20 seconds =       0.33 minutes

         ----------------------------------------------------------
                                   FINDIF
                     R. A. King and Jonathon Misiewicz
         ---------------------------------------------------------

  Computing gradient from energies.
    Using 3-point formula.
    Energy without displacement: -130.4539278573
    Check energies below for precision!
    Forces are for mass-weighted, symmetry-adapted cartesians (in au).

     Coord      Energy(-1)        Energy(+1)            Force
        0   -130.4539509554   -130.4539021226      0.0048832779
        1   -130.4539458372   -130.4539043420      0.0041495232
        2   -130.4539132711   -130.4539366843     -0.0023413139


-------------------------------------------------------------
  ## New Matrix (Symmetry 0) ##
  Irrep: 1 Size: 3 x 3

                 1                   2                   3

    1     0.01318810598185     0.00848488001501     0.00000000000000
    2     0.00006617971283    -0.00411521958419     0.00000000000000
    3    -0.01325428569468    -0.00436966043082     0.00000000000000




			-----------------------------------------
			 OPTKING 2.0: for geometry optimizations 
			  - R.A. King,  Bethel University        
			-----------------------------------------
	At level 1: Red. Int., RFO, no backsteps, dynamic trust

	Internal coordinates to be generated automatically.
	Detected frag 1 with atoms:  1 2 3
	---Fragment 1 Bond Connectivity---
	 1 : 2 3
	 2 : 1
	 3 : 1

	---Fragment 1 Geometry and Gradient---
	 N           1.1224144464        0.3001961422        0.0000000000
	 H           1.1224144464        2.2910763025        0.0000000000
	 O          -1.0533629177       -0.4071714666        0.0000000000
	             0.0131881060        0.0084848800        0.0000000000
	             0.0000661797       -0.0041152196        0.0000000000
	            -0.0132542857       -0.0043696604        0.0000000000

	Previous optimization step data not found.  Starting new optimization.

	---Fragment 1 Intrafragment Coordinates---
	 - Coordinate -           - BOHR/RAD -       - ANG/DEG -
	 R(1,2)           =         1.990880	       1.053528
	 R(1,3)           =         2.287876	       1.210692
	 B(2,1,3)         =         1.885128	     108.009877

	Current energy   :      -130.4539278573

	Generating empirical Hessian (Schlegel '84) for each fragment.
	Taking RFO optimization step.
	Going to follow RFO solution 1.
	Using RFO vector 1.
	Norm of target step-size    0.01749
	Projected energy change by RFO approximation:        -0.0003100652

	Back-transformation to cartesian coordinates...
	Successfully converged to displaced geometry.

	--- Internal Coordinate Step in ANG or DEG, aJ/ANG or AJ/DEG ---
	 ---------------------------------------------------------------------------
	   Coordinate                Previous        Force       Change         New 
	   ----------                --------       ------       ------       ------
	    1 R(1,2)          =      1.053528     0.033904     0.005525     1.059053
	    2 R(1,3)          =      1.210692    -0.114979    -0.007411     1.203281
	    3 B(2,1,3)        =    108.009877    -0.000010    -0.047111   107.962765
	 ---------------------------------------------------------------------------
	Successfully symmetrized geometry.

  ==> Convergence Check <==

  Measures of convergence in internal coordinates in au.
  Criteria marked as inactive (o), active & met (*), and active & unmet ( ).
  --------------------------------------------------------------------------------------------- ~
   Step     Total Energy     Delta E     MAX Force     RMS Force      MAX Disp      RMS Disp    ~
  --------------------------------------------------------------------------------------------- ~
    Convergence Criteria    1.00e-06 *    3.00e-04 *             o    1.20e-03 *             o  ~
  --------------------------------------------------------------------------------------------- ~
      1    -130.45392786   -1.30e+02      1.40e-02      8.40e-03 o    1.40e-02      1.01e-02 o  ~
  ---------------------------------------------------------------------------------------------

	Writing optimization data to binary file.
	Structure for next step:
	Cartesian Geometry (in Angstrom)
	    N     0.5912802216   0.1552264249   0.0000000000
	    H     0.5932561233   1.2142778791   0.0000000000
	    O    -0.5540397061  -0.2137278452   0.0000000000
			--------------------------
			 OPTKING Finished Execution 
			--------------------------

    Structure for next step:
    Molecular point group: cs
    Full point group: Cs

    Geometry (in Angstrom), charge = 0, multiplicity = 1:

    N            0.590769955876     0.155907971187     0.000000000000
    H            0.592745857559     1.214959429538     0.000000000000
    O           -0.554549976395    -0.213046300383     0.000000000000

gradient() will perform gradient computation by finite difference of analytic energies.

         ----------------------------------------------------------
                                   FINDIF
                     R. A. King and Jonathon Misiewicz
         ---------------------------------------------------------

  Using finite-differences of energies to determine gradients.
    Generating geometries for use with 3-point formula.
    Displacement size will be 5.00e-03.
    Number of atoms is 3.
    Number of symmetric SALCs is 3.
    Translations projected? 1. Rotations projected? 1.
    Number of geometries (including reference) is 7.

  //>>>>>>>>>>>>>>>>>>>>>>>>>>>>>>>>>>>//
  //    Loading displacement 1 of 7    //
  //<<<<<<<<<<<<<<<<<<<<<<<<<<<<<<<<<<<//

*** tstart() called on bp1-compute00105.data.bp.acrc.priv
*** at Tue Apr 27 17:53:51 2021

   => Loading Basis Set <=

    Name: AUG-CC-PV(D+D)Z
    Role: ORBITAL
    Keyword: BASIS
    atoms 1 entry N          line   234 file /work/zw18965/.conda/envs/p4env/share/psi4/basis/aug-cc-pv_dpd_z.gbs 
    atoms 2 entry H          line    56 file /work/zw18965/.conda/envs/p4env/share/psi4/basis/aug-cc-pv_dpd_z.gbs 
    atoms 3 entry O          line   270 file /work/zw18965/.conda/envs/p4env/share/psi4/basis/aug-cc-pv_dpd_z.gbs 


         ---------------------------------------------------------
                                   SCF
               by Justin Turney, Rob Parrish, Andy Simmonett
                          and Daniel G. A. Smith
                              RKS Reference
                       24 Threads, 137329 MiB Core
         ---------------------------------------------------------

  ==> Geometry <==

    Molecular point group: cs
    Full point group: Cs

    Geometry (in Angstrom), charge = 0, multiplicity = 1:

       Center              X                  Y                   Z               Mass       
    ------------   -----------------  -----------------  -----------------  -----------------
         N            0.590769955876     0.155907971187     0.000000000000    14.003074004430
         H            0.592745857559     1.214959429538     0.000000000000     1.007825032230
         O           -0.554549976395    -0.213046300383     0.000000000000    15.994914619570

  Running in cs symmetry.

  Rotational constants: A =     18.60659  B =      1.42762  C =      1.32589 [cm^-1]
  Rotational constants: A = 557811.47236  B =  42799.04489  C =  39749.21777 [MHz]
  Nuclear repulsion =   30.436363132080384

  Charge       = 0
  Multiplicity = 1
  Electrons    = 16
  Nalpha       = 8
  Nbeta        = 8

  ==> Algorithm <==

  SCF Algorithm Type is DF.
  DIIS enabled.
  MOM disabled.
  Fractional occupation disabled.
  Guess Type is READ.
  Energy threshold   = 1.00e-08
  Density threshold  = 1.00e-08
  Integral threshold = 0.00e+00

  ==> Primary Basis <==

  Basis Set: AUG-CC-PV(D+D)Z
    Blend: AUG-CC-PV(D+D)Z
    Number of shells: 23
    Number of basis function: 55
    Number of Cartesian functions: 59
    Spherical Harmonics?: true
    Max angular momentum: 2

  ==> DFT Potential <==

   => Composite Functional: WB97X-V <= 

    wB97X-V Hyb-GGA Exchange-Correlation Functional

    N. Mardirossian and M. Head-Gordon, Phys. Chem. Chem. Phys. 16, 9904 (2014)

    Deriv               =              1
    GGA                 =           TRUE
    Meta                =          FALSE

    Exchange Hybrid     =           TRUE
    MP2 Hybrid          =          FALSE

   => Exchange-Correlation Functionals <=

    1.0000   wB97X-V range-separated functional

   => Exact (HF) Exchange <=

    0.8330            HF,LR [omega = 0.3000]
    0.1670               HF 

   => VV10 Non-Local Parameters <=

    VV10 B              =     6.0000E+00
    VV10 C              =     1.0000E-02

   => Molecular Quadrature <=

    Radial Scheme          =       TREUTLER
    Pruning Scheme         =           FLAT
    Nuclear Scheme         =       TREUTLER

    BS radius alpha        =              1
    Pruning alpha          =              1
    Radial Points          =             75
    Spherical Points       =            302
    Total Points           =          67950
    Total Blocks           =            569
    Max Points             =            256
    Max Functions          =             55

   => Loading Basis Set <=

    Name: (AUG-CC-PV(D+D)Z AUX)
    Role: JKFIT
    Keyword: DF_BASIS_SCF
    atoms 1 entry N          line   212 file /work/zw18965/.conda/envs/p4env/share/psi4/basis/aug-cc-pvdz-jkfit.gbs 
    atoms 2 entry H          line    70 file /work/zw18965/.conda/envs/p4env/share/psi4/basis/aug-cc-pvdz-jkfit.gbs 
    atoms 3 entry O          line   270 file /work/zw18965/.conda/envs/p4env/share/psi4/basis/aug-cc-pvdz-jkfit.gbs 

   => Loading Basis Set <=

    Name: AUG-CC-PV(D+D)Z
    Role: ORBITAL
    Keyword: BASIS
[...]
      30Ap     1.930480    31Ap     2.080413    32Ap     2.088559  
      13App    2.269506    33Ap     2.400025    14App    2.400491  
      34Ap     2.573797    35Ap     2.873692    36Ap     3.212338  
      15App    3.295305    37Ap     3.384219    16App    3.530085  
      38Ap     3.586917    39Ap     3.723583  

    Final Occupation by Irrep:
             Ap   App 
    DOCC [     7,    1 ]

  @DF-RKS Final Energy:  -130.45408267037715

   => Energetics <=

    Nuclear Repulsion Energy =             30.4513994153633263
    One-Electron Energy =                -237.8825317723879778
    Two-Electron Energy =                  88.0381334296752698
    DFT Exchange-Correlation Energy =     -11.1280410837068882
    Empirical Dispersion Energy =           0.0000000000000000
    VV10 Nonlocal Energy =                  0.0669573406791099
    Total Energy =                       -130.4540826703771472

Computation Completed


Properties will be evaluated at   0.000000,   0.000000,   0.000000 [a0]

Properties computed using the SCF density matrix

  Nuclear Dipole Moment: [e a0]
     X:     0.5569      Y:     1.1410      Z:     0.0000

  Electronic Dipole Moment: [e a0]
     X:    -0.3783      Y:    -0.4849      Z:     0.0000

  Dipole Moment: [e a0]
     X:     0.1787      Y:     0.6561      Z:     0.0000     Total:     0.6800

  Dipole Moment: [D]
     X:     0.4541      Y:     1.6675      Z:     0.0000     Total:     1.7283


*** tstop() called on bp1-compute00105.data.bp.acrc.priv at Tue Apr 27 17:55:25 2021
Module time:
	user time   =      70.62 seconds =       1.18 minutes
	system time =       1.97 seconds =       0.03 minutes
	total time  =          3 seconds =       0.05 minutes
Total time:
	user time   =    2614.44 seconds =      43.57 minutes
	system time =      79.58 seconds =       1.33 minutes
	total time  =        114 seconds =       1.90 minutes

  //>>>>>>>>>>>>>>>>>>>>>>>>>>>>>>>>>>>//
  //   Loading displacement 13 of 13   //
  //<<<<<<<<<<<<<<<<<<<<<<<<<<<<<<<<<<<//

*** tstart() called on bp1-compute00105.data.bp.acrc.priv
*** at Tue Apr 27 17:55:25 2021

   => Loading Basis Set <=

    Name: AUG-CC-PV(D+D)Z
    Role: ORBITAL
    Keyword: BASIS
    atoms 1 entry N          line   234 file /work/zw18965/.conda/envs/p4env/share/psi4/basis/aug-cc-pv_dpd_z.gbs 
    atoms 2 entry H          line    56 file /work/zw18965/.conda/envs/p4env/share/psi4/basis/aug-cc-pv_dpd_z.gbs 
    atoms 3 entry O          line   270 file /work/zw18965/.conda/envs/p4env/share/psi4/basis/aug-cc-pv_dpd_z.gbs 


         ---------------------------------------------------------
                                   SCF
               by Justin Turney, Rob Parrish, Andy Simmonett
                          and Daniel G. A. Smith
                              RKS Reference
                       24 Threads, 137329 MiB Core
         ---------------------------------------------------------

  ==> Geometry <==

    Molecular point group: cs
    Full point group: Cs

    Geometry (in Angstrom), charge = 0, multiplicity = 1:

       Center              X                  Y                   Z               Mass       
    ------------   -----------------  -----------------  -----------------  -----------------
         N            0.589370646862     0.156118975499     0.000000000000    14.003074004430
         H            0.592143967701     1.217859349590     0.000000000000     1.007825032230
         O           -0.553286998266    -0.213413749735     0.000000000000    15.994914619570

  Running in cs symmetry.

  Rotational constants: A =     18.54709  B =      1.43230  C =      1.32962 [cm^-1]
  Rotational constants: A = 556027.73706  B =  42939.37647  C =  39861.09386 [MHz]
  Nuclear repulsion =   30.474069289937944

  Charge       = 0
  Multiplicity = 1
  Electrons    = 16
  Nalpha       = 8
  Nbeta        = 8

  ==> Algorithm <==

  SCF Algorithm Type is DF.
  DIIS enabled.
  MOM disabled.
  Fractional occupation disabled.
  Guess Type is SAD.
  Energy threshold   = 1.00e-10
  Density threshold  = 1.00e-10
  Integral threshold = 0.00e+00

  ==> Primary Basis <==

  Basis Set: AUG-CC-PV(D+D)Z
    Blend: AUG-CC-PV(D+D)Z
    Number of shells: 23
    Number of basis function: 55
    Number of Cartesian functions: 59
    Spherical Harmonics?: true
    Max angular momentum: 2

  ==> DFT Potential <==

   => Composite Functional: WB97X-V <= 

    wB97X-V Hyb-GGA Exchange-Correlation Functional

    N. Mardirossian and M. Head-Gordon, Phys. Chem. Chem. Phys. 16, 9904 (2014)

    Deriv               =              1
    GGA                 =           TRUE
    Meta                =          FALSE

    Exchange Hybrid     =           TRUE
    MP2 Hybrid          =          FALSE

   => Exchange-Correlation Functionals <=

    1.0000   wB97X-V range-separated functional

   => Exact (HF) Exchange <=

    0.8330            HF,LR [omega = 0.3000]
    0.1670               HF 

   => VV10 Non-Local Parameters <=

    VV10 B              =     6.0000E+00
    VV10 C              =     1.0000E-02

   => Molecular Quadrature <=

    Radial Scheme          =       TREUTLER
    Pruning Scheme         =           FLAT
    Nuclear Scheme         =       TREUTLER

    BS radius alpha        =              1
    Pruning alpha          =              1
    Radial Points          =             75
    Spherical Points       =            302
    Total Points           =          67950
    Total Blocks           =            572
    Max Points             =            255
    Max Functions          =             55

   => Loading Basis Set <=

    Name: (AUG-CC-PV(D+D)Z AUX)
    Role: JKFIT
    Keyword: DF_BASIS_SCF
    atoms 1 entry N          line   212 file /work/zw18965/.conda/envs/p4env/share/psi4/basis/aug-cc-pvdz-jkfit.gbs 
    atoms 2 entry H          line    70 file /work/zw18965/.conda/envs/p4env/share/psi4/basis/aug-cc-pvdz-jkfit.gbs 
    atoms 3 entry O          line   270 file /work/zw18965/.conda/envs/p4env/share/psi4/basis/aug-cc-pvdz-jkfit.gbs 

  ==> Pre-Iterations <==

   -------------------------------------------------------
    Irrep   Nso     Nmo     Nalpha   Nbeta   Ndocc  Nsocc
   -------------------------------------------------------
     A'        39      39       0       0       0       0
     A"        16      16       0       0       0       0
   -------------------------------------------------------
    Total      55      55       8       8       8       0
   -------------------------------------------------------

  ==> Integral Setup <==

  ==> DiskDFJK: Density-Fitted J/K Matrices <==

    J tasked:                  Yes
    K tasked:                  Yes
    wK tasked:                 Yes
    Omega:               3.000E-01
    OpenMP threads:             24
    Integrals threads:          24
    Memory [MiB]:           102890
    Algorithm:                Core
    Integral Cache:           NONE
    Schwarz Cutoff:          1E-12
    Fitting Condition:       1E-10

   => Auxiliary Basis Set <=

  Basis Set: (AUG-CC-PV(D+D)Z AUX)
    Blend: AUG-CC-PVDZ-JKFIT
    Number of shells: 68
    Number of basis function: 204
    Number of Cartesian functions: 237
    Spherical Harmonics?: true
    Max angular momentum: 3

  Cached 100.0% of DFT collocation blocks in 0.104 [GiB].

  Minimum eigenvalue in the overlap matrix is 9.3169051529E-04.
  Using Symmetric Orthogonalization.

  SCF Guess: Superposition of Atomic Densities via on-the-fly atomic UHF.

  ==> Iterations <==

                           Total Energy        Delta E     RMS |[F,P]|

   @DF-RKS iter SAD:  -129.89766328099282   -1.29898e+02   0.00000e+00 
   @DF-RKS iter   1:  -130.41533277687498   -5.17669e-01   6.64718e-03 DIIS
   @DF-RKS iter   2:  -130.43344500646674   -1.81122e-02   5.66151e-03 DIIS
   @DF-RKS iter   3:  -130.45194467767527   -1.84997e-02   1.78787e-03 DIIS
   @DF-RKS iter   4:  -130.45395007796733   -2.00540e-03   3.65319e-04 DIIS
   @DF-RKS iter   5:  -130.45407200975828   -1.21932e-04   8.23981e-05 DIIS
   @DF-RKS iter   6:  -130.45408075909270   -8.74933e-06   1.09370e-05 DIIS
   @DF-RKS iter   7:  -130.45408116177495   -4.02682e-07   1.98341e-06 DIIS
   @DF-RKS iter   8:  -130.45408117515140   -1.33765e-08   4.04875e-07 DIIS
   @DF-RKS iter   9:  -130.45408117589801   -7.46610e-10   9.76305e-08 DIIS
   @DF-RKS iter  10:  -130.45408117593766   -3.96483e-11   2.15381e-08 DIIS
   @DF-RKS iter  11:  -130.45408117593999   -2.33058e-12   4.59353e-09 DIIS
   @DF-RKS iter  12:  -130.45408117593999    0.00000e+00   1.29023e-09 DIIS
   @DF-RKS iter  13:  -130.45408117593999    0.00000e+00   2.97197e-10 DIIS
   @DF-RKS iter  14:  -130.45408117593999    0.00000e+00   1.22475e-10 DIIS
   @DF-RKS iter  15:  -130.45408117594008   -8.52651e-14   2.74714e-11 DIIS
  Energy and wave function converged.


  ==> Post-Iterations <==

    Orbital Energies [Eh]
    ---------------------

    Doubly Occupied:                                                      

       1Ap   -19.323741     2Ap   -14.560830     3Ap    -1.321457  
       4Ap    -0.857071     5Ap    -0.656122     1App   -0.581139  
       6Ap    -0.574984     7Ap    -0.357120  

    Virtual:                                                              

       2App   -0.012853     8Ap     0.036084     9Ap     0.106972  
      10Ap     0.140599     3App    0.144362    11Ap     0.176762  
      12Ap     0.209338    13Ap     0.235632     4App    0.237615  
      14Ap     0.266859     5App    0.345206    15Ap     0.347155  
      16Ap     0.430629    17Ap     0.490993    18Ap     0.537850  
      19Ap     0.639905     6App    0.693709    20Ap     0.752457  
       7App    0.766346    21Ap     0.848126    22Ap     0.883155  
      23Ap     0.939767     8App    0.968770     9App    1.036068  
      24Ap     1.089329    25Ap     1.111120    10App    1.111621  
      26Ap     1.215592    27Ap     1.354435    11App    1.506751  
      28Ap     1.591063    12App    1.753945    29Ap     1.779284  
      30Ap     1.931187    31Ap     2.082042    32Ap     2.089110  
      13App    2.269800    14App    2.400663    33Ap     2.402010  
      34Ap     2.572208    35Ap     2.874833    36Ap     3.212156  
      15App    3.295171    37Ap     3.385396    16App    3.530489  
      38Ap     3.586635    39Ap     3.724129  

    Final Occupation by Irrep:
             Ap   App 
    DOCC [     7,    1 ]

  @DF-RKS Final Energy:  -130.45408117594008

   => Energetics <=

    Nuclear Repulsion Energy =             30.4740692899379439
    One-Electron Energy =                -237.9258620517112774
    Two-Electron Energy =                  88.0595978092394063
    DFT Exchange-Correlation Energy =     -11.1288424898349625
    Empirical Dispersion Energy =           0.0000000000000000
    VV10 Nonlocal Energy =                  0.0669562664288257
    Total Energy =                       -130.4540811759400469

Computation Completed


Properties will be evaluated at   0.000000,   0.000000,   0.000000 [a0]

Properties computed using the SCF density matrix

  Nuclear Dipole Moment: [e a0]
     X:     0.5507      Y:     1.1402      Z:     0.0000

  Electronic Dipole Moment: [e a0]
     X:    -0.3748      Y:    -0.4855      Z:     0.0000

  Dipole Moment: [e a0]
     X:     0.1759      Y:     0.6547      Z:     0.0000     Total:     0.6780

  Dipole Moment: [D]
     X:     0.4472      Y:     1.6642      Z:     0.0000     Total:     1.7232


*** tstop() called on bp1-compute00105.data.bp.acrc.priv at Tue Apr 27 17:55:28 2021
Module time:
	user time   =      70.31 seconds =       1.17 minutes
	system time =       2.01 seconds =       0.03 minutes
	total time  =          3 seconds =       0.05 minutes
Total time:
	user time   =    2684.88 seconds =      44.75 minutes
	system time =      81.60 seconds =       1.36 minutes
	total time  =        117 seconds =       1.95 minutes

         ----------------------------------------------------------
                                   FINDIF
                     R. A. King and Jonathon Misiewicz
         ---------------------------------------------------------

  Computing second-derivative from energies using projected, 
  symmetry-adapted, cartesian coordinates.

  13 energies passed in, including the reference geometry.
    Using 3-point formula.
    Energy without displacement: -130.4540843657
    Check energies below for precision!
    0: -1        :      -130.4540830373
    0: 1         :      -130.4540828939
    1: -1        :      -130.4540812942
    1: 1         :      -130.4540821909
    2: -1        :      -130.4540812940
    2: 1         :      -130.4540818914
    0: 1, 1: 1   :      -130.4540808540
    0: -1, 1: -1 :      -130.4540801025
    0: 1, 2: 1   :      -130.4540799865
    0: -1, 2: -1 :      -130.4540795253
    1: 1, 2: 1   :      -130.4540826704
    1: -1, 2: -1 :      -130.4540811759

-------------------------------------------------------------


  ==> Harmonic Vibrational Analysis <==

  non-mass-weighted Hessian:       Symmetric? True   Hermitian? True   Lin Dep Dim?  6 (0)
  projection of translations (True) and rotations (True) removed 6 degrees of freedom (6)
  total projector:                 Symmetric? True   Hermitian? True   Lin Dep Dim?  6 (6)
  mass-weighted Hessian:           Symmetric? True   Hermitian? True   Lin Dep Dim?  6 (0)
  pre-proj  low-frequency mode:    0.0000i [cm^-1]
  pre-proj  low-frequency mode:    0.0000i [cm^-1]
  pre-proj  low-frequency mode:    0.0000  [cm^-1]
  pre-proj  low-frequency mode:    0.0000  [cm^-1]
  pre-proj  low-frequency mode:    0.0000  [cm^-1]
  pre-proj  low-frequency mode:    0.0000  [cm^-1]
  pre-proj  all modes:['0.0001i' '0.0000i' '0.0000' '0.0000' '0.0000' '0.0000' '1573.7248'
 '1740.3548' '2976.7720']
  projected mass-weighted Hessian: Symmetric? True   Hermitian? True   Lin Dep Dim?  6 (6)
  post-proj low-frequency mode:    0.0000i [cm^-1] (TR)
  post-proj low-frequency mode:    0.0000  [cm^-1] (TR)
  post-proj low-frequency mode:    0.0000  [cm^-1] (TR)
  post-proj low-frequency mode:    0.0000  [cm^-1] (TR)
  post-proj low-frequency mode:    0.0000  [cm^-1] (TR)
  post-proj low-frequency mode:    0.0000  [cm^-1] (TR)
  post-proj  all modes:['0.0000i' '0.0000' '0.0000' '0.0000' '0.0000' '0.0000' '1573.7248'
 '1740.3548' '2976.7720']

  Vibration                       7                   8                   9           
  Freq [cm^-1]                1573.7248           1740.3548           2976.7720       
  Irrep                           Ap                  Ap                  Ap          
  Reduced mass [u]              1.1952             11.0684              1.0754        
  Force const [mDyne/A]         1.7440             19.7520              5.6146        
  Turning point v=0 [a0]        0.2530              0.0791              0.1939        
  RMS dev v=0 [a0 u^1/2]        0.1956              0.1860              0.1422        
  Char temp [K]               2264.2397           2503.9830           4282.9121       
  ----------------------------------------------------------------------------------
      1   N               -0.09  0.05  0.00    0.58  0.23 -0.00    0.01 -0.07  0.00   
      2   H                0.99  0.09 -0.00    0.53  0.02 -0.00   -0.02  1.00  0.00   
      3   O                0.02 -0.05 -0.00   -0.54 -0.21 -0.00   -0.01 -0.00  0.00   

  ==> Thermochemistry Components <==

  Entropy, S
    Electronic S            0.000 [cal/(mol K)]        0.000 [J/(mol K)]       0.00000000 [mEh/K] (multiplicity = 1)
    Translational S        36.227 [cal/(mol K)]      151.576 [J/(mol K)]       0.05773217 [mEh/K] (mol. weight = 31.0058 [u], P = 101325.00 [Pa])
    Rotational S           16.475 [cal/(mol K)]       68.932 [J/(mol K)]       0.02625468 [mEh/K] (symmetry no. = 1)
    Vibrational S           0.013 [cal/(mol K)]        0.054 [J/(mol K)]       0.00002044 [mEh/K]
  Total S                  52.715 [cal/(mol K)]      220.561 [J/(mol K)]       0.08400728 [mEh/K]
  Correction S              0.000 [cal/(mol K)]        0.000 [J/(mol K)]       0.00000000 [mEh/K]

  Constant volume heat capacity, Cv
    Electronic Cv           0.000 [cal/(mol K)]        0.000 [J/(mol K)]       0.00000000 [mEh/K]
    Translational Cv        2.981 [cal/(mol K)]       12.472 [J/(mol K)]       0.00475022 [mEh/K]
    Rotational Cv           2.981 [cal/(mol K)]       12.472 [J/(mol K)]       0.00475022 [mEh/K]
    Vibrational Cv          0.090 [cal/(mol K)]        0.375 [J/(mol K)]       0.00014273 [mEh/K]
  Total Cv                  6.051 [cal/(mol K)]       25.318 [J/(mol K)]       0.00964316 [mEh/K]
  Correction Cv             0.000 [cal/(mol K)]        0.000 [J/(mol K)]       0.00000000 [mEh/K]

  Constant pressure heat capacity, Cp
    Electronic Cp           0.000 [cal/(mol K)]        0.000 [J/(mol K)]       0.00000000 [mEh/K]
    Translational Cp        4.968 [cal/(mol K)]       20.786 [J/(mol K)]       0.00791703 [mEh/K]
    Rotational Cp           2.981 [cal/(mol K)]       12.472 [J/(mol K)]       0.00475022 [mEh/K]
    Vibrational Cp          0.090 [cal/(mol K)]        0.375 [J/(mol K)]       0.00014273 [mEh/K]
  Total Cp                  8.038 [cal/(mol K)]       33.633 [J/(mol K)]       0.01280997 [mEh/K]
  Correction Cp             0.000 [cal/(mol K)]        0.000 [J/(mol K)]       0.00000000 [mEh/K]

  ==> Thermochemistry Energy Analysis <==

  Raw electronic energy, E0
  Total E0, Electronic energy at well bottom at 0 [K]                 -130.45408437 [Eh]

  Zero-point energy, ZPE_vib = Sum_i nu_i / 2
    Electronic ZPE          0.000 [kcal/mol]        0.000 [kJ/mol]       0.00000000 [Eh]
    Translational ZPE       0.000 [kcal/mol]        0.000 [kJ/mol]       0.00000000 [Eh]
    Rotational ZPE          0.000 [kcal/mol]        0.000 [kJ/mol]       0.00000000 [Eh]
    Vibrational ZPE         8.993 [kcal/mol]       37.628 [kJ/mol]       0.01433161 [Eh]        3145.426 [cm^-1]
  Correction ZPE            8.993 [kcal/mol]       37.628 [kJ/mol]       0.01433161 [Eh]        3145.426 [cm^-1]
  Total ZPE, Electronic energy at 0 [K]                               -130.43975275 [Eh]

  Thermal Energy, E (includes ZPE)
    Electronic E            0.000 [kcal/mol]        0.000 [kJ/mol]       0.00000000 [Eh]
    Translational E         0.889 [kcal/mol]        3.718 [kJ/mol]       0.00141628 [Eh]
    Rotational E            0.889 [kcal/mol]        3.718 [kJ/mol]       0.00141628 [Eh]
    Vibrational E           8.997 [kcal/mol]       37.642 [kJ/mol]       0.01433702 [Eh]
  Correction E             10.774 [kcal/mol]       45.079 [kJ/mol]       0.01716957 [Eh]
  Total E, Electronic energy at  298.15 [K]                           -130.43691479 [Eh]

  Enthalpy, H_trans = E_trans + k_B * T
    Electronic H            0.000 [kcal/mol]        0.000 [kJ/mol]       0.00000000 [Eh]
    Translational H         1.481 [kcal/mol]        6.197 [kJ/mol]       0.00236046 [Eh]
    Rotational H            0.889 [kcal/mol]        3.718 [kJ/mol]       0.00141628 [Eh]
    Vibrational H           8.997 [kcal/mol]       37.642 [kJ/mol]       0.01433702 [Eh]
  Correction H             11.367 [kcal/mol]       47.558 [kJ/mol]       0.01811376 [Eh]
  Total H, Enthalpy at  298.15 [K]                                    -130.43597061 [Eh]

  Gibbs free energy, G = H - T * S
    Electronic G            0.000 [kcal/mol]        0.000 [kJ/mol]       0.00000000 [Eh]
    Translational G        -9.320 [kcal/mol]      -38.995 [kJ/mol]      -0.01485238 [Eh]
    Rotational G           -4.023 [kcal/mol]      -16.834 [kJ/mol]      -0.00641156 [Eh]
    Vibrational G           8.993 [kcal/mol]       37.626 [kJ/mol]       0.01433093 [Eh]
  Correction G             -4.351 [kcal/mol]      -18.203 [kJ/mol]      -0.00693301 [Eh]
  Total G, Free enthalpy at  298.15 [K]                               -130.46101738 [Eh]

    Psi4 stopped on: Tuesday, 27 April 2021 05:55PM
    Psi4 wall time for execution: 0:01:57.16

*** Psi4 exiting successfully. Buy a developer a beer!
