
    -----------------------------------------------------------------------
          Psi4: An Open-Source Ab Initio Electronic Structure Package
                               Psi4 1.3.2 release

                         Git: Rev {HEAD} ecbda83 


    R. M. Parrish, L. A. Burns, D. G. A. Smith, A. C. Simmonett,
    A. E. DePrince III, E. G. Hohenstein, U. Bozkaya, A. Yu. Sokolov,
    R. Di Remigio, R. M. Richard, J. F. Gonthier, A. M. James,
    H. R. McAlexander, A. Kumar, M. Saitow, X. Wang, B. P. Pritchard,
    P. Verma, H. F. Schaefer III, K. Patkowski, R. A. King, E. F. Valeev,
    F. A. Evangelista, J. M. Turney, T. D. Crawford, and C. D. Sherrill,
    J. Chem. Theory Comput. 13(7) pp 3185--3197 (2017).
    (doi: 10.1021/acs.jctc.7b00174)


                         Additional Contributions by
    P. Kraus, H. Kruse, M. H. Lechner, M. C. Schieber, R. A. Shaw,
    A. Alenaizan, R. Galvelis, Z. L. Glick, S. Lehtola, and J. P. Misiewicz

    -----------------------------------------------------------------------


    Psi4 started on: Tuesday, 27 April 2021 05:53PM

    Process ID: 189353
    Host:       bp1-compute00107.data.bp.acrc.priv
    PSIDATADIR: /work/zw18965/.conda/envs/p4env/share/psi4
    Memory:     500.0 MiB
    Threads:    24
    
  ==> Input File <==

--------------------------------------------------------------------------
memory 144 GB

molecule {
0 1
N 0.0000000000 0.0000000000 0.0000000000
H 0.0000000000 0.0000000000 1.0124000000
H 0.9722998620 0.0000000000 -0.2821112163
H -0.3756003142 0.8968229622 -0.2821112163
}

set dynamic_level 1
set basis aug-cc-pV(D+d)Z
 
optimize("wB97X-V")
frequencies("wB97X-V")
--------------------------------------------------------------------------

  Memory set to 134.110 GiB by Python driver.
gradient() will perform gradient computation by finite difference of analytic energies.

         ----------------------------------------------------------
                                   FINDIF
                     R. A. King and Jonathon Misiewicz
         ---------------------------------------------------------

  Using finite-differences of energies to determine gradients.
    Generating geometries for use with 3-point formula.
    Displacement size will be 5.00e-03.
    Number of atoms is 4.
    Number of symmetric SALCs is 4.
    Translations projected? 1. Rotations projected? 1.
    Number of geometries (including reference) is 9.

  //>>>>>>>>>>>>>>>>>>>>>>>>>>>>>>>>>>>//
  //    Loading displacement 1 of 9    //
  //<<<<<<<<<<<<<<<<<<<<<<<<<<<<<<<<<<<//

*** tstart() called on bp1-compute00107.data.bp.acrc.priv
*** at Tue Apr 27 17:53:13 2021

   => Loading Basis Set <=

    Name: AUG-CC-PV(D+D)Z
    Role: ORBITAL
    Keyword: BASIS
    atoms 1   entry N          line   234 file /work/zw18965/.conda/envs/p4env/share/psi4/basis/aug-cc-pv_dpd_z.gbs 
    atoms 2-4 entry H          line    56 file /work/zw18965/.conda/envs/p4env/share/psi4/basis/aug-cc-pv_dpd_z.gbs 


         ---------------------------------------------------------
                                   SCF
               by Justin Turney, Rob Parrish, Andy Simmonett
                          and Daniel G. A. Smith
                              RKS Reference
                       24 Threads, 137329 MiB Core
         ---------------------------------------------------------

  ==> Geometry <==

    Molecular point group: cs
    Full point group: C3v

    Geometry (in Angstrom), charge = 0, multiplicity = 1:

       Center              X                  Y                   Z               Mass       
    ------------   -----------------  -----------------  -----------------  -----------------
         N           -0.044172539916    -0.053084193715     0.000000000000    14.003074004430
         H            0.563834188921    -0.053084193715     0.809494643400     1.007825032230
         H            0.563834188921    -0.053084193715    -0.809494643400     1.007825032230
         H           -0.513919636117     0.843738768485     0.000000000000     1.007825032230

  Running in cs symmetry.

  Rotational constants: A =      9.93436  B =      9.93436  C =      6.38151 [cm^-1]
  Rotational constants: A = 297824.55791  B = 297824.55789  C = 191312.83542 [MHz]
  Nuclear repulsion =   11.957181014327382

  Charge       = 0
  Multiplicity = 1
  Electrons    = 10
  Nalpha       = 5
  Nbeta        = 5

  ==> Algorithm <==

  SCF Algorithm Type is DF.
  DIIS enabled.
  MOM disabled.
  Fractional occupation disabled.
  Guess Type is SAD.
  Energy threshold   = 1.00e-08
  Density threshold  = 1.00e-08
  Integral threshold = 0.00e+00

  ==> Primary Basis <==

  Basis Set: AUG-CC-PV(D+D)Z
    Blend: AUG-CC-PV(D+D)Z
    Number of shells: 24
    Number of basis function: 50
    Number of Cartesian functions: 52
    Spherical Harmonics?: true
    Max angular momentum: 2

  ==> DFT Potential <==

   => Composite Functional: WB97X-V <= 

    wB97X-V Hyb-GGA Exchange-Correlation Functional

    N. Mardirossian and M. Head-Gordon, Phys. Chem. Chem. Phys. 16, 9904 (2014)

    Deriv               =              1
    GGA                 =           TRUE
    Meta                =          FALSE

    Exchange Hybrid     =           TRUE
    MP2 Hybrid          =          FALSE

   => Exchange-Correlation Functionals <=

    1.0000   wB97X-V range-separated functional

   => Exact (HF) Exchange <=

    0.8330            HF,LR [omega = 0.3000]
    0.1670               HF 

   => VV10 Non-Local Parameters <=

    VV10 B              =     6.0000E+00
    VV10 C              =     1.0000E-02

   => Molecular Quadrature <=

    Radial Scheme          =       TREUTLER
    Pruning Scheme         =           FLAT
    Nuclear Scheme         =       TREUTLER

    BS radius alpha        =              1
    Pruning alpha          =              1
    Radial Points          =             75
    Spherical Points       =            302
    Total Points           =          90600
    Total Blocks           =            749
    Max Points             =            256
    Max Functions          =             50

   => Loading Basis Set <=

    Name: (AUG-CC-PV(D+D)Z AUX)
    Role: JKFIT
    Keyword: DF_BASIS_SCF
    atoms 1   entry N          line   212 file /work/zw18965/.conda/envs/p4env/share/psi4/basis/aug-cc-pvdz-jkfit.gbs 
    atoms 2-4 entry H          line    70 file /work/zw18965/.conda/envs/p4env/share/psi4/basis/aug-cc-pvdz-jkfit.gbs 

  ==> Pre-Iterations <==

   -------------------------------------------------------
    Irrep   Nso     Nmo     Nalpha   Nbeta   Ndocc  Nsocc
   -------------------------------------------------------
     A'        32      32       0       0       0       0
     A"        18      18       0       0       0       0
   -------------------------------------------------------
    Total      50      50       5       5       5       0
   -------------------------------------------------------

  ==> Integral Setup <==

  ==> DiskDFJK: Density-Fitted J/K Matrices <==

    J tasked:                  Yes
    K tasked:                  Yes
    wK tasked:                 Yes
    Omega:               3.000E-01
    OpenMP threads:             24
    Integrals threads:          24
    Memory [MiB]:           102864
    Algorithm:                Core
    Integral Cache:           NONE
    Schwarz Cutoff:          1E-12
    Fitting Condition:       1E-10

   => Auxiliary Basis Set <=

  Basis Set: (AUG-CC-PV(D+D)Z AUX)
    Blend: AUG-CC-PVDZ-JKFIT
    Number of shells: 64
    Number of basis function: 182
    Number of Cartesian functions: 206
    Spherical Harmonics?: true
    Max angular momentum: 3

  Cached 100.0% of DFT collocation blocks in 0.129 [GiB].

  Minimum eigenvalue in the overlap matrix is 2.1175307144E-03.
  Using Symmetric Orthogonalization.

  SCF Guess: Superposition of Atomic Densities via on-the-fly atomic UHF.

  ==> Iterations <==

                           Total Energy        Delta E     RMS |[F,P]|

   @DF-RKS iter SAD:   -56.03643659851751   -5.60364e+01   0.00000e+00 
   @DF-RKS iter   1:   -56.38011109401244   -3.43674e-01   1.68172e-02 DIIS
   @DF-RKS iter   2:   -56.40893414158086   -2.88230e-02   1.52764e-02 DIIS
   @DF-RKS iter   3:   -56.54578285415865   -1.36849e-01   4.88241e-04 DIIS
   @DF-RKS iter   4:   -56.54609718150235   -3.14327e-04   1.12568e-04 DIIS
   @DF-RKS iter   5:   -56.54611217367612   -1.49922e-05   1.55511e-05 DIIS
   @DF-RKS iter   6:   -56.54611267555641   -5.01880e-07   4.46244e-06 DIIS
   @DF-RKS iter   7:   -56.54611272785203   -5.22956e-08   8.29801e-07 DIIS
   @DF-RKS iter   8:   -56.54611273087545   -3.02342e-09   1.58412e-07 DIIS
   @DF-RKS iter   9:   -56.54611273098331   -1.07860e-10   1.70718e-08 DIIS
   @DF-RKS iter  10:   -56.54611273098406   -7.53175e-13   1.82767e-09 DIIS
  Energy and wave function converged.


  ==> Post-Iterations <==

    Orbital Energies [Eh]
    ---------------------

    Doubly Occupied:                                                      

       1Ap   -14.407206     2Ap    -0.985779     3Ap    -0.571253  
       1App   -0.571253     4Ap    -0.379729  

    Virtual:                                                              

       5Ap     0.034233     6Ap     0.062584     2App    0.062584  
       7Ap     0.144416     8Ap     0.180889     9Ap     0.196581  
       3App    0.196583    10Ap     0.255881     4App    0.255881  
      11Ap     0.312898    12Ap     0.320247     5App    0.320247  
      13Ap     0.435604     6App    0.506622    14Ap     0.507080  
       7App    0.507081    15Ap     0.574151    16Ap     0.610035  
       8App    0.610037    17Ap     0.636691     9App    0.636692  
      18Ap     0.773443    19Ap     0.848416    10App    0.848417  
      20Ap     1.016454    21Ap     1.092131    11App    1.092132  
      22Ap     1.214913    23Ap     1.667549    12App    1.667549  
      13App    1.796410    24Ap     1.918057    14App    1.918059  
      25Ap     1.954156    26Ap     2.162610    15App    2.162612  
      27Ap     2.208445    28Ap     2.212741    16App    2.212743  
      29Ap     2.463210    30Ap     2.692482    17App    2.692483  
      31Ap     2.886091    32Ap     3.276447    18App    3.276448  

    Final Occupation by Irrep:
             Ap   App 
    DOCC [     4,    1 ]

  @DF-RKS Final Energy:   -56.54611273098406

   => Energetics <=

    Nuclear Repulsion Energy =             11.9571810143273822
    One-Electron Energy =                 -99.5852676177798344
    Two-Electron Energy =                  36.4988744049674025
    DFT Exchange-Correlation Energy =      -5.4587499910241855
    Empirical Dispersion Energy =           0.0000000000000000
    VV10 Nonlocal Energy =                  0.0418494585251803
    Total Energy =                        -56.5461127309840634

Computation Completed


Properties will be evaluated at   0.000000,   0.000000,   0.000000 [a0]

Properties computed using the SCF density matrix

  Nuclear Dipole Moment: [e a0]
     X:     0.5755      Y:     0.6916      Z:     0.0000

  Electronic Dipole Moment: [e a0]
     X:    -0.1754      Y:    -0.2108      Z:     0.0000

  Dipole Moment: [e a0]
     X:     0.4001      Y:     0.4808      Z:     0.0000     Total:     0.6255

  Dipole Moment: [D]
     X:     1.0169      Y:     1.2220      Z:     0.0000     Total:     1.5898


*** tstop() called on bp1-compute00107.data.bp.acrc.priv at Tue Apr 27 17:53:16 2021
Module time:
	user time   =      71.67 seconds =       1.19 minutes
	system time =       2.81 seconds =       0.05 minutes
	total time  =          3 seconds =       0.05 minutes
Total time:
	user time   =      71.67 seconds =       1.19 minutes
	system time =       2.81 seconds =       0.05 minutes
	total time  =          3 seconds =       0.05 minutes

  //>>>>>>>>>>>>>>>>>>>>>>>>>>>>>>>>>>>//
  //    Loading displacement 2 of 9    //
  //<<<<<<<<<<<<<<<<<<<<<<<<<<<<<<<<<<<//

*** tstart() called on bp1-compute00107.data.bp.acrc.priv
*** at Tue Apr 27 17:53:16 2021

   => Loading Basis Set <=

    Name: AUG-CC-PV(D+D)Z
    Role: ORBITAL
    Keyword: BASIS
    atoms 1   entry N          line   234 file /work/zw18965/.conda/envs/p4env/share/psi4/basis/aug-cc-pv_dpd_z.gbs 
    atoms 2-4 entry H          line    56 file /work/zw18965/.conda/envs/p4env/share/psi4/basis/aug-cc-pv_dpd_z.gbs 


         ---------------------------------------------------------
                                   SCF
               by Justin Turney, Rob Parrish, Andy Simmonett
                          and Daniel G. A. Smith
                              RKS Reference
                       24 Threads, 137329 MiB Core
         ---------------------------------------------------------

  ==> Geometry <==

    Molecular point group: cs
    Full point group: Cs

    Geometry (in Angstrom), charge = 0, multiplicity = 1:

       Center              X                  Y                   Z               Mass       
    ------------   -----------------  -----------------  -----------------  -----------------
         N           -0.044450300625    -0.053119022022     0.000000000000    14.003074004430
         H            0.565356326971    -0.052639632675     0.809494643400     1.007825032230
         H            0.565356326971    -0.052639632675    -0.809494643400     1.007825032230
         H           -0.513104607633     0.843333563103     0.000000000000     1.007825032230

  Running in cs symmetry.

  Rotational constants: A =      9.92134  B =      9.92130  C =      6.38149 [cm^-1]
  Rotational constants: A = 297434.35468  B = 297433.04179  C = 191312.29224 [MHz]
  Nuclear repulsion =   11.952387408110855

  Charge       = 0
  Multiplicity = 1
  Electrons    = 10
  Nalpha       = 5
  Nbeta        = 5

  ==> Algorithm <==

  SCF Algorithm Type is DF.
  DIIS enabled.
  MOM disabled.
  Fractional occupation disabled.
  Guess Type is SAD.
  Energy threshold   = 1.00e-08
  Density threshold  = 1.00e-08
  Integral threshold = 0.00e+00

  ==> Primary Basis <==

  Basis Set: AUG-CC-PV(D+D)Z
    Blend: AUG-CC-PV(D+D)Z
    Number of shells: 24
    Number of basis function: 50
    Number of Cartesian functions: 52
    Spherical Harmonics?: true
    Max angular momentum: 2

  ==> DFT Potential <==

   => Composite Functional: WB97X-V <= 

    wB97X-V Hyb-GGA Exchange-Correlation Functional

    N. Mardirossian and M. Head-Gordon, Phys. Chem. Chem. Phys. 16, 9904 (2014)

    Deriv               =              1
    GGA                 =           TRUE
    Meta                =          FALSE

    Exchange Hybrid     =           TRUE
    MP2 Hybrid          =          FALSE

   => Exchange-Correlation Functionals <=

    1.0000   wB97X-V range-separated functional

   => Exact (HF) Exchange <=

    0.8330            HF,LR [omega = 0.3000]
    0.1670               HF 

   => VV10 Non-Local Parameters <=

    VV10 B              =     6.0000E+00
    VV10 C              =     1.0000E-02

   => Molecular Quadrature <=

    Radial Scheme          =       TREUTLER
    Pruning Scheme         =           FLAT
    Nuclear Scheme         =       TREUTLER

    BS radius alpha        =              1
    Pruning alpha          =              1
    Radial Points          =             75
    Spherical Points       =            302
    Total Points           =          90600
    Total Blocks           =            747
    Max Points             =            256
    Max Functions          =             50

   => Loading Basis Set <=

    Name: (AUG-CC-PV(D+D)Z AUX)
    Role: JKFIT
    Keyword: DF_BASIS_SCF
    atoms 1   entry N          line   212 file /work/zw18965/.conda/envs/p4env/share/psi4/basis/aug-cc-pvdz-jkfit.gbs 
    atoms 2-4 entry H          line    70 file /work/zw18965/.conda/envs/p4env/share/psi4/basis/aug-cc-pvdz-jkfit.gbs 

  ==> Pre-Iterations <==

   -------------------------------------------------------
    Irrep   Nso     Nmo     Nalpha   Nbeta   Ndocc  Nsocc
   -------------------------------------------------------
     A'        32      32       0       0       0       0
     A"        18      18       0       0       0       0
   -------------------------------------------------------
    Total      50      50       5       5       5       0
   -------------------------------------------------------

  ==> Integral Setup <==

  ==> DiskDFJK: Density-Fitted J/K Matrices <==

    J tasked:                  Yes
    K tasked:                  Yes
    wK tasked:                 Yes
    Omega:               3.000E-01
    OpenMP threads:             24
    Integrals threads:          24
    Memory [MiB]:           102864
    Algorithm:                Core
    Integral Cache:           NONE
    Schwarz Cutoff:          1E-12
    Fitting Condition:       1E-10

   => Auxiliary Basis Set <=

  Basis Set: (AUG-CC-PV(D+D)Z AUX)
    Blend: AUG-CC-PVDZ-JKFIT
    Number of shells: 64
    Number of basis function: 182
    Number of Cartesian functions: 206
    Spherical Harmonics?: true
    Max angular momentum: 3

  Cached 100.0% of DFT collocation blocks in 0.130 [GiB].

  Minimum eigenvalue in the overlap matrix is 2.1152520982E-03.
  Using Symmetric Orthogonalization.

  SCF Guess: Superposition of Atomic Densities via on-the-fly atomic UHF.

  ==> Iterations <==

                           Total Energy        Delta E     RMS |[F,P]|

   @DF-RKS iter SAD:   -56.03609684280600   -5.60361e+01   0.00000e+00 
   @DF-RKS iter   1:   -56.38015578409336   -3.44059e-01   1.68122e-02 DIIS
   @DF-RKS iter   2:   -56.40886287246816   -2.87071e-02   1.52786e-02 DIIS
   @DF-RKS iter   3:   -56.54578733461188   -1.36924e-01   4.88242e-04 DIIS
   @DF-RKS iter   4:   -56.54610181949100   -3.14485e-04   1.12670e-04 DIIS
   @DF-RKS iter   5:   -56.54611683802102   -1.50185e-05   1.55979e-05 DIIS
   @DF-RKS iter   6:   -56.54611734191310   -5.03892e-07   4.46505e-06 DIIS
   @DF-RKS iter   7:   -56.54611739428960   -5.23765e-08   8.29915e-07 DIIS
   @DF-RKS iter   8:   -56.54611739731295   -3.02335e-09   1.58523e-07 DIIS
   @DF-RKS iter   9:   -56.54611739742086   -1.07910e-10   1.71006e-08 DIIS
   @DF-RKS iter  10:   -56.54611739742161   -7.53175e-13   1.89070e-09 DIIS
  Energy and wave function converged.


  ==> Post-Iterations <==

    Orbital Energies [Eh]
    ---------------------

    Doubly Occupied:                                                      

       1Ap   -14.407377     2Ap    -0.985705     3Ap    -0.571395  
       1App   -0.570658     4Ap    -0.379886  

    Virtual:                                                              

       5Ap     0.034211     6Ap     0.062576     2App    0.062599  
       7Ap     0.144388     8Ap     0.180867     3App    0.196589  
       9Ap     0.196606     4App    0.255515    10Ap     0.255993  
      11Ap     0.312926    12Ap     0.320080     5App    0.320239  
      13Ap     0.435338     6App    0.506608    14Ap     0.507080  
       7App    0.507122    15Ap     0.574079     8App    0.609930  
      16Ap     0.610130     9App    0.636226    17Ap     0.636789  
      18Ap     0.773719    19Ap     0.848333    10App    0.848438  
      20Ap     1.016251    11App    1.091362    21Ap     1.091988  
      22Ap     1.214658    23Ap     1.667238    12App    1.667306  
      13App    1.796497    24Ap     1.917576    14App    1.917611  
      25Ap     1.954585    26Ap     2.161784    15App    2.161997  
      27Ap     2.208291    16App    2.211088    28Ap     2.213813  
      29Ap     2.464140    30Ap     2.691727    17App    2.692038  
      31Ap     2.884385    18App    3.274896    32Ap     3.277159  

    Final Occupation by Irrep:
             Ap   App 
    DOCC [     4,    1 ]

  @DF-RKS Final Energy:   -56.54611739742161

   => Energetics <=

    Nuclear Repulsion Energy =             11.9523874081108552
    One-Electron Energy =                 -99.5763486847249339
    Two-Electron Energy =                  36.4943355348180347
    DFT Exchange-Correlation Energy =      -5.4583405151909616
    Empirical Dispersion Energy =           0.0000000000000000
    VV10 Nonlocal Energy =                  0.0418488595653979
    Total Energy =                        -56.5461173974216109

Computation Completed


Properties will be evaluated at   0.000000,   0.000000,   0.000000 [a0]

Properties computed using the SCF density matrix

  Nuclear Dipole Moment: [e a0]
     X:     0.5791      Y:     0.6921      Z:     0.0000

  Electronic Dipole Moment: [e a0]
     X:    -0.1780      Y:    -0.2107      Z:     0.0000

  Dipole Moment: [e a0]
     X:     0.4012      Y:     0.4814      Z:     0.0000     Total:     0.6266

  Dipole Moment: [D]
     X:     1.0196      Y:     1.2235      Z:     0.0000     Total:     1.5927


*** tstop() called on bp1-compute00107.data.bp.acrc.priv at Tue Apr 27 17:53:19 2021
Module time:
	user time   =      70.63 seconds =       1.18 minutes
	system time =       2.28 seconds =       0.04 minutes
	total time  =          3 seconds =       0.05 minutes
Total time:
	user time   =     142.44 seconds =       2.37 minutes
	system time =       5.09 seconds =       0.08 minutes
	total time  =          6 seconds =       0.10 minutes

  //>>>>>>>>>>>>>>>>>>>>>>>>>>>>>>>>>>>//
  //    Loading displacement 3 of 9    //
  //<<<<<<<<<<<<<<<<<<<<<<<<<<<<<<<<<<<//

*** tstart() called on bp1-compute00107.data.bp.acrc.priv
*** at Tue Apr 27 17:53:19 2021

   => Loading Basis Set <=

    Name: AUG-CC-PV(D+D)Z
    Role: ORBITAL
    Keyword: BASIS
    atoms 1   entry N          line   234 file /work/zw18965/.conda/envs/p4env/share/psi4/basis/aug-cc-pv_dpd_z.gbs 
    atoms 2-4 entry H          line    56 file /work/zw18965/.conda/envs/p4env/share/psi4/basis/aug-cc-pv_dpd_z.gbs 


         ---------------------------------------------------------
                                   SCF
               by Justin Turney, Rob Parrish, Andy Simmonett
                          and Daniel G. A. Smith
                              RKS Reference
                       24 Threads, 137329 MiB Core
         ---------------------------------------------------------

  ==> Geometry <==

    Molecular point group: cs
    Full point group: Cs

    Geometry (in Angstrom), charge = 0, multiplicity = 1:

       Center              X                  Y                   Z               Mass       
    ------------   -----------------  -----------------  -----------------  -----------------
         N           -0.043894779207    -0.053049365408     0.000000000000    14.003074004430
         H            0.562312050870    -0.053528754755     0.809494643400     1.007825032230
         H            0.562312050870    -0.053528754755    -0.809494643400     1.007825032230
         H           -0.514734664601     0.844143973867     0.000000000000     1.007825032230

  Running in cs symmetry.

  Rotational constants: A =      9.94741  B =      9.94737  C =      6.38149 [cm^-1]
  Rotational constants: A = 298215.95345  B = 298214.64224  C = 191312.29578 [MHz]
  Nuclear repulsion =   11.961977288575349

  Charge       = 0
  Multiplicity = 1
  Electrons    = 10
  Nalpha       = 5
  Nbeta        = 5

  ==> Algorithm <==

  SCF Algorithm Type is DF.
  DIIS enabled.
  MOM disabled.
  Fractional occupation disabled.
  Guess Type is SAD.
  Energy threshold   = 1.00e-08
  Density threshold  = 1.00e-08
  Integral threshold = 0.00e+00

  ==> Primary Basis <==

  Basis Set: AUG-CC-PV(D+D)Z
    Blend: AUG-CC-PV(D+D)Z
    Number of shells: 24
    Number of basis function: 50
    Number of Cartesian functions: 52
    Spherical Harmonics?: true
    Max angular momentum: 2

  ==> DFT Potential <==

   => Composite Functional: WB97X-V <= 

    wB97X-V Hyb-GGA Exchange-Correlation Functional

    N. Mardirossian and M. Head-Gordon, Phys. Chem. Chem. Phys. 16, 9904 (2014)

    Deriv               =              1
    GGA                 =           TRUE
    Meta                =          FALSE

    Exchange Hybrid     =           TRUE
    MP2 Hybrid          =          FALSE

   => Exchange-Correlation Functionals <=

    1.0000   wB97X-V range-separated functional

   => Exact (HF) Exchange <=

    0.8330            HF,LR [omega = 0.3000]
    0.1670               HF 

   => VV10 Non-Local Parameters <=

    VV10 B              =     6.0000E+00
    VV10 C              =     1.0000E-02

   => Molecular Quadrature <=

    Radial Scheme          =       TREUTLER
    Pruning Scheme         =           FLAT
    Nuclear Scheme         =       TREUTLER

    BS radius alpha        =              1
    Pruning alpha          =              1
    Radial Points          =             75
    Spherical Points       =            302
    Total Points           =          90600
    Total Blocks           =            746
    Max Points             =            256
    Max Functions          =             50

   => Loading Basis Set <=

    Name: (AUG-CC-PV(D+D)Z AUX)
    Role: JKFIT
    Keyword: DF_BASIS_SCF
    atoms 1   entry N          line   212 file /work/zw18965/.conda/envs/p4env/share/psi4/basis/aug-cc-pvdz-jkfit.gbs 
    atoms 2-4 entry H          line    70 file /work/zw18965/.conda/envs/p4env/share/psi4/basis/aug-cc-pvdz-jkfit.gbs 

  ==> Pre-Iterations <==

   -------------------------------------------------------
    Irrep   Nso     Nmo     Nalpha   Nbeta   Ndocc  Nsocc
   -------------------------------------------------------
     A'        32      32       0       0       0       0
     A"        18      18       0       0       0       0
   -------------------------------------------------------
    Total      50      50       5       5       5       0
   -------------------------------------------------------

  ==> Integral Setup <==

  ==> DiskDFJK: Density-Fitted J/K Matrices <==

    J tasked:                  Yes
    K tasked:                  Yes
    wK tasked:                 Yes
    Omega:               3.000E-01
    OpenMP threads:             24
    Integrals threads:          24
    Memory [MiB]:           102864
    Algorithm:                Core
    Integral Cache:           NONE
    Schwarz Cutoff:          1E-12
    Fitting Condition:       1E-10

   => Auxiliary Basis Set <=

  Basis Set: (AUG-CC-PV(D+D)Z AUX)
    Blend: AUG-CC-PVDZ-JKFIT
    Number of shells: 64
    Number of basis function: 182
    Number of Cartesian functions: 206
    Spherical Harmonics?: true
    Max angular momentum: 3

  Cached 100.0% of DFT collocation blocks in 0.130 [GiB].

  Minimum eigenvalue in the overlap matrix is 2.1144420106E-03.
  Using Symmetric Orthogonalization.

  SCF Guess: Superposition of Atomic Densities via on-the-fly atomic UHF.

  ==> Iterations <==

                           Total Energy        Delta E     RMS |[F,P]|

   @DF-RKS iter SAD:   -56.03677117770043   -5.60368e+01   0.00000e+00 
   @DF-RKS iter   1:   -56.38005851904882   -3.43287e-01   1.68223e-02 DIIS
   @DF-RKS iter   2:   -56.40899646603336   -2.89379e-02   1.52744e-02 DIIS
   @DF-RKS iter   3:   -56.54577273839419   -1.36776e-01   4.88243e-04 DIIS
   @DF-RKS iter   4:   -56.54608691387349   -3.14175e-04   1.12469e-04 DIIS
   @DF-RKS iter   5:   -56.54610188032611   -1.49665e-05   1.55047e-05 DIIS
   @DF-RKS iter   6:   -56.54610238019438   -4.99868e-07   4.45978e-06 DIIS
   @DF-RKS iter   7:   -56.54610243240869   -5.22143e-08   8.29708e-07 DIIS
   @DF-RKS iter   8:   -56.54610243543230   -3.02360e-09   1.58332e-07 DIIS
   @DF-RKS iter   9:   -56.54610243553996   -1.07661e-10   1.71038e-08 DIIS
   @DF-RKS iter  10:   -56.54610243554088   -9.23706e-13   1.89212e-09 DIIS
  Energy and wave function converged.


  ==> Post-Iterations <==

    Orbital Energies [Eh]
    ---------------------

    Doubly Occupied:                                                      

       1Ap   -14.407034     2Ap    -0.985854     1App   -0.571848  
       3Ap    -0.571111     4Ap    -0.379572  

    Virtual:                                                              

       5Ap     0.034255     2App    0.062569     6Ap     0.062591  
       7Ap     0.144443     8Ap     0.180910     9Ap     0.196556  
       3App    0.196577    10Ap     0.255768     4App    0.256246  
      11Ap     0.312866     5App    0.320257    12Ap     0.320417  
      13Ap     0.435871     6App    0.506635     7App    0.507039  
      14Ap     0.507080    15Ap     0.574221    16Ap     0.609940  
       8App    0.610134    17Ap     0.636594     9App    0.637169  
      18Ap     0.773168    10App    0.848397    19Ap     0.848494  
      20Ap     1.016648    21Ap     1.092295    11App    1.092904  
      22Ap     1.215167    12App    1.667794    23Ap     1.667859  
      13App    1.796320    24Ap     1.918505    14App    1.918507  
      25Ap     1.953751    15App    2.163178    26Ap     2.163407  
      27Ap     2.208123    28Ap     2.212164    16App    2.214453  
      29Ap     2.462297    17App    2.692935    30Ap     2.693213  
      31Ap     2.887809    32Ap     3.275763    18App    3.277991  

    Final Occupation by Irrep:
             Ap   App 
    DOCC [     4,    1 ]

  @DF-RKS Final Energy:   -56.54610243554088

   => Energetics <=

    Nuclear Repulsion Energy =             11.9619772885753495
    One-Electron Energy =                 -99.5941792295276400
    Two-Electron Energy =                  36.5034089265206347
    DFT Exchange-Correlation Energy =      -5.4591594784807373
    Empirical Dispersion Energy =           0.0000000000000000
    VV10 Nonlocal Energy =                  0.0418500573715051
    Total Energy =                        -56.5461024355408810

Computation Completed


Properties will be evaluated at   0.000000,   0.000000,   0.000000 [a0]

Properties computed using the SCF density matrix

  Nuclear Dipole Moment: [e a0]
     X:     0.5719      Y:     0.6912      Z:     0.0000

  Electronic Dipole Moment: [e a0]
     X:    -0.1729      Y:    -0.2110      Z:     0.0000

  Dipole Moment: [e a0]
     X:     0.3990      Y:     0.4802      Z:     0.0000     Total:     0.6243

  Dipole Moment: [D]
     X:     1.0141      Y:     1.2205      Z:     0.0000     Total:     1.5868


*** tstop() called on bp1-compute00107.data.bp.acrc.priv at Tue Apr 27 17:53:22 2021
Module time:
	user time   =      67.98 seconds =       1.13 minutes
	system time =       1.87 seconds =       0.03 minutes
	total time  =          3 seconds =       0.05 minutes
Total time:
	user time   =     210.57 seconds =       3.51 minutes
	system time =       6.97 seconds =       0.12 minutes
	total time  =          9 seconds =       0.15 minutes

  //>>>>>>>>>>>>>>>>>>>>>>>>>>>>>>>>>>>//
  //    Loading displacement 4 of 9    //
  //<<<<<<<<<<<<<<<<<<<<<<<<<<<<<<<<<<<//

*** tstart() called on bp1-compute00107.data.bp.acrc.priv
*** at Tue Apr 27 17:53:22 2021

   => Loading Basis Set <=

    Name: AUG-CC-PV(D+D)Z
    Role: ORBITAL
    Keyword: BASIS
    atoms 1   entry N          line   234 file /work/zw18965/.conda/envs/p4env/share/psi4/basis/aug-cc-pv_dpd_z.gbs 
    atoms 2-4 entry H          line    56 file /work/zw18965/.conda/envs/p4env/share/psi4/basis/aug-cc-pv_dpd_z.gbs 


         ---------------------------------------------------------
                                   SCF
               by Justin Turney, Rob Parrish, Andy Simmonett
                          and Daniel G. A. Smith
                              RKS Reference
                       24 Threads, 137329 MiB Core
         ---------------------------------------------------------

  ==> Geometry <==

    Molecular point group: cs
    Full point group: Cs

    Geometry (in Angstrom), charge = 0, multiplicity = 1:

       Center              X                  Y                   Z               Mass       
    ------------   -----------------  -----------------  -----------------  -----------------
         N           -0.044172539916    -0.053366175490     0.000000000000    14.003074004430
         H            0.563611878713    -0.052045369706     0.809494643400     1.007825032230
         H            0.563611878713    -0.052045369706    -0.809494643400     1.007825032230
         H           -0.513475015702     0.845579074011     0.000000000000     1.007825032230

  Running in cs symmetry.

  Rotational constants: A =      9.92055  B =      9.92052  C =      6.38149 [cm^-1]
  Rotational constants: A = 297410.72974  B = 297409.56176  C = 191312.35212 [MHz]
  Nuclear repulsion =   11.952097444212807

  Charge       = 0
  Multiplicity = 1
  Electrons    = 10
  Nalpha       = 5
  Nbeta        = 5

  ==> Algorithm <==

  SCF Algorithm Type is DF.
  DIIS enabled.
  MOM disabled.
  Fractional occupation disabled.
  Guess Type is SAD.
  Energy threshold   = 1.00e-08
  Density threshold  = 1.00e-08
  Integral threshold = 0.00e+00

  ==> Primary Basis <==

  Basis Set: AUG-CC-PV(D+D)Z
    Blend: AUG-CC-PV(D+D)Z
    Number of shells: 24
    Number of basis function: 50
    Number of Cartesian functions: 52
    Spherical Harmonics?: true
    Max angular momentum: 2

  ==> DFT Potential <==

   => Composite Functional: WB97X-V <= 

    wB97X-V Hyb-GGA Exchange-Correlation Functional

    N. Mardirossian and M. Head-Gordon, Phys. Chem. Chem. Phys. 16, 9904 (2014)

    Deriv               =              1
    GGA                 =           TRUE
    Meta                =          FALSE

    Exchange Hybrid     =           TRUE
    MP2 Hybrid          =          FALSE

   => Exchange-Correlation Functionals <=

    1.0000   wB97X-V range-separated functional

   => Exact (HF) Exchange <=

    0.8330            HF,LR [omega = 0.3000]
    0.1670               HF 

   => VV10 Non-Local Parameters <=

    VV10 B              =     6.0000E+00
    VV10 C              =     1.0000E-02

   => Molecular Quadrature <=

    Radial Scheme          =       TREUTLER
    Pruning Scheme         =           FLAT
    Nuclear Scheme         =       TREUTLER

    BS radius alpha        =              1
    Pruning alpha          =              1
    Radial Points          =             75
    Spherical Points       =            302
    Total Points           =          90600
    Total Blocks           =            745
    Max Points             =            256
    Max Functions          =             50

   => Loading Basis Set <=

    Name: (AUG-CC-PV(D+D)Z AUX)
    Role: JKFIT
    Keyword: DF_BASIS_SCF
    atoms 1   entry N          line   212 file /work/zw18965/.conda/envs/p4env/share/psi4/basis/aug-cc-pvdz-jkfit.gbs 
    atoms 2-4 entry H          line    70 file /work/zw18965/.conda/envs/p4env/share/psi4/basis/aug-cc-pvdz-jkfit.gbs 

  ==> Pre-Iterations <==

   -------------------------------------------------------
    Irrep   Nso     Nmo     Nalpha   Nbeta   Ndocc  Nsocc
   -------------------------------------------------------
     A'        32      32       0       0       0       0
     A"        18      18       0       0       0       0
   -------------------------------------------------------
    Total      50      50       5       5       5       0
   -------------------------------------------------------

  ==> Integral Setup <==

  ==> DiskDFJK: Density-Fitted J/K Matrices <==

    J tasked:                  Yes
    K tasked:                  Yes
    wK tasked:                 Yes
    Omega:               3.000E-01
    OpenMP threads:             24
    Integrals threads:          24
    Memory [MiB]:           102864
    Algorithm:                Core
    Integral Cache:           NONE
    Schwarz Cutoff:          1E-12
    Fitting Condition:       1E-10

   => Auxiliary Basis Set <=

  Basis Set: (AUG-CC-PV(D+D)Z AUX)
    Blend: AUG-CC-PVDZ-JKFIT
    Number of shells: 64
    Number of basis function: 182
    Number of Cartesian functions: 206
    Spherical Harmonics?: true
    Max angular momentum: 3

  Cached 100.0% of DFT collocation blocks in 0.130 [GiB].

  Minimum eigenvalue in the overlap matrix is 2.1154467633E-03.
  Using Symmetric Orthogonalization.

  SCF Guess: Superposition of Atomic Densities via on-the-fly atomic UHF.

  ==> Iterations <==

                           Total Energy        Delta E     RMS |[F,P]|

   @DF-RKS iter SAD:   -56.03607661362022   -5.60361e+01   0.00000e+00 
   @DF-RKS iter   1:   -56.38015898114424   -3.44082e-01   1.68118e-02 DIIS
   @DF-RKS iter   2:   -56.40885911242223   -2.87001e-02   1.52787e-02 DIIS
   @DF-RKS iter   3:   -56.54578793989636   -1.36929e-01   4.88242e-04 DIIS
   @DF-RKS iter   4:   -56.54610243379661   -3.14494e-04   1.12676e-04 DIIS
   @DF-RKS iter   5:   -56.54611745386072   -1.50201e-05   1.56007e-05 DIIS
   @DF-RKS iter   6:   -56.54611795788320   -5.04022e-07   4.46520e-06 DIIS
   @DF-RKS iter   7:   -56.54611801026376   -5.23806e-08   8.29919e-07 DIIS
   @DF-RKS iter   8:   -56.54611801328701   -3.02325e-09   1.58527e-07 DIIS
   @DF-RKS iter   9:   -56.54611801339504   -1.08024e-10   1.70970e-08 DIIS
   @DF-RKS iter  10:   -56.54611801339577   -7.31859e-13   1.88322e-09 DIIS
  Energy and wave function converged.


  ==> Post-Iterations <==

    Orbital Energies [Eh]
    ---------------------

    Doubly Occupied:                                                      

       1Ap   -14.407388     2Ap    -0.985700     1App   -0.571360  
       3Ap    -0.570666     4Ap    -0.379896  

    Virtual:                                                              

       5Ap     0.034210     2App    0.062577     6Ap     0.062598  
       7Ap     0.144386     8Ap     0.180866     9Ap     0.196589  
       3App    0.196608    10Ap     0.255520     4App    0.255972  
      11Ap     0.312928     5App    0.320078    12Ap     0.320230  
      13Ap     0.435322     6App    0.506607     7App    0.507083  
      14Ap     0.507121    15Ap     0.574075    16Ap     0.609934  
       8App    0.610126    17Ap     0.636231     9App    0.636761  
      18Ap     0.773735    10App    0.848336    19Ap     0.848431  
      20Ap     1.016239    21Ap     1.091357    11App    1.091937  
      22Ap     1.214643    12App    1.667223    23Ap     1.667287  
      13App    1.796503    14App    1.917565    24Ap     1.917568  
      25Ap     1.954609    15App    2.161764    26Ap     2.161933  
      27Ap     2.208179    28Ap     2.211451    16App    2.213516  
      29Ap     2.464195    17App    2.691708    30Ap     2.691985  
      31Ap     2.884282    32Ap     3.274945    18App    3.277059  

    Final Occupation by Irrep:
             Ap   App 
    DOCC [     4,    1 ]

  @DF-RKS Final Energy:   -56.54611801339577

   => Energetics <=

    Nuclear Repulsion Energy =             11.9520974442128072
    One-Electron Energy =                 -99.5758100327901019
    Two-Electron Energy =                  36.4940614868294162
    DFT Exchange-Correlation Energy =      -5.4583157233758461
    Empirical Dispersion Energy =           0.0000000000000000
    VV10 Nonlocal Energy =                  0.0418488117279533
    Total Energy =                        -56.5461180133957697

Computation Completed


Properties will be evaluated at   0.000000,   0.000000,   0.000000 [a0]

Properties computed using the SCF density matrix

  Nuclear Dipole Moment: [e a0]
     X:     0.5755      Y:     0.6953      Z:     0.0000

  Electronic Dipole Moment: [e a0]
     X:    -0.1750      Y:    -0.2133      Z:     0.0000

  Dipole Moment: [e a0]
     X:     0.4005      Y:     0.4820      Z:     0.0000     Total:     0.6267

  Dipole Moment: [D]
     X:     1.0180      Y:     1.2251      Z:     0.0000     Total:     1.5928


*** tstop() called on bp1-compute00107.data.bp.acrc.priv at Tue Apr 27 17:53:25 2021
Module time:
	user time   =      68.42 seconds =       1.14 minutes
	system time =       1.83 seconds =       0.03 minutes
	total time  =          3 seconds =       0.05 minutes
Total time:
	user time   =     279.14 seconds =       4.65 minutes
	system time =       8.81 seconds =       0.15 minutes
	total time  =         12 seconds =       0.20 minutes

  //>>>>>>>>>>>>>>>>>>>>>>>>>>>>>>>>>>>//
  //    Loading displacement 5 of 9    //
  //<<<<<<<<<<<<<<<<<<<<<<<<<<<<<<<<<<<//

*** tstart() called on bp1-compute00107.data.bp.acrc.priv
*** at Tue Apr 27 17:53:25 2021

   => Loading Basis Set <=

    Name: AUG-CC-PV(D+D)Z
    Role: ORBITAL
    Keyword: BASIS
    atoms 1   entry N          line   234 file /work/zw18965/.conda/envs/p4env/share/psi4/basis/aug-cc-pv_dpd_z.gbs 
    atoms 2-4 entry H          line    56 file /work/zw18965/.conda/envs/p4env/share/psi4/basis/aug-cc-pv_dpd_z.gbs 


         ---------------------------------------------------------
                                   SCF
               by Justin Turney, Rob Parrish, Andy Simmonett
                          and Daniel G. A. Smith
                              RKS Reference
                       24 Threads, 137329 MiB Core
         ---------------------------------------------------------

  ==> Geometry <==

    Molecular point group: cs
    Full point group: Cs

    Geometry (in Angstrom), charge = 0, multiplicity = 1:

       Center              X                  Y                   Z               Mass       
    ------------   -----------------  -----------------  -----------------  -----------------
         N           -0.044172539916    -0.052802211941     0.000000000000    14.003074004430
         H            0.564056499128    -0.054123017724     0.809494643400     1.007825032230
         H            0.564056499128    -0.054123017724    -0.809494643400     1.007825032230
         H           -0.514364256532     0.841898462958     0.000000000000     1.007825032230

  Running in cs symmetry.

  Rotational constants: A =      9.94820  B =      9.94816  C =      6.38149 [cm^-1]
  Rotational constants: A = 298239.41596  B = 298238.24957  C = 191312.35545 [MHz]
  Nuclear repulsion =   11.962265102565624

  Charge       = 0
  Multiplicity = 1
  Electrons    = 10
  Nalpha       = 5
  Nbeta        = 5

  ==> Algorithm <==

  SCF Algorithm Type is DF.
  DIIS enabled.
  MOM disabled.
  Fractional occupation disabled.
  Guess Type is SAD.
  Energy threshold   = 1.00e-08
  Density threshold  = 1.00e-08
  Integral threshold = 0.00e+00

  ==> Primary Basis <==

  Basis Set: AUG-CC-PV(D+D)Z
    Blend: AUG-CC-PV(D+D)Z
    Number of shells: 24
    Number of basis function: 50
    Number of Cartesian functions: 52
    Spherical Harmonics?: true
    Max angular momentum: 2

  ==> DFT Potential <==

   => Composite Functional: WB97X-V <= 

    wB97X-V Hyb-GGA Exchange-Correlation Functional

    N. Mardirossian and M. Head-Gordon, Phys. Chem. Chem. Phys. 16, 9904 (2014)

    Deriv               =              1
    GGA                 =           TRUE
    Meta                =          FALSE

    Exchange Hybrid     =           TRUE
    MP2 Hybrid          =          FALSE

   => Exchange-Correlation Functionals <=

    1.0000   wB97X-V range-separated functional

   => Exact (HF) Exchange <=

    0.8330            HF,LR [omega = 0.3000]
    0.1670               HF 

   => VV10 Non-Local Parameters <=

    VV10 B              =     6.0000E+00
    VV10 C              =     1.0000E-02

   => Molecular Quadrature <=

    Radial Scheme          =       TREUTLER
    Pruning Scheme         =           FLAT
    Nuclear Scheme         =       TREUTLER

    BS radius alpha        =              1
    Pruning alpha          =              1
    Radial Points          =             75
    Spherical Points       =            302
    Total Points           =          90600
    Total Blocks           =            749
    Max Points             =            256
    Max Functions          =             50

   => Loading Basis Set <=

    Name: (AUG-CC-PV(D+D)Z AUX)
    Role: JKFIT
    Keyword: DF_BASIS_SCF
    atoms 1   entry N          line   212 file /work/zw18965/.conda/envs/p4env/share/psi4/basis/aug-cc-pvdz-jkfit.gbs 
    atoms 2-4 entry H          line    70 file /work/zw18965/.conda/envs/p4env/share/psi4/basis/aug-cc-pvdz-jkfit.gbs 

  ==> Pre-Iterations <==

   -------------------------------------------------------
    Irrep   Nso     Nmo     Nalpha   Nbeta   Ndocc  Nsocc
   -------------------------------------------------------
     A'        32      32       0       0       0       0
     A"        18      18       0       0       0       0
   -------------------------------------------------------
    Total      50      50       5       5       5       0
   -------------------------------------------------------

  ==> Integral Setup <==

  ==> DiskDFJK: Density-Fitted J/K Matrices <==

    J tasked:                  Yes
    K tasked:                  Yes
    wK tasked:                 Yes
    Omega:               3.000E-01
    OpenMP threads:             24
    Integrals threads:          24
    Memory [MiB]:           102864
    Algorithm:                Core
    Integral Cache:           NONE
    Schwarz Cutoff:          1E-12
    Fitting Condition:       1E-10

   => Auxiliary Basis Set <=

  Basis Set: (AUG-CC-PV(D+D)Z AUX)
    Blend: AUG-CC-PVDZ-JKFIT
    Number of shells: 64
    Number of basis function: 182
    Number of Cartesian functions: 206
    Spherical Harmonics?: true
    Max angular momentum: 3

  Cached 100.0% of DFT collocation blocks in 0.130 [GiB].

  Minimum eigenvalue in the overlap matrix is 2.1145534197E-03.
  Using Symmetric Orthogonalization.

  SCF Guess: Superposition of Atomic Densities via on-the-fly atomic UHF.

  ==> Iterations <==

                           Total Energy        Delta E     RMS |[F,P]|

   @DF-RKS iter SAD:   -56.03679160849831   -5.60368e+01   0.00000e+00 
   @DF-RKS iter   1:   -56.38005591029308   -3.43264e-01   1.68226e-02 DIIS
   @DF-RKS iter   2:   -56.40900082432521   -2.89449e-02   1.52743e-02 DIIS
   @DF-RKS iter   3:   -56.54577250124832   -1.36772e-01   4.88243e-04 DIIS
   @DF-RKS iter   4:   -56.54608666703759   -3.14166e-04   1.12463e-04 DIIS
   @DF-RKS iter   5:   -56.54610163188886   -1.49649e-05   1.55019e-05 DIIS
   @DF-RKS iter   6:   -56.54610213164399   -4.99755e-07   4.45962e-06 DIIS
   @DF-RKS iter   7:   -56.54610218385258   -5.22086e-08   8.29699e-07 DIIS
   @DF-RKS iter   8:   -56.54610218687615   -3.02357e-09   1.58324e-07 DIIS
   @DF-RKS iter   9:   -56.54610218698387   -1.07725e-10   1.71009e-08 DIIS
   @DF-RKS iter  10:   -56.54610218698463   -7.60281e-13   1.88586e-09 DIIS
  Energy and wave function converged.


  ==> Post-Iterations <==

    Orbital Energies [Eh]
    ---------------------

    Doubly Occupied:                                                      

       1Ap   -14.407024     2Ap    -0.985858     3Ap    -0.571841  
       1App   -0.571145     4Ap    -0.379562  

    Virtual:                                                              

       5Ap     0.034256     6Ap     0.062569     2App    0.062590  
       7Ap     0.144445     8Ap     0.180911     3App    0.196557  
       9Ap     0.196574     4App    0.255789    10Ap     0.256240  
      11Ap     0.312864    12Ap     0.320267     5App    0.320417  
      13Ap     0.435887     6App    0.506636    14Ap     0.507038  
       7App    0.507079    15Ap     0.574225     8App    0.609948  
      16Ap     0.610127     9App    0.636621    17Ap     0.637164  
      18Ap     0.773151    19Ap     0.848400    10App    0.848495  
      20Ap     1.016661    11App    1.092334    21Ap     1.092920  
      22Ap     1.215182    23Ap     1.667812    12App    1.667874  
      13App    1.796315    24Ap     1.918519    14App    1.918549  
      25Ap     1.953724    26Ap     2.163211    15App    2.163458  
      27Ap     2.208248    16App    2.211975    28Ap     2.214564  
      29Ap     2.462241    30Ap     2.692971    17App    2.693249  
      31Ap     2.887912    18App    3.275840    32Ap     3.277963  

    Final Occupation by Irrep:
             Ap   App 
    DOCC [     4,    1 ]

  @DF-RKS Final Energy:   -56.54610218698463

   => Energetics <=

    Nuclear Repulsion Energy =             11.9622651025656239
    One-Electron Energy =                 -99.5947146987918757
    Two-Electron Energy =                  36.5036813885765312
    DFT Exchange-Correlation Energy =      -5.4591840842376236
    Empirical Dispersion Energy =           0.0000000000000000
    VV10 Nonlocal Energy =                  0.0418501049027092
    Total Energy =                        -56.5461021869846405

Computation Completed


Properties will be evaluated at   0.000000,   0.000000,   0.000000 [a0]

Properties computed using the SCF density matrix

  Nuclear Dipole Moment: [e a0]
     X:     0.5755      Y:     0.6879      Z:     0.0000

  Electronic Dipole Moment: [e a0]
     X:    -0.1759      Y:    -0.2084      Z:     0.0000

  Dipole Moment: [e a0]
     X:     0.3996      Y:     0.4796      Z:     0.0000     Total:     0.6242

  Dipole Moment: [D]
     X:     1.0157      Y:     1.2189      Z:     0.0000     Total:     1.5867


*** tstop() called on bp1-compute00107.data.bp.acrc.priv at Tue Apr 27 17:53:28 2021
Module time:
	user time   =      68.44 seconds =       1.14 minutes
	system time =       2.00 seconds =       0.03 minutes
	total time  =          3 seconds =       0.05 minutes
Total time:
	user time   =     347.71 seconds =       5.80 minutes
	system time =      10.82 seconds =       0.18 minutes
	total time  =         15 seconds =       0.25 minutes

  //>>>>>>>>>>>>>>>>>>>>>>>>>>>>>>>>>>>//
  //    Loading displacement 6 of 9    //
  //<<<<<<<<<<<<<<<<<<<<<<<<<<<<<<<<<<<//

*** tstart() called on bp1-compute00107.data.bp.acrc.priv
*** at Tue Apr 27 17:53:28 2021

   => Loading Basis Set <=

    Name: AUG-CC-PV(D+D)Z
    Role: ORBITAL
    Keyword: BASIS
    atoms 1   entry N          line   234 file /work/zw18965/.conda/envs/p4env/share/psi4/basis/aug-cc-pv_dpd_z.gbs 
    atoms 2-4 entry H          line    56 file /work/zw18965/.conda/envs/p4env/share/psi4/basis/aug-cc-pv_dpd_z.gbs 


         ---------------------------------------------------------
                                   SCF
               by Justin Turney, Rob Parrish, Andy Simmonett
                          and Daniel G. A. Smith
                              RKS Reference
                       24 Threads, 137329 MiB Core
         ---------------------------------------------------------

  ==> Geometry <==

    Molecular point group: cs
    Full point group: Cs

    Geometry (in Angstrom), charge = 0, multiplicity = 1:

       Center              X                  Y                   Z               Mass       
    ------------   -----------------  -----------------  -----------------  -----------------
         N           -0.044172539916    -0.053084193715     0.000000000000    14.003074004430
         H            0.563007108181    -0.052395961410     0.809494643400     1.007825032230
         H            0.563007108181    -0.052395961410    -0.809494643400     1.007825032230
         H           -0.512265474637     0.842362303875     0.000000000000     1.007825032230

  Running in cs symmetry.

  Rotational constants: A =      9.97005  B =      9.93436  C =      6.39622 [cm^-1]
  Rotational constants: A = 298894.55792  B = 297824.55789  C = 191753.78946 [MHz]
  Nuclear repulsion =   11.969093647182326

  Charge       = 0
  Multiplicity = 1
  Electrons    = 10
  Nalpha       = 5
  Nbeta        = 5

  ==> Algorithm <==

  SCF Algorithm Type is DF.
  DIIS enabled.
  MOM disabled.
  Fractional occupation disabled.
  Guess Type is SAD.
  Energy threshold   = 1.00e-08
  Density threshold  = 1.00e-08
  Integral threshold = 0.00e+00

  ==> Primary Basis <==

  Basis Set: AUG-CC-PV(D+D)Z
    Blend: AUG-CC-PV(D+D)Z
    Number of shells: 24
    Number of basis function: 50
    Number of Cartesian functions: 52
    Spherical Harmonics?: true
    Max angular momentum: 2

  ==> DFT Potential <==

   => Composite Functional: WB97X-V <= 

    wB97X-V Hyb-GGA Exchange-Correlation Functional

    N. Mardirossian and M. Head-Gordon, Phys. Chem. Chem. Phys. 16, 9904 (2014)

    Deriv               =              1
    GGA                 =           TRUE
    Meta                =          FALSE

    Exchange Hybrid     =           TRUE
    MP2 Hybrid          =          FALSE

   => Exchange-Correlation Functionals <=

    1.0000   wB97X-V range-separated functional

   => Exact (HF) Exchange <=

    0.8330            HF,LR [omega = 0.3000]
    0.1670               HF 

   => VV10 Non-Local Parameters <=

    VV10 B              =     6.0000E+00
    VV10 C              =     1.0000E-02

   => Molecular Quadrature <=

    Radial Scheme          =       TREUTLER
    Pruning Scheme         =           FLAT
    Nuclear Scheme         =       TREUTLER

    BS radius alpha        =              1
    Pruning alpha          =              1
    Radial Points          =             75
    Spherical Points       =            302
    Total Points           =          90600
    Total Blocks           =            750
    Max Points             =            256
    Max Functions          =             50

   => Loading Basis Set <=

    Name: (AUG-CC-PV(D+D)Z AUX)
    Role: JKFIT
    Keyword: DF_BASIS_SCF
    atoms 1   entry N          line   212 file /work/zw18965/.conda/envs/p4env/share/psi4/basis/aug-cc-pvdz-jkfit.gbs 
    atoms 2-4 entry H          line    70 file /work/zw18965/.conda/envs/p4env/share/psi4/basis/aug-cc-pvdz-jkfit.gbs 

  ==> Pre-Iterations <==

   -------------------------------------------------------
    Irrep   Nso     Nmo     Nalpha   Nbeta   Ndocc  Nsocc
   -------------------------------------------------------
     A'        32      32       0       0       0       0
     A"        18      18       0       0       0       0
   -------------------------------------------------------
    Total      50      50       5       5       5       0
   -------------------------------------------------------

  ==> Integral Setup <==

  ==> DiskDFJK: Density-Fitted J/K Matrices <==

    J tasked:                  Yes
    K tasked:                  Yes
    wK tasked:                 Yes
    Omega:               3.000E-01
    OpenMP threads:             24
    Integrals threads:          24
    Memory [MiB]:           102864
    Algorithm:                Core
    Integral Cache:           NONE
    Schwarz Cutoff:          1E-12
    Fitting Condition:       1E-10

   => Auxiliary Basis Set <=

  Basis Set: (AUG-CC-PV(D+D)Z AUX)
    Blend: AUG-CC-PVDZ-JKFIT
    Number of shells: 64
    Number of basis function: 182
    Number of Cartesian functions: 206
    Spherical Harmonics?: true
    Max angular momentum: 3

  Cached 100.0% of DFT collocation blocks in 0.129 [GiB].

  Minimum eigenvalue in the overlap matrix is 2.1017825498E-03.
  Using Symmetric Orthogonalization.

  SCF Guess: Superposition of Atomic Densities via on-the-fly atomic UHF.

  ==> Iterations <==

                           Total Energy        Delta E     RMS |[F,P]|

   @DF-RKS iter SAD:   -56.03760212417505   -5.60376e+01   0.00000e+00 
   @DF-RKS iter   1:   -56.37996394711936   -3.42362e-01   1.68280e-02 DIIS
   @DF-RKS iter   2:   -56.40905588844983   -2.90919e-02   1.52718e-02 DIIS
   @DF-RKS iter   3:   -56.54574660025368   -1.36691e-01   4.88101e-04 DIIS
   @DF-RKS iter   4:   -56.54606037372901   -3.13773e-04   1.12322e-04 DIIS
   @DF-RKS iter   5:   -56.54607529215625   -1.49184e-05   1.54584e-05 DIIS
   @DF-RKS iter   6:   -56.54607578868470   -4.96528e-07   4.44351e-06 DIIS
   @DF-RKS iter   7:   -56.54607584043073   -5.17460e-08   8.26126e-07 DIIS
   @DF-RKS iter   8:   -56.54607584342558   -2.99485e-09   1.57912e-07 DIIS
   @DF-RKS iter   9:   -56.54607584353267   -1.07086e-10   1.70462e-08 DIIS
   @DF-RKS iter  10:   -56.54607584353347   -8.02913e-13   1.90258e-09 DIIS
  Energy and wave function converged.


  ==> Post-Iterations <==

    Orbital Energies [Eh]
    ---------------------

    Doubly Occupied:                                                      

       1Ap   -14.406922     2Ap    -0.986239     1App   -0.571576  
       3Ap    -0.571462     4Ap    -0.379829  

    Virtual:                                                              

       5Ap     0.034254     2App    0.062570     6Ap     0.062602  
       7Ap     0.144396     8Ap     0.180966     9Ap     0.196572  
       3App    0.196613     4App    0.256066    10Ap     0.256259  
      11Ap     0.313163     5App    0.320236    12Ap     0.320384  
      13Ap     0.435640     6App    0.506766     7App    0.507194  
      14Ap     0.507266    15Ap     0.574357     8App    0.610090  
      16Ap     0.610231    17Ap     0.636849     9App    0.636941  
      18Ap     0.773604    10App    0.848457    19Ap     0.848529  
      20Ap     1.017308    11App    1.092275    21Ap     1.092466  
      22Ap     1.215072    23Ap     1.667129    12App    1.667600  
      13App    1.797356    14App    1.917985    24Ap     1.918410  
      25Ap     1.954631    26Ap     2.162564    15App    2.162949  
      27Ap     2.209189    16App    2.213863    28Ap     2.216079  
      29Ap     2.464704    30Ap     2.693049    17App    2.694243  
      31Ap     2.887522    18App    3.277376    32Ap     3.279304  

    Final Occupation by Irrep:
             Ap   App 
    DOCC [     4,    1 ]

  @DF-RKS Final Energy:   -56.54607584353347

   => Energetics <=

    Nuclear Repulsion Energy =             11.9690936471823264
    One-Electron Energy =                 -99.6067394566030657
    Two-Electron Energy =                  36.5094849666272694
    DFT Exchange-Correlation Energy =      -5.4597660018959688
    Empirical Dispersion Energy =           0.0000000000000000
    VV10 Nonlocal Energy =                  0.0418510011559708
    Total Energy =                        -56.5460758435334796

Computation Completed


Properties will be evaluated at   0.000000,   0.000000,   0.000000 [a0]

Properties computed using the SCF density matrix

  Nuclear Dipole Moment: [e a0]
     X:     0.5755      Y:     0.6916      Z:     0.0000

  Electronic Dipole Moment: [e a0]
     X:    -0.1752      Y:    -0.2102      Z:     0.0000

  Dipole Moment: [e a0]
     X:     0.4003      Y:     0.4814      Z:     0.0000     Total:     0.6261

  Dipole Moment: [D]
     X:     1.0175      Y:     1.2236      Z:     0.0000     Total:     1.5914


*** tstop() called on bp1-compute00107.data.bp.acrc.priv at Tue Apr 27 17:53:31 2021
Module time:
	user time   =      67.94 seconds =       1.13 minutes
	system time =       1.69 seconds =       0.03 minutes
	total time  =          3 seconds =       0.05 minutes
Total time:
	user time   =     415.79 seconds =       6.93 minutes
	system time =      12.51 seconds =       0.21 minutes
	total time  =         18 seconds =       0.30 minutes

  //>>>>>>>>>>>>>>>>>>>>>>>>>>>>>>>>>>>//
  //    Loading displacement 7 of 9    //
  //<<<<<<<<<<<<<<<<<<<<<<<<<<<<<<<<<<<//

*** tstart() called on bp1-compute00107.data.bp.acrc.priv
*** at Tue Apr 27 17:53:31 2021

   => Loading Basis Set <=

    Name: AUG-CC-PV(D+D)Z
    Role: ORBITAL
    Keyword: BASIS
    atoms 1   entry N          line   234 file /work/zw18965/.conda/envs/p4env/share/psi4/basis/aug-cc-pv_dpd_z.gbs 
    atoms 2-4 entry H          line    56 file /work/zw18965/.conda/envs/p4env/share/psi4/basis/aug-cc-pv_dpd_z.gbs 


         ---------------------------------------------------------
                                   SCF
               by Justin Turney, Rob Parrish, Andy Simmonett
                          and Daniel G. A. Smith
                              RKS Reference
                       24 Threads, 137329 MiB Core
         ---------------------------------------------------------

  ==> Geometry <==

    Molecular point group: cs
    Full point group: Cs

    Geometry (in Angstrom), charge = 0, multiplicity = 1:

       Center              X                  Y                   Z               Mass       
    ------------   -----------------  -----------------  -----------------  -----------------
         N           -0.044172539916    -0.053084193715     0.000000000000    14.003074004430
         H            0.564661269661    -0.053772426020     0.809494643400     1.007825032230
         H            0.564661269661    -0.053772426020    -0.809494643400     1.007825032230
         H           -0.515573797597     0.845115233095     0.000000000000     1.007825032230

  Running in cs symmetry.

  Rotational constants: A =      9.93436  B =      9.89884  C =      6.36683 [cm^-1]
  Rotational constants: A = 297824.55789  B = 296759.75159  C = 190872.89538 [MHz]
  Nuclear repulsion =   11.945294393117610

  Charge       = 0
  Multiplicity = 1
  Electrons    = 10
  Nalpha       = 5
  Nbeta        = 5

  ==> Algorithm <==

  SCF Algorithm Type is DF.
  DIIS enabled.
  MOM disabled.
  Fractional occupation disabled.
  Guess Type is SAD.
  Energy threshold   = 1.00e-08
  Density threshold  = 1.00e-08
  Integral threshold = 0.00e+00

  ==> Primary Basis <==

  Basis Set: AUG-CC-PV(D+D)Z
    Blend: AUG-CC-PV(D+D)Z
    Number of shells: 24
    Number of basis function: 50
    Number of Cartesian functions: 52
    Spherical Harmonics?: true
    Max angular momentum: 2

  ==> DFT Potential <==

   => Composite Functional: WB97X-V <= 

    wB97X-V Hyb-GGA Exchange-Correlation Functional

    N. Mardirossian and M. Head-Gordon, Phys. Chem. Chem. Phys. 16, 9904 (2014)

    Deriv               =              1
    GGA                 =           TRUE
    Meta                =          FALSE

    Exchange Hybrid     =           TRUE
    MP2 Hybrid          =          FALSE

   => Exchange-Correlation Functionals <=

    1.0000   wB97X-V range-separated functional

   => Exact (HF) Exchange <=

    0.8330            HF,LR [omega = 0.3000]
    0.1670               HF 

   => VV10 Non-Local Parameters <=

    VV10 B              =     6.0000E+00
    VV10 C              =     1.0000E-02

   => Molecular Quadrature <=

    Radial Scheme          =       TREUTLER
    Pruning Scheme         =           FLAT
    Nuclear Scheme         =       TREUTLER

    BS radius alpha        =              1
    Pruning alpha          =              1
    Radial Points          =             75
    Spherical Points       =            302
    Total Points           =          90600
    Total Blocks           =            747
    Max Points             =            256
    Max Functions          =             50

   => Loading Basis Set <=

    Name: (AUG-CC-PV(D+D)Z AUX)
    Role: JKFIT
    Keyword: DF_BASIS_SCF
    atoms 1   entry N          line   212 file /work/zw18965/.conda/envs/p4env/share/psi4/basis/aug-cc-pvdz-jkfit.gbs 
    atoms 2-4 entry H          line    70 file /work/zw18965/.conda/envs/p4env/share/psi4/basis/aug-cc-pvdz-jkfit.gbs 

  ==> Pre-Iterations <==

   -------------------------------------------------------
    Irrep   Nso     Nmo     Nalpha   Nbeta   Ndocc  Nsocc
   -------------------------------------------------------
     A'        32      32       0       0       0       0
     A"        18      18       0       0       0       0
   -------------------------------------------------------
    Total      50      50       5       5       5       0
   -------------------------------------------------------

  ==> Integral Setup <==

  ==> DiskDFJK: Density-Fitted J/K Matrices <==

    J tasked:                  Yes
    K tasked:                  Yes
    wK tasked:                 Yes
    Omega:               3.000E-01
    OpenMP threads:             24
    Integrals threads:          24
    Memory [MiB]:           102864
    Algorithm:                Core
    Integral Cache:           NONE
    Schwarz Cutoff:          1E-12
    Fitting Condition:       1E-10

   => Auxiliary Basis Set <=

  Basis Set: (AUG-CC-PV(D+D)Z AUX)
    Blend: AUG-CC-PVDZ-JKFIT
    Number of shells: 64
    Number of basis function: 182
    Number of Cartesian functions: 206
    Spherical Harmonics?: true
    Max angular momentum: 3

  Cached 100.0% of DFT collocation blocks in 0.129 [GiB].

  Minimum eigenvalue in the overlap matrix is 2.1221790209E-03.
  Using Symmetric Orthogonalization.

  SCF Guess: Superposition of Atomic Densities via on-the-fly atomic UHF.

  ==> Iterations <==

                           Total Energy        Delta E     RMS |[F,P]|

   @DF-RKS iter SAD:   -56.03526602068449   -5.60353e+01   0.00000e+00 
   @DF-RKS iter   1:   -56.38024731667265   -3.44981e-01   1.68065e-02 DIIS
   @DF-RKS iter   2:   -56.40880121970851   -2.85539e-02   1.52812e-02 DIIS
   @DF-RKS iter   3:   -56.54581028986302   -1.37009e-01   4.88386e-04 DIIS
   @DF-RKS iter   4:   -56.54612518017571   -3.14890e-04   1.12819e-04 DIIS
   @DF-RKS iter   5:   -56.54614024746090   -1.50673e-05   1.56451e-05 DIIS
   @DF-RKS iter   6:   -56.54614075480233   -5.07341e-07   4.48168e-06 DIIS
   @DF-RKS iter   7:   -56.54614080766325   -5.28609e-08   8.33580e-07 DIIS
   @DF-RKS iter   8:   -56.54614081071534   -3.05209e-09   1.58942e-07 DIIS
   @DF-RKS iter   9:   -56.54614081082393   -1.08585e-10   1.71752e-08 DIIS
   @DF-RKS iter  10:   -56.54614081082472   -7.95808e-13   1.92102e-09 DIIS
  Energy and wave function converged.


  ==> Post-Iterations <==

    Orbital Energies [Eh]
    ---------------------

    Doubly Occupied:                                                      

       1Ap   -14.407488     2Ap    -0.985321     3Ap    -0.571044  
       1App   -0.570930     4Ap    -0.379628  

    Virtual:                                                              

       5Ap     0.034211     6Ap     0.062565     2App    0.062597  
       7Ap     0.144435     8Ap     0.180810     3App    0.196553  
       9Ap     0.196591    10Ap     0.255499     4App    0.255696  
      11Ap     0.312631    12Ap     0.320114     5App    0.320259  
      13Ap     0.435568     6App    0.506395    14Ap     0.506892  
       7App    0.507050    15Ap     0.573942    16Ap     0.609828  
       8App    0.609982     9App    0.636444    17Ap     0.636545  
      18Ap     0.773283    19Ap     0.848300    10App    0.848377  
      20Ap     1.015612    21Ap     1.091799    11App    1.091989  
      22Ap     1.214754    12App    1.667500    23Ap     1.667962  
      13App    1.795464    24Ap     1.917696    14App    1.918133  
      25Ap     1.953686    15App    2.162267    26Ap     2.162651  
      27Ap     2.206919    28Ap     2.210195    16App    2.211626  
      29Ap     2.461722    17App    2.690728    30Ap     2.691910  
      31Ap     2.884680    32Ap     3.273607    18App    3.275522  

    Final Occupation by Irrep:
             Ap   App 
    DOCC [     4,    1 ]

  @DF-RKS Final Energy:   -56.54614081082472

   => Energetics <=

    Nuclear Repulsion Energy =             11.9452943931176101
    One-Electron Energy =                 -99.5638274742981650
    Two-Electron Energy =                  36.4882802849927828
    DFT Exchange-Correlation Energy =      -5.4577359331996931
    Empirical Dispersion Energy =           0.0000000000000000
    VV10 Nonlocal Energy =                  0.0418479185627462
    Total Energy =                        -56.5461408108247241

Computation Completed


Properties will be evaluated at   0.000000,   0.000000,   0.000000 [a0]

Properties computed using the SCF density matrix

  Nuclear Dipole Moment: [e a0]
     X:     0.5755      Y:     0.6916      Z:     0.0000

  Electronic Dipole Moment: [e a0]
     X:    -0.1757      Y:    -0.2115      Z:     0.0000

  Dipole Moment: [e a0]
     X:     0.3998      Y:     0.4801      Z:     0.0000     Total:     0.6248

  Dipole Moment: [D]
     X:     1.0162      Y:     1.2204      Z:     0.0000     Total:     1.5881


*** tstop() called on bp1-compute00107.data.bp.acrc.priv at Tue Apr 27 17:53:33 2021
Module time:
	user time   =      68.20 seconds =       1.14 minutes
	system time =       1.74 seconds =       0.03 minutes
	total time  =          2 seconds =       0.03 minutes
Total time:
	user time   =     484.12 seconds =       8.07 minutes
	system time =      14.26 seconds =       0.24 minutes
	total time  =         20 seconds =       0.33 minutes

  //>>>>>>>>>>>>>>>>>>>>>>>>>>>>>>>>>>>//
  //    Loading displacement 8 of 9    //
  //<<<<<<<<<<<<<<<<<<<<<<<<<<<<<<<<<<<//

*** tstart() called on bp1-compute00107.data.bp.acrc.priv
*** at Tue Apr 27 17:53:33 2021

   => Loading Basis Set <=

    Name: AUG-CC-PV(D+D)Z
    Role: ORBITAL
    Keyword: BASIS
    atoms 1   entry N          line   234 file /work/zw18965/.conda/envs/p4env/share/psi4/basis/aug-cc-pv_dpd_z.gbs 
    atoms 2-4 entry H          line    56 file /work/zw18965/.conda/envs/p4env/share/psi4/basis/aug-cc-pv_dpd_z.gbs 


         ---------------------------------------------------------
                                   SCF
               by Justin Turney, Rob Parrish, Andy Simmonett
                          and Daniel G. A. Smith
                              RKS Reference
                       24 Threads, 137329 MiB Core
         ---------------------------------------------------------

  ==> Geometry <==

    Molecular point group: cs
    Full point group: Cs

    Geometry (in Angstrom), charge = 0, multiplicity = 1:

       Center              X                  Y                   Z               Mass       
    ------------   -----------------  -----------------  -----------------  -----------------
         N           -0.044172539916    -0.053084193715     0.000000000000    14.003074004430
         H            0.563834188921    -0.053084193715     0.807630996768     1.007825032230
         H            0.563834188921    -0.053084193715    -0.807630996768     1.007825032230
         H           -0.513919636117     0.843738768485     0.000000000000     1.007825032230

  Running in cs symmetry.

  Rotational constants: A =      9.97005  B =      9.93436  C =      6.39622 [cm^-1]
  Rotational constants: A = 298894.55790  B = 297824.55791  C = 191753.78946 [MHz]
  Nuclear repulsion =   11.969093636052165

  Charge       = 0
  Multiplicity = 1
  Electrons    = 10
  Nalpha       = 5
  Nbeta        = 5

  ==> Algorithm <==

  SCF Algorithm Type is DF.
  DIIS enabled.
  MOM disabled.
  Fractional occupation disabled.
  Guess Type is SAD.
  Energy threshold   = 1.00e-08
  Density threshold  = 1.00e-08
  Integral threshold = 0.00e+00

  ==> Primary Basis <==

  Basis Set: AUG-CC-PV(D+D)Z
    Blend: AUG-CC-PV(D+D)Z
    Number of shells: 24
    Number of basis function: 50
    Number of Cartesian functions: 52
    Spherical Harmonics?: true
    Max angular momentum: 2

  ==> DFT Potential <==

   => Composite Functional: WB97X-V <= 

    wB97X-V Hyb-GGA Exchange-Correlation Functional

    N. Mardirossian and M. Head-Gordon, Phys. Chem. Chem. Phys. 16, 9904 (2014)

    Deriv               =              1
    GGA                 =           TRUE
    Meta                =          FALSE

    Exchange Hybrid     =           TRUE
    MP2 Hybrid          =          FALSE

   => Exchange-Correlation Functionals <=

    1.0000   wB97X-V range-separated functional

   => Exact (HF) Exchange <=

    0.8330            HF,LR [omega = 0.3000]
    0.1670               HF 

   => VV10 Non-Local Parameters <=

    VV10 B              =     6.0000E+00
    VV10 C              =     1.0000E-02

   => Molecular Quadrature <=

    Radial Scheme          =       TREUTLER
    Pruning Scheme         =           FLAT
    Nuclear Scheme         =       TREUTLER

    BS radius alpha        =              1
    Pruning alpha          =              1
    Radial Points          =             75
    Spherical Points       =            302
    Total Points           =          90600
    Total Blocks           =            747
    Max Points             =            256
    Max Functions          =             50

   => Loading Basis Set <=

    Name: (AUG-CC-PV(D+D)Z AUX)
    Role: JKFIT
    Keyword: DF_BASIS_SCF
    atoms 1   entry N          line   212 file /work/zw18965/.conda/envs/p4env/share/psi4/basis/aug-cc-pvdz-jkfit.gbs 
    atoms 2-4 entry H          line    70 file /work/zw18965/.conda/envs/p4env/share/psi4/basis/aug-cc-pvdz-jkfit.gbs 

  ==> Pre-Iterations <==

   -------------------------------------------------------
    Irrep   Nso     Nmo     Nalpha   Nbeta   Ndocc  Nsocc
   -------------------------------------------------------
     A'        32      32       0       0       0       0
     A"        18      18       0       0       0       0
   -------------------------------------------------------
    Total      50      50       5       5       5       0
   -------------------------------------------------------

  ==> Integral Setup <==

  ==> DiskDFJK: Density-Fitted J/K Matrices <==

    J tasked:                  Yes
    K tasked:                  Yes
    wK tasked:                 Yes
    Omega:               3.000E-01
    OpenMP threads:             24
    Integrals threads:          24
    Memory [MiB]:           102864
    Algorithm:                Core
    Integral Cache:           NONE
    Schwarz Cutoff:          1E-12
    Fitting Condition:       1E-10

   => Auxiliary Basis Set <=

  Basis Set: (AUG-CC-PV(D+D)Z AUX)
    Blend: AUG-CC-PVDZ-JKFIT
    Number of shells: 64
    Number of basis function: 182
    Number of Cartesian functions: 206
    Spherical Harmonics?: true
    Max angular momentum: 3

  Cached 100.0% of DFT collocation blocks in 0.129 [GiB].

  Minimum eigenvalue in the overlap matrix is 2.1017906937E-03.
  Using Symmetric Orthogonalization.

  SCF Guess: Superposition of Atomic Densities via on-the-fly atomic UHF.

  ==> Iterations <==

                           Total Energy        Delta E     RMS |[F,P]|

   @DF-RKS iter SAD:   -56.03760211070795   -5.60376e+01   0.00000e+00 
   @DF-RKS iter   1:   -56.37996393756894   -3.42362e-01   1.68280e-02 DIIS
   @DF-RKS iter   2:   -56.40905587919506   -2.90919e-02   1.52718e-02 DIIS
   @DF-RKS iter   3:   -56.54574659304567   -1.36691e-01   4.88101e-04 DIIS
   @DF-RKS iter   4:   -56.54606036652835   -3.13773e-04   1.12322e-04 DIIS
   @DF-RKS iter   5:   -56.54607528494788   -1.49184e-05   1.54584e-05 DIIS
   @DF-RKS iter   6:   -56.54607578148604   -4.96538e-07   4.44351e-06 DIIS
   @DF-RKS iter   7:   -56.54607583323131   -5.17453e-08   8.26126e-07 DIIS
   @DF-RKS iter   8:   -56.54607583622618   -2.99487e-09   1.57912e-07 DIIS
   @DF-RKS iter   9:   -56.54607583633330   -1.07121e-10   1.70468e-08 DIIS
   @DF-RKS iter  10:   -56.54607583633410   -7.95808e-13   1.90396e-09 DIIS
  Energy and wave function converged.


  ==> Post-Iterations <==

    Orbital Energies [Eh]
    ---------------------

    Doubly Occupied:                                                      

       1Ap   -14.406922     2Ap    -0.986239     3Ap    -0.571577  
       1App   -0.571462     4Ap    -0.379829  

    Virtual:                                                              

       5Ap     0.034254     6Ap     0.062570     2App    0.062602  
       7Ap     0.144396     8Ap     0.180966     3App    0.196573  
       9Ap     0.196611    10Ap     0.256064     4App    0.256261  
      11Ap     0.313163    12Ap     0.320237     5App    0.320382  
      13Ap     0.435640     6App    0.506778    14Ap     0.507141  
       7App    0.507307    15Ap     0.574357    16Ap     0.610088  
       8App    0.610233     9App    0.636849    17Ap     0.636940  
      18Ap     0.773604    19Ap     0.848454    10App    0.848531  
      20Ap     1.017308    21Ap     1.092275    11App    1.092465  
      22Ap     1.215072    12App    1.667131    23Ap     1.667598  
      13App    1.797356    24Ap     1.917976    14App    1.918418  
      25Ap     1.954631    15App    2.162568    26Ap     2.162946  
      27Ap     2.209100    28Ap     2.214175    16App    2.215856  
      29Ap     2.464705    17App    2.693052    30Ap     2.694240  
      31Ap     2.887522    32Ap     3.277379    18App    3.279300  

    Final Occupation by Irrep:
             Ap   App 
    DOCC [     4,    1 ]

  @DF-RKS Final Energy:   -56.54607583633410

   => Energetics <=

    Nuclear Repulsion Energy =             11.9690936360521647
    One-Electron Energy =                 -99.6067394546953153
    Two-Electron Energy =                  36.5094849763959175
    DFT Exchange-Correlation Energy =      -5.4597659966331946
    Empirical Dispersion Energy =           0.0000000000000000
    VV10 Nonlocal Energy =                  0.0418510025463257
    Total Energy =                        -56.5460758363341043

Computation Completed


Properties will be evaluated at   0.000000,   0.000000,   0.000000 [a0]

Properties computed using the SCF density matrix

  Nuclear Dipole Moment: [e a0]
     X:     0.5755      Y:     0.6916      Z:     0.0000

  Electronic Dipole Moment: [e a0]
     X:    -0.1749      Y:    -0.2104      Z:     0.0000

  Dipole Moment: [e a0]
     X:     0.4006      Y:     0.4812      Z:     0.0000     Total:     0.6261

  Dipole Moment: [D]
     X:     1.0183      Y:     1.2230      Z:     0.0000     Total:     1.5914


*** tstop() called on bp1-compute00107.data.bp.acrc.priv at Tue Apr 27 17:53:36 2021
Module time:
	user time   =      68.37 seconds =       1.14 minutes
	system time =       1.77 seconds =       0.03 minutes
	total time  =          3 seconds =       0.05 minutes
Total time:
	user time   =     552.62 seconds =       9.21 minutes
	system time =      16.04 seconds =       0.27 minutes
	total time  =         23 seconds =       0.38 minutes

  //>>>>>>>>>>>>>>>>>>>>>>>>>>>>>>>>>>>//
  //    Loading displacement 9 of 9    //
  //<<<<<<<<<<<<<<<<<<<<<<<<<<<<<<<<<<<//

*** tstart() called on bp1-compute00107.data.bp.acrc.priv
*** at Tue Apr 27 17:53:36 2021

   => Loading Basis Set <=

    Name: AUG-CC-PV(D+D)Z
    Role: ORBITAL
    Keyword: BASIS
    atoms 1   entry N          line   234 file /work/zw18965/.conda/envs/p4env/share/psi4/basis/aug-cc-pv_dpd_z.gbs 
    atoms 2-4 entry H          line    56 file /work/zw18965/.conda/envs/p4env/share/psi4/basis/aug-cc-pv_dpd_z.gbs 


         ---------------------------------------------------------
                                   SCF
               by Justin Turney, Rob Parrish, Andy Simmonett
                          and Daniel G. A. Smith
                              RKS Reference
                       24 Threads, 137329 MiB Core
         ---------------------------------------------------------

  ==> Geometry <==

    Molecular point group: cs
    Full point group: Cs

    Geometry (in Angstrom), charge = 0, multiplicity = 1:

       Center              X                  Y                   Z               Mass       
    ------------   -----------------  -----------------  -----------------  -----------------
         N           -0.044172539916    -0.053084193715     0.000000000000    14.003074004430
         H            0.563834188921    -0.053084193715     0.811358290031     1.007825032230
         H            0.563834188921    -0.053084193715    -0.811358290031     1.007825032230
         H           -0.513919636117     0.843738768485     0.000000000000     1.007825032230

  Running in cs symmetry.

  Rotational constants: A =      9.93436  B =      9.89884  C =      6.36683 [cm^-1]
  Rotational constants: A = 297824.55791  B = 296759.75157  C = 190872.89538 [MHz]
  Nuclear repulsion =   11.945294404176435

  Charge       = 0
  Multiplicity = 1
  Electrons    = 10
  Nalpha       = 5
  Nbeta        = 5

  ==> Algorithm <==

  SCF Algorithm Type is DF.
  DIIS enabled.
  MOM disabled.
  Fractional occupation disabled.
  Guess Type is SAD.
  Energy threshold   = 1.00e-08
  Density threshold  = 1.00e-08
  Integral threshold = 0.00e+00

  ==> Primary Basis <==

  Basis Set: AUG-CC-PV(D+D)Z
    Blend: AUG-CC-PV(D+D)Z
    Number of shells: 24
    Number of basis function: 50
    Number of Cartesian functions: 52
    Spherical Harmonics?: true
    Max angular momentum: 2

  ==> DFT Potential <==

   => Composite Functional: WB97X-V <= 

    wB97X-V Hyb-GGA Exchange-Correlation Functional

    N. Mardirossian and M. Head-Gordon, Phys. Chem. Chem. Phys. 16, 9904 (2014)

    Deriv               =              1
    GGA                 =           TRUE
[...]

  Dipole Moment: [e a0]
     X:     0.3929      Y:     0.4721      Z:    -0.0009     Total:     0.6142

  Dipole Moment: [D]
     X:     0.9985      Y:     1.2000      Z:    -0.0023     Total:     1.5611


*** tstop() called on bp1-compute00107.data.bp.acrc.priv at Tue Apr 27 17:55:58 2021
Module time:
	user time   =      75.10 seconds =       1.25 minutes
	system time =       1.75 seconds =       0.03 minutes
	total time  =          3 seconds =       0.05 minutes
Total time:
	user time   =    3876.21 seconds =      64.60 minutes
	system time =      97.21 seconds =       1.62 minutes
	total time  =        165 seconds =       2.75 minutes

  //>>>>>>>>>>>>>>>>>>>>>>>>>>>>>>>>>>>//
  //   Loading displacement 25 of 25   //
  //<<<<<<<<<<<<<<<<<<<<<<<<<<<<<<<<<<<//

*** tstart() called on bp1-compute00107.data.bp.acrc.priv
*** at Tue Apr 27 17:55:58 2021

   => Loading Basis Set <=

    Name: AUG-CC-PV(D+D)Z
    Role: ORBITAL
    Keyword: BASIS
    atoms 1   entry N          line   234 file /work/zw18965/.conda/envs/p4env/share/psi4/basis/aug-cc-pv_dpd_z.gbs 
    atoms 2-4 entry H          line    56 file /work/zw18965/.conda/envs/p4env/share/psi4/basis/aug-cc-pv_dpd_z.gbs 


         ---------------------------------------------------------
                                   SCF
               by Justin Turney, Rob Parrish, Andy Simmonett
                          and Daniel G. A. Smith
                              RKS Reference
                       24 Threads, 137329 MiB Core
         ---------------------------------------------------------

  ==> Geometry <==

    Molecular point group: c1
    Full point group: C1

    Geometry (in Angstrom), charge = 0, multiplicity = 1:

       Center              X                  Y                   Z               Mass       
    ------------   -----------------  -----------------  -----------------  -----------------
         N           -0.043477084762    -0.052247746960    -0.000264296739    14.003074004430
         H            0.563402035457    -0.058159082397     0.817282722875     1.007825032230
         H            0.564327228541    -0.061167696927    -0.816356232087     1.007825032230
         H           -0.523643419781     0.845275276189     0.002745740677     1.007825032230

  Running in c1 symmetry.

  Rotational constants: A =      9.88819  B =      9.83811  C =      6.26751 [cm^-1]
  Rotational constants: A = 296440.43956  B = 294939.02722  C = 187895.31432 [MHz]
  Nuclear repulsion =   11.889101208055633

  Charge       = 0
  Multiplicity = 1
  Electrons    = 10
  Nalpha       = 5
  Nbeta        = 5

  ==> Algorithm <==

  SCF Algorithm Type is DF.
  DIIS enabled.
  MOM disabled.
  Fractional occupation disabled.
  Guess Type is SAD.
  Energy threshold   = 1.00e-10
  Density threshold  = 1.00e-10
  Integral threshold = 0.00e+00

  ==> Primary Basis <==

  Basis Set: AUG-CC-PV(D+D)Z
    Blend: AUG-CC-PV(D+D)Z
    Number of shells: 24
    Number of basis function: 50
    Number of Cartesian functions: 52
    Spherical Harmonics?: true
    Max angular momentum: 2

  ==> DFT Potential <==

   => Composite Functional: WB97X-V <= 

    wB97X-V Hyb-GGA Exchange-Correlation Functional

    N. Mardirossian and M. Head-Gordon, Phys. Chem. Chem. Phys. 16, 9904 (2014)

    Deriv               =              1
    GGA                 =           TRUE
    Meta                =          FALSE

    Exchange Hybrid     =           TRUE
    MP2 Hybrid          =          FALSE

   => Exchange-Correlation Functionals <=

    1.0000   wB97X-V range-separated functional

   => Exact (HF) Exchange <=

    0.8330            HF,LR [omega = 0.3000]
    0.1670               HF 

   => VV10 Non-Local Parameters <=

    VV10 B              =     6.0000E+00
    VV10 C              =     1.0000E-02

   => Molecular Quadrature <=

    Radial Scheme          =       TREUTLER
    Pruning Scheme         =           FLAT
    Nuclear Scheme         =       TREUTLER

    BS radius alpha        =              1
    Pruning alpha          =              1
    Radial Points          =             75
    Spherical Points       =            302
    Total Points           =          90600
    Total Blocks           =            736
    Max Points             =            256
    Max Functions          =             50

   => Loading Basis Set <=

    Name: (AUG-CC-PV(D+D)Z AUX)
    Role: JKFIT
    Keyword: DF_BASIS_SCF
    atoms 1   entry N          line   212 file /work/zw18965/.conda/envs/p4env/share/psi4/basis/aug-cc-pvdz-jkfit.gbs 
    atoms 2-4 entry H          line    70 file /work/zw18965/.conda/envs/p4env/share/psi4/basis/aug-cc-pvdz-jkfit.gbs 

  ==> Pre-Iterations <==

   -------------------------------------------------------
    Irrep   Nso     Nmo     Nalpha   Nbeta   Ndocc  Nsocc
   -------------------------------------------------------
     A         50      50       0       0       0       0
   -------------------------------------------------------
    Total      50      50       5       5       5       0
   -------------------------------------------------------

  ==> Integral Setup <==

  ==> DiskDFJK: Density-Fitted J/K Matrices <==

    J tasked:                  Yes
    K tasked:                  Yes
    wK tasked:                 Yes
    Omega:               3.000E-01
    OpenMP threads:             24
    Integrals threads:          24
    Memory [MiB]:           102864
    Algorithm:                Core
    Integral Cache:           NONE
    Schwarz Cutoff:          1E-12
    Fitting Condition:       1E-10

   => Auxiliary Basis Set <=

  Basis Set: (AUG-CC-PV(D+D)Z AUX)
    Blend: AUG-CC-PVDZ-JKFIT
    Number of shells: 64
    Number of basis function: 182
    Number of Cartesian functions: 206
    Spherical Harmonics?: true
    Max angular momentum: 3

  Cached 100.0% of DFT collocation blocks in 0.129 [GiB].

  Minimum eigenvalue in the overlap matrix is 2.1919344035E-03.
  Using Symmetric Orthogonalization.

  SCF Guess: Superposition of Atomic Densities via on-the-fly atomic UHF.

  ==> Iterations <==

                           Total Energy        Delta E     RMS |[F,P]|

   @DF-RKS iter SAD:   -56.02898980015454   -5.60290e+01   0.00000e+00 
   @DF-RKS iter   1:   -56.38084416547414   -3.51854e-01   1.23072e-02 DIIS
   @DF-RKS iter   2:   -56.40815171461491   -2.73075e-02   1.12375e-02 DIIS
   @DF-RKS iter   3:   -56.54588381867148   -1.37732e-01   3.59374e-04 DIIS
   @DF-RKS iter   4:   -56.54620178017019   -3.17961e-04   8.37121e-05 DIIS
   @DF-RKS iter   5:   -56.54621722730947   -1.54471e-05   1.17774e-05 DIIS
   @DF-RKS iter   6:   -56.54621776191685   -5.34607e-07   3.37775e-06 DIIS
   @DF-RKS iter   7:   -56.54621781829197   -5.63751e-08   6.30828e-07 DIIS
   @DF-RKS iter   8:   -56.54621782155267   -3.26070e-09   1.18963e-07 DIIS
   @DF-RKS iter   9:   -56.54621782166581   -1.13133e-10   1.29275e-08 DIIS
   @DF-RKS iter  10:   -56.54621782166674   -9.30811e-13   1.40322e-09 DIIS
   @DF-RKS iter  11:   -56.54621782166663    1.06581e-13   1.05077e-10 DIIS
   @DF-RKS iter  12:   -56.54621782166670   -7.10543e-14   2.05489e-11 DIIS
  Energy and wave function converged.


  ==> Post-Iterations <==

    Orbital Energies [Eh]
    ---------------------

    Doubly Occupied:                                                      

       1A    -14.408519     2A     -0.982588     3A     -0.570913  
       4A     -0.569759     5A     -0.378116  

    Virtual:                                                              

       6A      0.034173     7A      0.062507     8A      0.062582  
       9A      0.144720    10A      0.180371    11A      0.196377  
      12A      0.196462    13A      0.254127    14A      0.254514  
      15A      0.310622    16A      0.320035    17A      0.320466  
      18A      0.436738    19A      0.505103    20A      0.505892  
      21A      0.506130    22A      0.572880    23A      0.608945  
      24A      0.609025    25A      0.635716    26A      0.636611  
      27A      0.770680    28A      0.847839    29A      0.848054  
      30A      1.010955    31A      1.092509    32A      1.093009  
      33A      1.214938    34A      1.670148    35A      1.670750  
      36A      1.788601    37A      1.918969    38A      1.919547  
      39A      1.948202    40A      2.164896    41A      2.165184  
      42A      2.198050    43A      2.198809    44A      2.200794  
      45A      2.446801    46A      2.685669    47A      2.687017  
      48A      2.884124    49A      3.263846    50A      3.264032  

    Final Occupation by Irrep:
              A 
    DOCC [     5 ]

  @DF-RKS Final Energy:   -56.54621782166670

   => Energetics <=

    Nuclear Repulsion Energy =             11.8891012080556333
    One-Electron Energy =                 -99.4637683069536820
    Two-Electron Energy =                  36.4395452179575159
    DFT Exchange-Correlation Energy =      -5.4529365507536252
    Empirical Dispersion Energy =           0.0000000000000000
    VV10 Nonlocal Energy =                  0.0418406100274546
    Total Energy =                        -56.5462178216667013

Computation Completed


Properties will be evaluated at   0.000000,   0.000000,   0.000000 [a0]

Properties computed using the SCF density matrix

  Nuclear Dipole Moment: [e a0]
     X:     0.5664      Y:     0.6807      Z:     0.0034

  Electronic Dipole Moment: [e a0]
     X:    -0.1736      Y:    -0.2086      Z:    -0.0025

  Dipole Moment: [e a0]
     X:     0.3929      Y:     0.4721      Z:     0.0009     Total:     0.6142

  Dipole Moment: [D]
     X:     0.9985      Y:     1.2000      Z:     0.0023     Total:     1.5611


*** tstop() called on bp1-compute00107.data.bp.acrc.priv at Tue Apr 27 17:56:02 2021
Module time:
	user time   =      74.20 seconds =       1.24 minutes
	system time =       1.72 seconds =       0.03 minutes
	total time  =          4 seconds =       0.07 minutes
Total time:
	user time   =    3950.55 seconds =      65.84 minutes
	system time =      98.94 seconds =       1.65 minutes
	total time  =        169 seconds =       2.82 minutes

         ----------------------------------------------------------
                                   FINDIF
                     R. A. King and Jonathon Misiewicz
         ---------------------------------------------------------

  Computing second-derivative from energies using projected, 
  symmetry-adapted, cartesian coordinates.

  25 energies passed in, including the reference geometry.
    Using 3-point formula.
    Energy without displacement:  -56.5462200752
    Check energies below for precision!
    0: -1        :       -56.5462172301
    0: 1         :       -56.5462174635
    1: -1        :       -56.5462174171
    1: 1         :       -56.5462176657
    2: -1        :       -56.5462159165
    2: 1         :       -56.5462156633
    3: -1        :       -56.5462159153
    3: 1         :       -56.5462156640
    0: 1, 1: 1   :       -56.5462181296
    0: -1, 1: -1 :       -56.5462176222
    0: 1, 2: 1   :       -56.5462121680
    0: -1, 2: -1 :       -56.5462121396
    1: 1, 2: 1   :       -56.5462173500
    1: -1, 2: -1 :       -56.5462173717
    0: 1, 3: 1   :       -56.5462171934
    0: -1, 3: -1 :       -56.5462172343
    1: 1, 3: 1   :       -56.5462126117
    1: -1, 3: -1 :       -56.5462126142
    2: 1, 3: 1   :       -56.5462094281
    2: -1, 3: -1 :       -56.5462098991
    4: -1        :       -56.5462159072
    5: -1        :       -56.5462170838
    4: 1, 5: 1   :       -56.5462178214
    4: -1, 5: -1 :       -56.5462178217

-------------------------------------------------------------


  ==> Harmonic Vibrational Analysis <==

  non-mass-weighted Hessian:       Symmetric? True   Hermitian? True   Lin Dep Dim?  6 (0)
  projection of translations (True) and rotations (True) removed 6 degrees of freedom (6)
  total projector:                 Symmetric? True   Hermitian? True   Lin Dep Dim?  6 (6)
  mass-weighted Hessian:           Symmetric? True   Hermitian? True   Lin Dep Dim?  6 (0)
  pre-proj  low-frequency mode:    0.0000i [cm^-1]
  pre-proj  low-frequency mode:    0.0000i [cm^-1]
  pre-proj  low-frequency mode:    0.0000  [cm^-1]
  pre-proj  low-frequency mode:    0.0000  [cm^-1]
  pre-proj  low-frequency mode:    0.0000  [cm^-1]
  pre-proj  low-frequency mode:    0.0001  [cm^-1]
  pre-proj  all modes:['0.0000i' '0.0000i' '0.0000' '0.0000' '0.0000' '0.0001' '1026.7393'
 '1494.9807' '1644.7116' '3502.6695' '3591.6069' '3635.1594']
  projected mass-weighted Hessian: Symmetric? True   Hermitian? True   Lin Dep Dim?  6 (6)
  post-proj low-frequency mode:    0.0001i [cm^-1] (TR)
  post-proj low-frequency mode:    0.0001i [cm^-1] (TR)
  post-proj low-frequency mode:    0.0000i [cm^-1] (TR)
  post-proj low-frequency mode:    0.0000i [cm^-1] (TR)
  post-proj low-frequency mode:    0.0000  [cm^-1] (TR)
  post-proj low-frequency mode:    0.0000  [cm^-1] (TR)
  post-proj  all modes:['0.0001i' '0.0001i' '0.0000i' '0.0000i' '0.0000' '0.0000' '1026.7393'
 '1494.9807' '1644.7116' '3502.6695' '3591.6069' '3635.1594']

  Vibration                       7                   8                   9           
  Freq [cm^-1]                1026.7393           1494.9807           1644.7116       
  Irrep                           Ap                 App                  Ap          
  Reduced mass [u]              1.1804              1.0605              1.0658        
  Force const [mDyne/A]         0.7332              1.3965              1.6987        
  Turning point v=0 [a0]        0.3152              0.2756              0.2621        
  RMS dev v=0 [a0 u^1/2]        0.2421              0.2007              0.1913        
  Char temp [K]               1477.2492           2150.9444           2366.3739       
  ----------------------------------------------------------------------------------
      1   N               -0.07 -0.09 -0.00    0.00 -0.00 -0.06   -0.05  0.04 -0.00   
      2   H                0.26  0.48 -0.18   -0.18  0.42  0.06    0.49 -0.25 -0.39   
      3   H                0.26  0.48  0.18    0.18 -0.42  0.06    0.49 -0.25  0.39   
      4   H                0.50  0.28 -0.00    0.00 -0.00  0.76   -0.27 -0.10  0.00   

  Vibration                       10                  11                  12          
  Freq [cm^-1]                3502.6695           3591.6069           3635.1594       
  Irrep                           Ap                 App                  Ap          
  Reduced mass [u]              1.0269              1.0954              1.0899        
  Force const [mDyne/A]         7.4229              8.3254              8.4853        
  Turning point v=0 [a0]        0.1830              0.1749              0.1743        
  RMS dev v=0 [a0 u^1/2]        0.1311              0.1295              0.1287        
  Char temp [K]               5039.5615           5167.5227           5230.1851       
  ----------------------------------------------------------------------------------
      1   N               -0.02 -0.03  0.00   -0.00 -0.00 -0.08    0.06 -0.05 -0.00   
      2   H                0.32 -0.04  0.48    0.42 -0.00  0.57   -0.23 -0.00 -0.34   
      3   H                0.32 -0.04 -0.48   -0.42  0.00  0.57   -0.23 -0.00  0.34   
      4   H               -0.31  0.49 -0.00   -0.00  0.00  0.01   -0.39  0.71 -0.00   

  ==> Thermochemistry Components <==

  Entropy, S
    Electronic S            0.000 [cal/(mol K)]        0.000 [J/(mol K)]       0.00000000 [mEh/K] (multiplicity = 1)
    Translational S        34.441 [cal/(mol K)]      144.100 [J/(mol K)]       0.05488488 [mEh/K] (mol. weight = 17.0265 [u], P = 101325.00 [Pa])
    Rotational S           13.645 [cal/(mol K)]       57.092 [J/(mol K)]       0.02174514 [mEh/K] (symmetry no. = 1)
    Vibrational S           0.102 [cal/(mol K)]        0.428 [J/(mol K)]       0.00016309 [mEh/K]
  Total S                  48.188 [cal/(mol K)]      201.620 [J/(mol K)]       0.07679312 [mEh/K]
  Correction S              0.000 [cal/(mol K)]        0.000 [J/(mol K)]       0.00000000 [mEh/K]

  Constant volume heat capacity, Cv
    Electronic Cv           0.000 [cal/(mol K)]        0.000 [J/(mol K)]       0.00000000 [mEh/K]
    Translational Cv        2.981 [cal/(mol K)]       12.472 [J/(mol K)]       0.00475022 [mEh/K]
    Rotational Cv           2.981 [cal/(mol K)]       12.472 [J/(mol K)]       0.00475022 [mEh/K]
    Vibrational Cv          0.470 [cal/(mol K)]        1.966 [J/(mol K)]       0.00074881 [mEh/K]
  Total Cv                  6.431 [cal/(mol K)]       26.909 [J/(mol K)]       0.01024924 [mEh/K]
  Correction Cv             0.000 [cal/(mol K)]        0.000 [J/(mol K)]       0.00000000 [mEh/K]

  Constant pressure heat capacity, Cp
    Electronic Cp           0.000 [cal/(mol K)]        0.000 [J/(mol K)]       0.00000000 [mEh/K]
    Translational Cp        4.968 [cal/(mol K)]       20.786 [J/(mol K)]       0.00791703 [mEh/K]
    Rotational Cp           2.981 [cal/(mol K)]       12.472 [J/(mol K)]       0.00475022 [mEh/K]
    Vibrational Cp          0.470 [cal/(mol K)]        1.966 [J/(mol K)]       0.00074881 [mEh/K]
  Total Cp                  8.419 [cal/(mol K)]       35.224 [J/(mol K)]       0.01341606 [mEh/K]
  Correction Cp             0.000 [cal/(mol K)]        0.000 [J/(mol K)]       0.00000000 [mEh/K]

  ==> Thermochemistry Energy Analysis <==

  Raw electronic energy, E0
  Total E0, Electronic energy at well bottom at 0 [K]                  -56.54622008 [Eh]

  Zero-point energy, ZPE_vib = Sum_i nu_i / 2
    Electronic ZPE          0.000 [kcal/mol]        0.000 [kJ/mol]       0.00000000 [Eh]
    Translational ZPE       0.000 [kcal/mol]        0.000 [kJ/mol]       0.00000000 [Eh]
    Rotational ZPE          0.000 [kcal/mol]        0.000 [kJ/mol]       0.00000000 [Eh]
    Vibrational ZPE        21.295 [kcal/mol]       89.097 [kJ/mol]       0.03393528 [Eh]        7447.934 [cm^-1]
  Correction ZPE           21.295 [kcal/mol]       89.097 [kJ/mol]       0.03393528 [Eh]        7447.934 [cm^-1]
  Total ZPE, Electronic energy at 0 [K]                                -56.51228479 [Eh]

  Thermal Energy, E (includes ZPE)
    Electronic E            0.000 [kcal/mol]        0.000 [kJ/mol]       0.00000000 [Eh]
    Translational E         0.889 [kcal/mol]        3.718 [kJ/mol]       0.00141628 [Eh]
    Rotational E            0.889 [kcal/mol]        3.718 [kJ/mol]       0.00141628 [Eh]
    Vibrational E          21.320 [kcal/mol]       89.204 [kJ/mol]       0.03397620 [Eh]
  Correction E             23.098 [kcal/mol]       96.641 [kJ/mol]       0.03680875 [Eh]
  Total E, Electronic energy at  298.15 [K]                            -56.50941133 [Eh]

  Enthalpy, H_trans = E_trans + k_B * T
    Electronic H            0.000 [kcal/mol]        0.000 [kJ/mol]       0.00000000 [Eh]
    Translational H         1.481 [kcal/mol]        6.197 [kJ/mol]       0.00236046 [Eh]
    Rotational H            0.889 [kcal/mol]        3.718 [kJ/mol]       0.00141628 [Eh]
    Vibrational H          21.320 [kcal/mol]       89.204 [kJ/mol]       0.03397620 [Eh]
  Correction H             23.690 [kcal/mol]       99.120 [kJ/mol]       0.03775293 [Eh]
  Total H, Enthalpy at  298.15 [K]                                     -56.50846714 [Eh]

  Gibbs free energy, G = H - T * S
    Electronic G            0.000 [kcal/mol]        0.000 [kJ/mol]       0.00000000 [Eh]
    Translational G        -8.787 [kcal/mol]      -36.766 [kJ/mol]      -0.01400347 [Eh]
    Rotational G           -3.180 [kcal/mol]      -13.304 [kJ/mol]      -0.00506704 [Eh]
    Vibrational G          21.290 [kcal/mol]       89.077 [kJ/mol]       0.03392757 [Eh]
  Correction G              9.323 [kcal/mol]       39.007 [kJ/mol]       0.01485707 [Eh]
  Total G, Free enthalpy at  298.15 [K]                                -56.53136301 [Eh]

    Psi4 stopped on: Tuesday, 27 April 2021 05:56PM
    Psi4 wall time for execution: 0:02:49.26

*** Psi4 exiting successfully. Buy a developer a beer!
