
    -----------------------------------------------------------------------
          Psi4: An Open-Source Ab Initio Electronic Structure Package
                               Psi4 1.3.2 release

                         Git: Rev {HEAD} ecbda83 


    R. M. Parrish, L. A. Burns, D. G. A. Smith, A. C. Simmonett,
    A. E. DePrince III, E. G. Hohenstein, U. Bozkaya, A. Yu. Sokolov,
    R. Di Remigio, R. M. Richard, J. F. Gonthier, A. M. James,
    H. R. McAlexander, A. Kumar, M. Saitow, X. Wang, B. P. Pritchard,
    P. Verma, H. F. Schaefer III, K. Patkowski, R. A. King, E. F. Valeev,
    F. A. Evangelista, J. M. Turney, T. D. Crawford, and C. D. Sherrill,
    J. Chem. Theory Comput. 13(7) pp 3185--3197 (2017).
    (doi: 10.1021/acs.jctc.7b00174)


                         Additional Contributions by
    P. Kraus, H. Kruse, M. H. Lechner, M. C. Schieber, R. A. Shaw,
    A. Alenaizan, R. Galvelis, Z. L. Glick, S. Lehtola, and J. P. Misiewicz

    -----------------------------------------------------------------------


    Psi4 started on: Tuesday, 27 April 2021 05:54PM

    Process ID: 173754
    Host:       bp1-compute00139.data.bp.acrc.priv
    PSIDATADIR: /work/zw18965/.conda/envs/p4env/share/psi4
    Memory:     500.0 MiB
    Threads:    24
    
  ==> Input File <==

--------------------------------------------------------------------------
memory 144 GB

molecule {
0 1
S 0.0000000000 0.0000000000 0.0000000000
O 0.0000000000 0.0000000000 1.4355085900
O 1.2508167239 0.0000000000 -0.7043737894
}

set dynamic_level 1
set basis aug-cc-pV(D+d)Z
 
optimize("wB97X-V")
frequencies("wB97X-V")
--------------------------------------------------------------------------

  Memory set to 134.110 GiB by Python driver.
gradient() will perform gradient computation by finite difference of analytic energies.

         ----------------------------------------------------------
                                   FINDIF
                     R. A. King and Jonathon Misiewicz
         ---------------------------------------------------------

  Using finite-differences of energies to determine gradients.
    Generating geometries for use with 3-point formula.
    Displacement size will be 5.00e-03.
    Number of atoms is 3.
    Number of symmetric SALCs is 2.
    Translations projected? 1. Rotations projected? 1.
    Number of geometries (including reference) is 5.

  //>>>>>>>>>>>>>>>>>>>>>>>>>>>>>>>>>>>//
  //    Loading displacement 1 of 5    //
  //<<<<<<<<<<<<<<<<<<<<<<<<<<<<<<<<<<<//

*** tstart() called on bp1-compute00139.data.bp.acrc.priv
*** at Tue Apr 27 17:54:09 2021

   => Loading Basis Set <=

    Name: AUG-CC-PV(D+D)Z
    Role: ORBITAL
    Keyword: BASIS
    atoms 1   entry S          line   724 file /work/zw18965/.conda/envs/p4env/share/psi4/basis/aug-cc-pv_dpd_z.gbs 
    atoms 2-3 entry O          line   270 file /work/zw18965/.conda/envs/p4env/share/psi4/basis/aug-cc-pv_dpd_z.gbs 


         ---------------------------------------------------------
                                   SCF
               by Justin Turney, Rob Parrish, Andy Simmonett
                          and Daniel G. A. Smith
                              RKS Reference
                       24 Threads, 137329 MiB Core
         ---------------------------------------------------------

  ==> Geometry <==

    Molecular point group: c2v
    Full point group: C2v

    Geometry (in Angstrom), charge = 0, multiplicity = 1:

       Center              X                  Y                   Z               Mass       
    ------------   -----------------  -----------------  -----------------  -----------------
         S           -0.000000000000     0.000000000000    -0.362307388741    31.972071174400
         O           -0.000000000000     1.239318267683     0.362106266127    15.994914619570
         O            0.000000000000    -1.239318267683     0.362106266127    15.994914619570

  Running in c2v symmetry.

  Rotational constants: A =      2.00892  B =      0.34310  C =      0.29305 [cm^-1]
  Rotational constants: A =  60225.80440  B =  10285.83551  C =   8785.39654 [MHz]
  Nuclear repulsion =  108.033990949454420

  Charge       = 0
  Multiplicity = 1
  Electrons    = 32
  Nalpha       = 16
  Nbeta        = 16

  ==> Algorithm <==

  SCF Algorithm Type is DF.
  DIIS enabled.
  MOM disabled.
  Fractional occupation disabled.
  Guess Type is SAD.
  Energy threshold   = 1.00e-08
  Density threshold  = 1.00e-08
  Integral threshold = 0.00e+00

  ==> Primary Basis <==

  Basis Set: AUG-CC-PV(D+D)Z
    Blend: AUG-CC-PV(D+D)Z
    Number of shells: 30
    Number of basis function: 78
    Number of Cartesian functions: 85
    Spherical Harmonics?: true
    Max angular momentum: 2

  ==> DFT Potential <==

   => Composite Functional: WB97X-V <= 

    wB97X-V Hyb-GGA Exchange-Correlation Functional

    N. Mardirossian and M. Head-Gordon, Phys. Chem. Chem. Phys. 16, 9904 (2014)

    Deriv               =              1
    GGA                 =           TRUE
    Meta                =          FALSE

    Exchange Hybrid     =           TRUE
    MP2 Hybrid          =          FALSE

   => Exchange-Correlation Functionals <=

    1.0000   wB97X-V range-separated functional

   => Exact (HF) Exchange <=

    0.8330            HF,LR [omega = 0.3000]
    0.1670               HF 

   => VV10 Non-Local Parameters <=

    VV10 B              =     6.0000E+00
    VV10 C              =     1.0000E-02

   => Molecular Quadrature <=

    Radial Scheme          =       TREUTLER
    Pruning Scheme         =           FLAT
    Nuclear Scheme         =       TREUTLER

    BS radius alpha        =              1
    Pruning alpha          =              1
    Radial Points          =             75
    Spherical Points       =            302
    Total Points           =          67678
    Total Blocks           =            594
    Max Points             =            256
    Max Functions          =             78

   => Loading Basis Set <=

    Name: (AUG-CC-PV(D+D)Z AUX)
    Role: JKFIT
    Keyword: DF_BASIS_SCF
    atoms 1   entry S          line   690 file /work/zw18965/.conda/envs/p4env/share/psi4/basis/aug-cc-pvdz-jkfit.gbs 
    atoms 2-3 entry O          line   270 file /work/zw18965/.conda/envs/p4env/share/psi4/basis/aug-cc-pvdz-jkfit.gbs 

  ==> Pre-Iterations <==

   -------------------------------------------------------
    Irrep   Nso     Nmo     Nalpha   Nbeta   Ndocc  Nsocc
   -------------------------------------------------------
     A1        31      31       0       0       0       0
     A2        10      10       0       0       0       0
     B1        14      14       0       0       0       0
     B2        23      23       0       0       0       0
   -------------------------------------------------------
    Total      78      78      16      16      16       0
   -------------------------------------------------------

  ==> Integral Setup <==

  ==> DiskDFJK: Density-Fitted J/K Matrices <==

    J tasked:                  Yes
    K tasked:                  Yes
    wK tasked:                 Yes
    Omega:               3.000E-01
    OpenMP threads:             24
    Integrals threads:          24
    Memory [MiB]:           102852
    Algorithm:                Core
    Integral Cache:           NONE
    Schwarz Cutoff:          1E-12
    Fitting Condition:       1E-10

   => Auxiliary Basis Set <=

  Basis Set: (AUG-CC-PV(D+D)Z AUX)
    Blend: AUG-CC-PVDZ-JKFIT
    Number of shells: 96
    Number of basis function: 300
    Number of Cartesian functions: 352
    Spherical Harmonics?: true
    Max angular momentum: 3

  Cached 100.0% of DFT collocation blocks in 0.141 [GiB].

  Minimum eigenvalue in the overlap matrix is 2.1739690041E-03.
  Using Symmetric Orthogonalization.

  SCF Guess: Superposition of Atomic Densities via on-the-fly atomic UHF.

  ==> Iterations <==

                           Total Energy        Delta E     RMS |[F,P]|

   @DF-RKS iter SAD:  -548.35891225589364   -5.48359e+02   0.00000e+00 
   @DF-RKS iter   1:  -548.33644377099665    2.24685e-02   1.65520e-02 DIIS
   @DF-RKS iter   2:  -548.22506166306732    1.11382e-01   2.16150e-02 DIIS
   @DF-RKS iter   3:  -548.52888172306291   -3.03820e-01   7.64711e-04 DIIS
   @DF-RKS iter   4:  -548.52933574761448   -4.54025e-04   1.71122e-04 DIIS
   @DF-RKS iter   5:  -548.52938453529714   -4.87877e-05   3.59887e-05 DIIS
   @DF-RKS iter   6:  -548.52938744699009   -2.91169e-06   8.94573e-06 DIIS
   @DF-RKS iter   7:  -548.52938770126332   -2.54273e-07   2.67168e-06 DIIS
   @DF-RKS iter   8:  -548.52938771858726   -1.73239e-08   6.90316e-07 DIIS
   @DF-RKS iter   9:  -548.52938771960476   -1.01750e-09   1.70189e-07 DIIS
   @DF-RKS iter  10:  -548.52938771965682   -5.20686e-11   2.31201e-08 DIIS
   @DF-RKS iter  11:  -548.52938771965898   -2.16005e-12   5.37772e-09 DIIS
  Energy and wave function converged.


  ==> Post-Iterations <==

    Orbital Energies [Eh]
    ---------------------

    Doubly Occupied:                                                      

       1A1   -89.082004     1B2   -19.298679     2A1   -19.298665  
       3A1    -8.226141     1B1    -6.182149     2B2    -6.181399  
       4A1    -6.175714     5A1    -1.293647     3B2    -1.197427  
       6A1    -0.766063     7A1    -0.619035     2B1    -0.618743  
       4B2    -0.616184     1A2    -0.485582     5B2    -0.474356  
       8A1    -0.443380  

    Virtual:                                                              

       3B1    -0.043461     9A1     0.070963     6B2     0.079559  
      10A1     0.081929     4B1     0.091774    11A1     0.161890  
       7B2     0.184136    12A1     0.207254     8B2     0.213925  
       2A2     0.216785    13A1     0.238805     5B1     0.240280  
       9B2     0.284190     6B1     0.333195    14A1     0.340907  
      10B2     0.381409    15A1     0.403748     3A2     0.418150  
      16A1     0.543972    11B2     0.620397     7B1     0.644606  
      17A1     0.673988    12B2     0.747411     4A2     0.813019  
      18A1     0.833052    19A1     0.847496     8B1     0.859512  
       9B1     0.927300    13B2     0.941883    20A1     0.944977  
       5A2     0.980214    21A1     1.048847    14B2     1.096164  
      10B1     1.137204    15B2     1.154744     6A2     1.166524  
      22A1     1.218095    16B2     1.351350    23A1     1.353279  
      17B2     1.408309    11B1     1.430462     7A2     1.433540  
      24A1     1.599111    18B2     1.675570    25A1     1.695209  
      19B2     2.619085    26A1     2.756304    12B1     3.269971  
      27A1     3.284406     8A2     3.315010    20B2     3.322581  
      13B1     3.339875    28A1     3.352321     9A2     3.359087  
      21B2     3.420969    29A1     3.433698    22B2     3.560706  
      14B1     4.583458    30A1     4.583777    10A2     4.660629  
      23B2     4.761841    31A1     4.798351  

    Final Occupation by Irrep:
             A1    A2    B1    B2 
    DOCC [     8,    1,    2,    5 ]

  @DF-RKS Final Energy:  -548.52938771965898

   => Energetics <=

    Nuclear Repulsion Energy =            108.0339909494544202
    One-Electron Energy =                -969.7176346414182717
    Two-Electron Energy =                 344.6958366657666488
    DFT Exchange-Correlation Energy =     -31.6742004409000977
    Empirical Dispersion Energy =           0.0000000000000000
    VV10 Nonlocal Energy =                  0.1326197474383534
    Total Energy =                       -548.5293877196590984

Computation Completed


Properties will be evaluated at   0.000000,   0.000000,   0.000000 [a0]

Properties computed using the SCF density matrix

  Nuclear Dipole Moment: [e a0]
     X:     0.0000      Y:     0.0000      Z:    -0.0061

  Electronic Dipole Moment: [e a0]
     X:     0.0000      Y:     0.0000      Z:    -0.6616

  Dipole Moment: [e a0]
     X:     0.0000      Y:     0.0000      Z:    -0.6676     Total:     0.6676

  Dipole Moment: [D]
     X:     0.0000      Y:     0.0000      Z:    -1.6970     Total:     1.6970


*** tstop() called on bp1-compute00139.data.bp.acrc.priv at Tue Apr 27 17:54:12 2021
Module time:
	user time   =      67.94 seconds =       1.13 minutes
	system time =       2.93 seconds =       0.05 minutes
	total time  =          3 seconds =       0.05 minutes
Total time:
	user time   =      67.94 seconds =       1.13 minutes
	system time =       2.93 seconds =       0.05 minutes
	total time  =          3 seconds =       0.05 minutes

  //>>>>>>>>>>>>>>>>>>>>>>>>>>>>>>>>>>>//
  //    Loading displacement 2 of 5    //
  //<<<<<<<<<<<<<<<<<<<<<<<<<<<<<<<<<<<//

*** tstart() called on bp1-compute00139.data.bp.acrc.priv
*** at Tue Apr 27 17:54:12 2021

   => Loading Basis Set <=

    Name: AUG-CC-PV(D+D)Z
    Role: ORBITAL
    Keyword: BASIS
    atoms 1   entry S          line   724 file /work/zw18965/.conda/envs/p4env/share/psi4/basis/aug-cc-pv_dpd_z.gbs 
    atoms 2-3 entry O          line   270 file /work/zw18965/.conda/envs/p4env/share/psi4/basis/aug-cc-pv_dpd_z.gbs 


         ---------------------------------------------------------
                                   SCF
               by Justin Turney, Rob Parrish, Andy Simmonett
                          and Daniel G. A. Smith
                              RKS Reference
                       24 Threads, 137329 MiB Core
         ---------------------------------------------------------

  ==> Geometry <==

    Molecular point group: c2v
    Full point group: C2v

    Geometry (in Angstrom), charge = 0, multiplicity = 1:

       Center              X                  Y                   Z               Mass       
    ------------   -----------------  -----------------  -----------------  -----------------
         S           -0.000000000000     0.000000000000    -0.362638314850    31.972071174400
         O           -0.000000000000     1.239318267683     0.362437008534    15.994914619570
         O            0.000000000000    -1.239318267683     0.362437008534    15.994914619570

  Running in c2v symmetry.

  Rotational constants: A =      2.00525  B =      0.34310  C =      0.29297 [cm^-1]
  Rotational constants: A =  60115.93627  B =  10285.83551  C =   8783.05498 [MHz]
  Nuclear repulsion =  108.012037764378604

  Charge       = 0
  Multiplicity = 1
  Electrons    = 32
  Nalpha       = 16
  Nbeta        = 16

  ==> Algorithm <==

  SCF Algorithm Type is DF.
  DIIS enabled.
  MOM disabled.
  Fractional occupation disabled.
  Guess Type is SAD.
  Energy threshold   = 1.00e-08
  Density threshold  = 1.00e-08
  Integral threshold = 0.00e+00

  ==> Primary Basis <==

  Basis Set: AUG-CC-PV(D+D)Z
    Blend: AUG-CC-PV(D+D)Z
    Number of shells: 30
    Number of basis function: 78
    Number of Cartesian functions: 85
    Spherical Harmonics?: true
    Max angular momentum: 2

  ==> DFT Potential <==

   => Composite Functional: WB97X-V <= 

    wB97X-V Hyb-GGA Exchange-Correlation Functional

    N. Mardirossian and M. Head-Gordon, Phys. Chem. Chem. Phys. 16, 9904 (2014)

    Deriv               =              1
    GGA                 =           TRUE
    Meta                =          FALSE

    Exchange Hybrid     =           TRUE
    MP2 Hybrid          =          FALSE

   => Exchange-Correlation Functionals <=

    1.0000   wB97X-V range-separated functional

   => Exact (HF) Exchange <=

    0.8330            HF,LR [omega = 0.3000]
    0.1670               HF 

   => VV10 Non-Local Parameters <=

    VV10 B              =     6.0000E+00
    VV10 C              =     1.0000E-02

   => Molecular Quadrature <=

    Radial Scheme          =       TREUTLER
    Pruning Scheme         =           FLAT
    Nuclear Scheme         =       TREUTLER

    BS radius alpha        =              1
    Pruning alpha          =              1
    Radial Points          =             75
    Spherical Points       =            302
    Total Points           =          67678
    Total Blocks           =            594
    Max Points             =            256
    Max Functions          =             78

   => Loading Basis Set <=

    Name: (AUG-CC-PV(D+D)Z AUX)
    Role: JKFIT
    Keyword: DF_BASIS_SCF
    atoms 1   entry S          line   690 file /work/zw18965/.conda/envs/p4env/share/psi4/basis/aug-cc-pvdz-jkfit.gbs 
    atoms 2-3 entry O          line   270 file /work/zw18965/.conda/envs/p4env/share/psi4/basis/aug-cc-pvdz-jkfit.gbs 

  ==> Pre-Iterations <==

   -------------------------------------------------------
    Irrep   Nso     Nmo     Nalpha   Nbeta   Ndocc  Nsocc
   -------------------------------------------------------
     A1        31      31       0       0       0       0
     A2        10      10       0       0       0       0
     B1        14      14       0       0       0       0
     B2        23      23       0       0       0       0
   -------------------------------------------------------
    Total      78      78      16      16      16       0
   -------------------------------------------------------

  ==> Integral Setup <==

  ==> DiskDFJK: Density-Fitted J/K Matrices <==

    J tasked:                  Yes
    K tasked:                  Yes
    wK tasked:                 Yes
    Omega:               3.000E-01
    OpenMP threads:             24
    Integrals threads:          24
    Memory [MiB]:           102852
    Algorithm:                Core
    Integral Cache:           NONE
    Schwarz Cutoff:          1E-12
    Fitting Condition:       1E-10

   => Auxiliary Basis Set <=

  Basis Set: (AUG-CC-PV(D+D)Z AUX)
    Blend: AUG-CC-PVDZ-JKFIT
    Number of shells: 96
    Number of basis function: 300
    Number of Cartesian functions: 352
    Spherical Harmonics?: true
    Max angular momentum: 3

  Cached 100.0% of DFT collocation blocks in 0.141 [GiB].

  Minimum eigenvalue in the overlap matrix is 2.1759167424E-03.
  Using Symmetric Orthogonalization.

  SCF Guess: Superposition of Atomic Densities via on-the-fly atomic UHF.

  ==> Iterations <==

                           Total Energy        Delta E     RMS |[F,P]|

   @DF-RKS iter SAD:  -548.35752926236671   -5.48358e+02   0.00000e+00 
   @DF-RKS iter   1:  -548.33633521372371    2.11940e-02   1.65557e-02 DIIS
   @DF-RKS iter   2:  -548.22455249718507    1.11783e-01   2.16315e-02 DIIS
   @DF-RKS iter   3:  -548.52889967966235   -3.04347e-01   7.64812e-04 DIIS
   @DF-RKS iter   4:  -548.52935368399505   -4.54004e-04   1.71263e-04 DIIS
   @DF-RKS iter   5:  -548.52940246922390   -4.87852e-05   3.60035e-05 DIIS
   @DF-RKS iter   6:  -548.52940538054952   -2.91133e-06   8.94450e-06 DIIS
   @DF-RKS iter   7:  -548.52940563443667   -2.53887e-07   2.67462e-06 DIIS
   @DF-RKS iter   8:  -548.52940565178062   -1.73440e-08   6.91057e-07 DIIS
   @DF-RKS iter   9:  -548.52940565279914   -1.01852e-09   1.70344e-07 DIIS
   @DF-RKS iter  10:  -548.52940565285064   -5.15001e-11   2.30519e-08 DIIS
   @DF-RKS iter  11:  -548.52940565285280   -2.16005e-12   5.36644e-09 DIIS
  Energy and wave function converged.


  ==> Post-Iterations <==

    Orbital Energies [Eh]
    ---------------------

    Doubly Occupied:                                                      

       1A1   -89.082079     1B2   -19.298691     2A1   -19.298677  
       3A1    -8.226204     1B1    -6.182213     2B2    -6.181461  
       4A1    -6.175779     5A1    -1.293476     3B2    -1.197248  
       6A1    -0.766157     7A1    -0.618954     2B1    -0.618639  
       4B2    -0.616131     1A2    -0.485474     5B2    -0.474244  
       8A1    -0.443437  

    Virtual:                                                              

       3B1    -0.043597     9A1     0.070963     6B2     0.079517  
      10A1     0.081901     4B1     0.091769    11A1     0.161889  
       7B2     0.184010    12A1     0.207275     8B2     0.213797  
       2A2     0.216806    13A1     0.238754     5B1     0.240264  
       9B2     0.284203     6B1     0.333227    14A1     0.340939  
      10B2     0.381374    15A1     0.403815     3A2     0.417975  
      16A1     0.543734    11B2     0.620259     7B1     0.644608  
      17A1     0.673959    12B2     0.747382     4A2     0.813043  
      18A1     0.833011    19A1     0.847399     8B1     0.859463  
       9B1     0.927150    13B2     0.941884    20A1     0.944887  
       5A2     0.980337    21A1     1.048609    14B2     1.096111  
      10B1     1.137180    15B2     1.154675     6A2     1.166401  
      22A1     1.217996    16B2     1.351198    23A1     1.353140  
      17B2     1.408134    11B1     1.430292     7A2     1.433198  
      24A1     1.598887    18B2     1.675464    25A1     1.694818  
      19B2     2.619062    26A1     2.756131    12B1     3.269939  
      27A1     3.284405     8A2     3.315116    20B2     3.322580  
      13B1     3.339928    28A1     3.352452     9A2     3.359118  
      21B2     3.421224    29A1     3.433190    22B2     3.560213  
      14B1     4.583446    30A1     4.583772    10A2     4.660416  
      23B2     4.761823    31A1     4.797919  

    Final Occupation by Irrep:
             A1    A2    B1    B2 
    DOCC [     8,    1,    2,    5 ]

  @DF-RKS Final Energy:  -548.52940565285280

   => Energetics <=

    Nuclear Repulsion Energy =            108.0120377643786043
    One-Electron Energy =                -969.6746284534594906
    Two-Electron Energy =                 344.6743574277975313
    DFT Exchange-Correlation Energy =     -31.6737925991952771
    Empirical Dispersion Energy =           0.0000000000000000
    VV10 Nonlocal Energy =                  0.1326202076258396
    Total Energy =                       -548.5294056528528017

Computation Completed


Properties will be evaluated at   0.000000,   0.000000,   0.000000 [a0]

Properties computed using the SCF density matrix

  Nuclear Dipole Moment: [e a0]
     X:     0.0000      Y:     0.0000      Z:    -0.0061

  Electronic Dipole Moment: [e a0]
     X:     0.0000      Y:     0.0000      Z:    -0.6629

  Dipole Moment: [e a0]
     X:     0.0000      Y:     0.0000      Z:    -0.6689     Total:     0.6689

  Dipole Moment: [D]
     X:     0.0000      Y:     0.0000      Z:    -1.7003     Total:     1.7003


*** tstop() called on bp1-compute00139.data.bp.acrc.priv at Tue Apr 27 17:54:14 2021
Module time:
	user time   =      65.32 seconds =       1.09 minutes
	system time =       2.55 seconds =       0.04 minutes
	total time  =          2 seconds =       0.03 minutes
Total time:
	user time   =     133.50 seconds =       2.23 minutes
	system time =       5.50 seconds =       0.09 minutes
	total time  =          5 seconds =       0.08 minutes

  //>>>>>>>>>>>>>>>>>>>>>>>>>>>>>>>>>>>//
  //    Loading displacement 3 of 5    //
  //<<<<<<<<<<<<<<<<<<<<<<<<<<<<<<<<<<<//

*** tstart() called on bp1-compute00139.data.bp.acrc.priv
*** at Tue Apr 27 17:54:14 2021

   => Loading Basis Set <=

    Name: AUG-CC-PV(D+D)Z
    Role: ORBITAL
    Keyword: BASIS
    atoms 1   entry S          line   724 file /work/zw18965/.conda/envs/p4env/share/psi4/basis/aug-cc-pv_dpd_z.gbs 
    atoms 2-3 entry O          line   270 file /work/zw18965/.conda/envs/p4env/share/psi4/basis/aug-cc-pv_dpd_z.gbs 


         ---------------------------------------------------------
                                   SCF
               by Justin Turney, Rob Parrish, Andy Simmonett
                          and Daniel G. A. Smith
                              RKS Reference
                       24 Threads, 137329 MiB Core
         ---------------------------------------------------------

  ==> Geometry <==

    Molecular point group: c2v
    Full point group: C2v

    Geometry (in Angstrom), charge = 0, multiplicity = 1:

       Center              X                  Y                   Z               Mass       
    ------------   -----------------  -----------------  -----------------  -----------------
         S           -0.000000000000     0.000000000000    -0.361976462632    31.972071174400
         O           -0.000000000000     1.239318267683     0.361775523720    15.994914619570
         O            0.000000000000    -1.239318267683     0.361775523720    15.994914619570

  Running in c2v symmetry.

  Rotational constants: A =      2.01259  B =      0.34310  C =      0.29313 [cm^-1]
  Rotational constants: A =  60335.97400  B =  10285.83551  C =   8787.73722 [MHz]
  Nuclear repulsion =  108.055939402465469

  Charge       = 0
  Multiplicity = 1
  Electrons    = 32
  Nalpha       = 16
  Nbeta        = 16

  ==> Algorithm <==

  SCF Algorithm Type is DF.
  DIIS enabled.
  MOM disabled.
  Fractional occupation disabled.
  Guess Type is SAD.
  Energy threshold   = 1.00e-08
  Density threshold  = 1.00e-08
  Integral threshold = 0.00e+00

  ==> Primary Basis <==

  Basis Set: AUG-CC-PV(D+D)Z
    Blend: AUG-CC-PV(D+D)Z
    Number of shells: 30
    Number of basis function: 78
    Number of Cartesian functions: 85
    Spherical Harmonics?: true
    Max angular momentum: 2

  ==> DFT Potential <==

   => Composite Functional: WB97X-V <= 

    wB97X-V Hyb-GGA Exchange-Correlation Functional

    N. Mardirossian and M. Head-Gordon, Phys. Chem. Chem. Phys. 16, 9904 (2014)

    Deriv               =              1
    GGA                 =           TRUE
    Meta                =          FALSE

    Exchange Hybrid     =           TRUE
    MP2 Hybrid          =          FALSE

   => Exchange-Correlation Functionals <=

    1.0000   wB97X-V range-separated functional

   => Exact (HF) Exchange <=

    0.8330            HF,LR [omega = 0.3000]
    0.1670               HF 

   => VV10 Non-Local Parameters <=

    VV10 B              =     6.0000E+00
    VV10 C              =     1.0000E-02

   => Molecular Quadrature <=

    Radial Scheme          =       TREUTLER
    Pruning Scheme         =           FLAT
    Nuclear Scheme         =       TREUTLER

    BS radius alpha        =              1
    Pruning alpha          =              1
    Radial Points          =             75
    Spherical Points       =            302
    Total Points           =          67678
    Total Blocks           =            594
    Max Points             =            256
    Max Functions          =             78

   => Loading Basis Set <=

    Name: (AUG-CC-PV(D+D)Z AUX)
    Role: JKFIT
    Keyword: DF_BASIS_SCF
    atoms 1   entry S          line   690 file /work/zw18965/.conda/envs/p4env/share/psi4/basis/aug-cc-pvdz-jkfit.gbs 
    atoms 2-3 entry O          line   270 file /work/zw18965/.conda/envs/p4env/share/psi4/basis/aug-cc-pvdz-jkfit.gbs 

  ==> Pre-Iterations <==

   -------------------------------------------------------
    Irrep   Nso     Nmo     Nalpha   Nbeta   Ndocc  Nsocc
   -------------------------------------------------------
     A1        31      31       0       0       0       0
     A2        10      10       0       0       0       0
     B1        14      14       0       0       0       0
     B2        23      23       0       0       0       0
   -------------------------------------------------------
    Total      78      78      16      16      16       0
   -------------------------------------------------------

  ==> Integral Setup <==

  ==> DiskDFJK: Density-Fitted J/K Matrices <==

    J tasked:                  Yes
    K tasked:                  Yes
    wK tasked:                 Yes
    Omega:               3.000E-01
    OpenMP threads:             24
    Integrals threads:          24
    Memory [MiB]:           102852
    Algorithm:                Core
    Integral Cache:           NONE
    Schwarz Cutoff:          1E-12
    Fitting Condition:       1E-10

   => Auxiliary Basis Set <=

  Basis Set: (AUG-CC-PV(D+D)Z AUX)
    Blend: AUG-CC-PVDZ-JKFIT
    Number of shells: 96
    Number of basis function: 300
    Number of Cartesian functions: 352
    Spherical Harmonics?: true
    Max angular momentum: 3

  Cached 100.0% of DFT collocation blocks in 0.141 [GiB].

  Minimum eigenvalue in the overlap matrix is 2.1720213416E-03.
  Using Symmetric Orthogonalization.

  SCF Guess: Superposition of Atomic Densities via on-the-fly atomic UHF.

  ==> Iterations <==

                           Total Energy        Delta E     RMS |[F,P]|

   @DF-RKS iter SAD:  -548.36029266108028   -5.48360e+02   0.00000e+00 
   @DF-RKS iter   1:  -548.33655053407961    2.37421e-02   1.65484e-02 DIIS
   @DF-RKS iter   2:  -548.22556699707957    1.10984e-01   2.15985e-02 DIIS
   @DF-RKS iter   3:  -548.52886302003947   -3.03296e-01   7.64612e-04 DIIS
   @DF-RKS iter   4:  -548.52931706007234   -4.54040e-04   1.70982e-04 DIIS
   @DF-RKS iter   5:  -548.52936584842462   -4.87884e-05   3.59738e-05 DIIS
   @DF-RKS iter   6:  -548.52936876034835   -2.91192e-06   8.94683e-06 DIIS
   @DF-RKS iter   7:  -548.52936901499629   -2.54648e-07   2.66878e-06 DIIS
   @DF-RKS iter   8:  -548.52936903230204   -1.73058e-08   6.89583e-07 DIIS
   @DF-RKS iter   9:  -548.52936903331920   -1.01716e-09   1.70031e-07 DIIS
   @DF-RKS iter  10:  -548.52936903337047   -5.12728e-11   2.31871e-08 DIIS
   @DF-RKS iter  11:  -548.52936903337206   -1.59162e-12   5.38861e-09 DIIS
  Energy and wave function converged.


  ==> Post-Iterations <==

    Orbital Energies [Eh]
    ---------------------

    Doubly Occupied:                                                      

       1A1   -89.081930     1B2   -19.298668     2A1   -19.298654  
       3A1    -8.226079     1B1    -6.182084     2B2    -6.181338  
       4A1    -6.175649     5A1    -1.293817     3B2    -1.197605  
       6A1    -0.765968     7A1    -0.619116     2B1    -0.618846  
       4B2    -0.616237     1A2    -0.485690     5B2    -0.474469  
       8A1    -0.443323  

    Virtual:                                                              

       3B1    -0.043325     9A1     0.070962     6B2     0.079600  
      10A1     0.081957     4B1     0.091779    11A1     0.161892  
       7B2     0.184261    12A1     0.207234     8B2     0.214054  
       2A2     0.216765    13A1     0.238856     5B1     0.240296  
       9B2     0.284177     6B1     0.333163    14A1     0.340875  
      10B2     0.381445    15A1     0.403680     3A2     0.418325  
      16A1     0.544209    11B2     0.620534     7B1     0.644605  
      17A1     0.674016    12B2     0.747440     4A2     0.812995  
      18A1     0.833093    19A1     0.847593     8B1     0.859562  
       9B1     0.927451    13B2     0.941882    20A1     0.945068  
       5A2     0.980090    21A1     1.049087    14B2     1.096216  
      10B1     1.137228    15B2     1.154813     6A2     1.166647  
      22A1     1.218193    16B2     1.351501    23A1     1.353417  
      17B2     1.408487    11B1     1.430631     7A2     1.433882  
      24A1     1.599335    18B2     1.675677    25A1     1.695602  
      19B2     2.619107    26A1     2.756477    12B1     3.270002  
      27A1     3.284407     8A2     3.314904    20B2     3.322581  
      13B1     3.339821    28A1     3.352189     9A2     3.359056  
      21B2     3.420713    29A1     3.434207    22B2     3.561200  
      14B1     4.583470    30A1     4.583783    10A2     4.660842  
      23B2     4.761859    31A1     4.798784  

    Final Occupation by Irrep:
             A1    A2    B1    B2 
    DOCC [     8,    1,    2,    5 ]

  @DF-RKS Final Energy:  -548.52936903337206

   => Energetics <=

    Nuclear Repulsion Energy =            108.0559394024654694
    One-Electron Energy =                -969.7606303942084196
    Two-Electron Energy =                 344.7173109440254279
    DFT Exchange-Correlation Energy =     -31.6746082728858980
    Empirical Dispersion Energy =           0.0000000000000000
    VV10 Nonlocal Energy =                  0.1326192872313641
    Total Energy =                       -548.5293690333720633

Computation Completed


Properties will be evaluated at   0.000000,   0.000000,   0.000000 [a0]

Properties computed using the SCF density matrix

  Nuclear Dipole Moment: [e a0]
     X:     0.0000      Y:     0.0000      Z:    -0.0061

  Electronic Dipole Moment: [e a0]
     X:     0.0000      Y:     0.0000      Z:    -0.6603

  Dipole Moment: [e a0]
     X:     0.0000      Y:     0.0000      Z:    -0.6663     Total:     0.6663

  Dipole Moment: [D]
     X:     0.0000      Y:     0.0000      Z:    -1.6937     Total:     1.6937


*** tstop() called on bp1-compute00139.data.bp.acrc.priv at Tue Apr 27 17:54:17 2021
Module time:
	user time   =      61.54 seconds =       1.03 minutes
	system time =       1.75 seconds =       0.03 minutes
	total time  =          3 seconds =       0.05 minutes
Total time:
	user time   =     195.17 seconds =       3.25 minutes
	system time =       7.26 seconds =       0.12 minutes
	total time  =          8 seconds =       0.13 minutes

  //>>>>>>>>>>>>>>>>>>>>>>>>>>>>>>>>>>>//
  //    Loading displacement 4 of 5    //
  //<<<<<<<<<<<<<<<<<<<<<<<<<<<<<<<<<<<//

*** tstart() called on bp1-compute00139.data.bp.acrc.priv
*** at Tue Apr 27 17:54:17 2021

   => Loading Basis Set <=

    Name: AUG-CC-PV(D+D)Z
    Role: ORBITAL
    Keyword: BASIS
    atoms 1   entry S          line   724 file /work/zw18965/.conda/envs/p4env/share/psi4/basis/aug-cc-pv_dpd_z.gbs 
    atoms 2-3 entry O          line   270 file /work/zw18965/.conda/envs/p4env/share/psi4/basis/aug-cc-pv_dpd_z.gbs 


         ---------------------------------------------------------
                                   SCF
               by Justin Turney, Rob Parrish, Andy Simmonett
                          and Daniel G. A. Smith
                              RKS Reference
                       24 Threads, 137329 MiB Core
         ---------------------------------------------------------

  ==> Geometry <==

    Molecular point group: c2v
    Full point group: C2v

    Geometry (in Angstrom), charge = 0, multiplicity = 1:

       Center              X                  Y                   Z               Mass       
    ------------   -----------------  -----------------  -----------------  -----------------
         S            0.000000000000     0.000000000000    -0.362307388741    31.972071174400
         O           -0.000000000000     1.238850462342     0.362106266127    15.994914619570
         O            0.000000000000    -1.238850462342     0.362106266127    15.994914619570

  Running in c2v symmetry.

  Rotational constants: A =      2.00892  B =      0.34336  C =      0.29324 [cm^-1]
  Rotational constants: A =  60225.80440  B =  10293.60510  C =   8791.06407 [MHz]
  Nuclear repulsion =  108.065707167490743

  Charge       = 0
  Multiplicity = 1
  Electrons    = 32
  Nalpha       = 16
  Nbeta        = 16

  ==> Algorithm <==

  SCF Algorithm Type is DF.
  DIIS enabled.
  MOM disabled.
  Fractional occupation disabled.
  Guess Type is SAD.
  Energy threshold   = 1.00e-08
  Density threshold  = 1.00e-08
  Integral threshold = 0.00e+00

  ==> Primary Basis <==

  Basis Set: AUG-CC-PV(D+D)Z
    Blend: AUG-CC-PV(D+D)Z
    Number of shells: 30
    Number of basis function: 78
    Number of Cartesian functions: 85
    Spherical Harmonics?: true
    Max angular momentum: 2

  ==> DFT Potential <==

   => Composite Functional: WB97X-V <= 

    wB97X-V Hyb-GGA Exchange-Correlation Functional

    N. Mardirossian and M. Head-Gordon, Phys. Chem. Chem. Phys. 16, 9904 (2014)

    Deriv               =              1
    GGA                 =           TRUE
    Meta                =          FALSE

    Exchange Hybrid     =           TRUE
    MP2 Hybrid          =          FALSE

   => Exchange-Correlation Functionals <=

    1.0000   wB97X-V range-separated functional

   => Exact (HF) Exchange <=

    0.8330            HF,LR [omega = 0.3000]
    0.1670               HF 

   => VV10 Non-Local Parameters <=

    VV10 B              =     6.0000E+00
    VV10 C              =     1.0000E-02

   => Molecular Quadrature <=

    Radial Scheme          =       TREUTLER
    Pruning Scheme         =           FLAT
    Nuclear Scheme         =       TREUTLER

    BS radius alpha        =              1
    Pruning alpha          =              1
    Radial Points          =             75
    Spherical Points       =            302
    Total Points           =          67674
    Total Blocks           =            596
    Max Points             =            256
    Max Functions          =             78

   => Loading Basis Set <=

    Name: (AUG-CC-PV(D+D)Z AUX)
    Role: JKFIT
    Keyword: DF_BASIS_SCF
    atoms 1   entry S          line   690 file /work/zw18965/.conda/envs/p4env/share/psi4/basis/aug-cc-pvdz-jkfit.gbs 
    atoms 2-3 entry O          line   270 file /work/zw18965/.conda/envs/p4env/share/psi4/basis/aug-cc-pvdz-jkfit.gbs 

  ==> Pre-Iterations <==

   -------------------------------------------------------
    Irrep   Nso     Nmo     Nalpha   Nbeta   Ndocc  Nsocc
   -------------------------------------------------------
     A1        31      31       0       0       0       0
     A2        10      10       0       0       0       0
     B1        14      14       0       0       0       0
     B2        23      23       0       0       0       0
   -------------------------------------------------------
    Total      78      78      16      16      16       0
   -------------------------------------------------------

  ==> Integral Setup <==

  ==> DiskDFJK: Density-Fitted J/K Matrices <==

    J tasked:                  Yes
    K tasked:                  Yes
    wK tasked:                 Yes
    Omega:               3.000E-01
    OpenMP threads:             24
    Integrals threads:          24
    Memory [MiB]:           102852
    Algorithm:                Core
    Integral Cache:           NONE
    Schwarz Cutoff:          1E-12
    Fitting Condition:       1E-10

   => Auxiliary Basis Set <=

  Basis Set: (AUG-CC-PV(D+D)Z AUX)
    Blend: AUG-CC-PVDZ-JKFIT
    Number of shells: 96
    Number of basis function: 300
    Number of Cartesian functions: 352
    Spherical Harmonics?: true
    Max angular momentum: 3

  Cached 100.0% of DFT collocation blocks in 0.141 [GiB].

  Minimum eigenvalue in the overlap matrix is 2.1720156826E-03.
  Using Symmetric Orthogonalization.

  SCF Guess: Superposition of Atomic Densities via on-the-fly atomic UHF.

  ==> Iterations <==

                           Total Energy        Delta E     RMS |[F,P]|

   @DF-RKS iter SAD:  -548.36062933168341   -5.48361e+02   0.00000e+00 
   @DF-RKS iter   1:  -548.33647939726313    2.41499e-02   1.65512e-02 DIIS
   @DF-RKS iter   2:  -548.22542843770680    1.11051e-01   2.16033e-02 DIIS
   @DF-RKS iter   3:  -548.52886174679111   -3.03433e-01   7.64528e-04 DIIS
   @DF-RKS iter   4:  -548.52931558911973   -4.53842e-04   1.71008e-04 DIIS
   @DF-RKS iter   5:  -548.52936431883813   -4.87297e-05   3.59452e-05 DIIS
   @DF-RKS iter   6:  -548.52936722252650   -2.90369e-06   8.93144e-06 DIIS
   @DF-RKS iter   7:  -548.52936747593310   -2.53407e-07   2.66499e-06 DIIS
   @DF-RKS iter   8:  -548.52936749316632   -1.72332e-08   6.88743e-07 DIIS
   @DF-RKS iter   9:  -548.52936749417904   -1.01272e-09   1.69841e-07 DIIS
   @DF-RKS iter  10:  -548.52936749423009   -5.10454e-11   2.30527e-08 DIIS
   @DF-RKS iter  11:  -548.52936749423213   -2.04636e-12   5.35895e-09 DIIS
  Energy and wave function converged.


  ==> Post-Iterations <==

    Orbital Energies [Eh]
    ---------------------

    Doubly Occupied:                                                      

       1A1   -89.081907     1B2   -19.298607     2A1   -19.298593  
       3A1    -8.226071     1B1    -6.182077     2B2    -6.181329  
       4A1    -6.175641     5A1    -1.293860     3B2    -1.197554  
       6A1    -0.765962     7A1    -0.619133     2B1    -0.618859  
       4B2    -0.616198     1A2    -0.485643     5B2    -0.474374  
       8A1    -0.443389  

    Virtual:                                                              

       3B1    -0.043332     9A1     0.071003     6B2     0.079570  
      10A1     0.081934     4B1     0.091775    11A1     0.162026  
       7B2     0.184155    12A1     0.207276     8B2     0.213984  
       2A2     0.216786    13A1     0.238853     5B1     0.240282  
       9B2     0.284203     6B1     0.333275    14A1     0.340945  
      10B2     0.381447    15A1     0.404010     3A2     0.418225  
      16A1     0.544030    11B2     0.620499     7B1     0.644592  
      17A1     0.673964    12B2     0.747474     4A2     0.813060  
      18A1     0.833033    19A1     0.847424     8B1     0.859553  
       9B1     0.927213    13B2     0.942029    20A1     0.944959  
       5A2     0.980363    21A1     1.049086    14B2     1.096414  
      10B1     1.137305    15B2     1.154800     6A2     1.166616  
      22A1     1.218272    16B2     1.351853    23A1     1.353386  
      17B2     1.408692    11B1     1.430651     7A2     1.433687  
      24A1     1.599357    18B2     1.675646    25A1     1.695162  
      19B2     2.619189    26A1     2.756172    12B1     3.269920  
      27A1     3.284489     8A2     3.315072    20B2     3.322581  
      13B1     3.339750    28A1     3.352351     9A2     3.359058  
      21B2     3.421030    29A1     3.434134    22B2     3.561120  
      14B1     4.583569    30A1     4.583877    10A2     4.660747  
      23B2     4.761857    31A1     4.798490  

    Final Occupation by Irrep:
             A1    A2    B1    B2 
    DOCC [     8,    1,    2,    5 ]

  @DF-RKS Final Energy:  -548.52936749423213

   => Energetics <=

    Nuclear Repulsion Energy =            108.0657071674907428
    One-Electron Energy =                -969.7806346383798655
    Two-Electron Energy =                 344.7276781838517650
    DFT Exchange-Correlation Energy =     -31.6747367535222821
    Empirical Dispersion Energy =           0.0000000000000000
    VV10 Nonlocal Energy =                  0.1326185463276002
    Total Energy =                       -548.5293674942321331

Computation Completed


Properties will be evaluated at   0.000000,   0.000000,   0.000000 [a0]

Properties computed using the SCF density matrix

  Nuclear Dipole Moment: [e a0]
     X:     0.0000      Y:     0.0000      Z:    -0.0061

  Electronic Dipole Moment: [e a0]
     X:     0.0000      Y:     0.0000      Z:    -0.6614

  Dipole Moment: [e a0]
     X:     0.0000      Y:     0.0000      Z:    -0.6675     Total:     0.6675

  Dipole Moment: [D]
     X:     0.0000      Y:     0.0000      Z:    -1.6967     Total:     1.6967


*** tstop() called on bp1-compute00139.data.bp.acrc.priv at Tue Apr 27 17:54:20 2021
Module time:
	user time   =      63.82 seconds =       1.06 minutes
	system time =       2.15 seconds =       0.04 minutes
	total time  =          3 seconds =       0.05 minutes
Total time:
	user time   =     259.12 seconds =       4.32 minutes
	system time =       9.42 seconds =       0.16 minutes
	total time  =         11 seconds =       0.18 minutes

  //>>>>>>>>>>>>>>>>>>>>>>>>>>>>>>>>>>>//
  //    Loading displacement 5 of 5    //
  //<<<<<<<<<<<<<<<<<<<<<<<<<<<<<<<<<<<//

*** tstart() called on bp1-compute00139.data.bp.acrc.priv
*** at Tue Apr 27 17:54:20 2021

   => Loading Basis Set <=

    Name: AUG-CC-PV(D+D)Z
    Role: ORBITAL
    Keyword: BASIS
    atoms 1   entry S          line   724 file /work/zw18965/.conda/envs/p4env/share/psi4/basis/aug-cc-pv_dpd_z.gbs 
    atoms 2-3 entry O          line   270 file /work/zw18965/.conda/envs/p4env/share/psi4/basis/aug-cc-pv_dpd_z.gbs 


         ---------------------------------------------------------
                                   SCF
               by Justin Turney, Rob Parrish, Andy Simmonett
                          and Daniel G. A. Smith
                              RKS Reference
                       24 Threads, 137329 MiB Core
         ---------------------------------------------------------

  ==> Geometry <==

    Molecular point group: c2v
    Full point group: C2v

    Geometry (in Angstrom), charge = 0, multiplicity = 1:

       Center              X                  Y                   Z               Mass       
    ------------   -----------------  -----------------  -----------------  -----------------
         S            0.000000000000     0.000000000000    -0.362307388741    31.972071174400
         O           -0.000000000000     1.239786073025     0.362106266127    15.994914619570
         O            0.000000000000    -1.239786073025     0.362106266127    15.994914619570

  Running in c2v symmetry.

  Rotational constants: A =      2.00892  B =      0.34284  C =      0.29286 [cm^-1]
  Rotational constants: A =  60225.80440  B =  10278.07472  C =   8779.73418 [MHz]
  Nuclear repulsion =  108.002291012488911

  Charge       = 0
  Multiplicity = 1
  Electrons    = 32
  Nalpha       = 16
  Nbeta        = 16

  ==> Algorithm <==

  SCF Algorithm Type is DF.
  DIIS enabled.
  MOM disabled.
  Fractional occupation disabled.
  Guess Type is SAD.
  Energy threshold   = 1.00e-08
  Density threshold  = 1.00e-08
  Integral threshold = 0.00e+00

  ==> Primary Basis <==

  Basis Set: AUG-CC-PV(D+D)Z
    Blend: AUG-CC-PV(D+D)Z
    Number of shells: 30
    Number of basis function: 78
    Number of Cartesian functions: 85
    Spherical Harmonics?: true
    Max angular momentum: 2

  ==> DFT Potential <==

   => Composite Functional: WB97X-V <= 

    wB97X-V Hyb-GGA Exchange-Correlation Functional

    N. Mardirossian and M. Head-Gordon, Phys. Chem. Chem. Phys. 16, 9904 (2014)

    Deriv               =              1
    GGA                 =           TRUE
    Meta                =          FALSE

    Exchange Hybrid     =           TRUE
    MP2 Hybrid          =          FALSE

   => Exchange-Correlation Functionals <=

    1.0000   wB97X-V range-separated functional

   => Exact (HF) Exchange <=

    0.8330            HF,LR [omega = 0.3000]
    0.1670               HF 

   => VV10 Non-Local Parameters <=

    VV10 B              =     6.0000E+00
    VV10 C              =     1.0000E-02

   => Molecular Quadrature <=

    Radial Scheme          =       TREUTLER
    Pruning Scheme         =           FLAT
    Nuclear Scheme         =       TREUTLER

    BS radius alpha        =              1
    Pruning alpha          =              1
    Radial Points          =             75
    Spherical Points       =            302
    Total Points           =          67678
    Total Blocks           =            594
    Max Points             =            256
    Max Functions          =             78

   => Loading Basis Set <=

    Name: (AUG-CC-PV(D+D)Z AUX)
    Role: JKFIT
    Keyword: DF_BASIS_SCF
    atoms 1   entry S          line   690 file /work/zw18965/.conda/envs/p4env/share/psi4/basis/aug-cc-pvdz-jkfit.gbs 
    atoms 2-3 entry O          line   270 file /work/zw18965/.conda/envs/p4env/share/psi4/basis/aug-cc-pvdz-jkfit.gbs 

  ==> Pre-Iterations <==

   -------------------------------------------------------
    Irrep   Nso     Nmo     Nalpha   Nbeta   Ndocc  Nsocc
   -------------------------------------------------------
     A1        31      31       0       0       0       0
     A2        10      10       0       0       0       0
     B1        14      14       0       0       0       0
     B2        23      23       0       0       0       0
   -------------------------------------------------------
    Total      78      78      16      16      16       0
   -------------------------------------------------------

  ==> Integral Setup <==

  ==> DiskDFJK: Density-Fitted J/K Matrices <==

    J tasked:                  Yes
    K tasked:                  Yes
    wK tasked:                 Yes
    Omega:               3.000E-01
    OpenMP threads:             24
    Integrals threads:          24
    Memory [MiB]:           102852
    Algorithm:                Core
    Integral Cache:           NONE
    Schwarz Cutoff:          1E-12
    Fitting Condition:       1E-10

   => Auxiliary Basis Set <=

  Basis Set: (AUG-CC-PV(D+D)Z AUX)
    Blend: AUG-CC-PVDZ-JKFIT
    Number of shells: 96
    Number of basis function: 300
    Number of Cartesian functions: 352
    Spherical Harmonics?: true
    Max angular momentum: 3

  Cached 100.0% of DFT collocation blocks in 0.141 [GiB].

  Minimum eigenvalue in the overlap matrix is 2.1759249045E-03.
  Using Symmetric Orthogonalization.

  SCF Guess: Superposition of Atomic Densities via on-the-fly atomic UHF.

  ==> Iterations <==

                           Total Energy        Delta E     RMS |[F,P]|

   @DF-RKS iter SAD:  -548.35719543394646   -5.48357e+02   0.00000e+00 
   @DF-RKS iter   1:  -548.33640655902468    2.07889e-02   1.65529e-02 DIIS
   @DF-RKS iter   2:  -548.22469233932793    1.11714e-01   2.16267e-02 DIIS
   @DF-RKS iter   3:  -548.52890076714107   -3.04208e-01   7.64897e-04 DIIS
   @DF-RKS iter   4:  -548.52935497542080   -4.54208e-04   1.71237e-04 DIIS
   @DF-RKS iter   5:  -548.52940382161671   -4.88462e-05   3.60327e-05 DIIS
   @DF-RKS iter   6:  -548.52940674138063   -2.91976e-06   8.96011e-06 DIIS
   @DF-RKS iter   7:  -548.52940699652640   -2.55146e-07   2.67840e-06 DIIS
   @DF-RKS iter   8:  -548.52940701394346   -1.74171e-08   6.91897e-07 DIIS
   @DF-RKS iter   9:  -548.52940701496607   -1.02261e-09   1.70538e-07 DIIS
   @DF-RKS iter  10:  -548.52940701501780   -5.17275e-11   2.31880e-08 DIIS
   @DF-RKS iter  11:  -548.52940701502018   -2.38742e-12   5.39663e-09 DIIS
  Energy and wave function converged.


  ==> Post-Iterations <==

    Orbital Energies [Eh]
    ---------------------

    Doubly Occupied:                                                      

       1A1   -89.082102     1B2   -19.298752     2A1   -19.298738  
       3A1    -8.226211     1B1    -6.182220     2B2    -6.181469  
       4A1    -6.175788     5A1    -1.293433     3B2    -1.197300  
       6A1    -0.766164     7A1    -0.618937     2B1    -0.618626  
       4B2    -0.616171     1A2    -0.485521     5B2    -0.474339  
       8A1    -0.443371  

    Virtual:                                                              

       3B1    -0.043590     9A1     0.070923     6B2     0.079548  
      10A1     0.081925     4B1     0.091773    11A1     0.161754  
       7B2     0.184116    12A1     0.207233     8B2     0.213867  
       2A2     0.216785    13A1     0.238758     5B1     0.240278  
       9B2     0.284177     6B1     0.333116    14A1     0.340869  
      10B2     0.381372    15A1     0.403486     3A2     0.418074  
      16A1     0.543913    11B2     0.620294     7B1     0.644620  
      17A1     0.674011    12B2     0.747348     4A2     0.812978  
      18A1     0.833071    19A1     0.847568     8B1     0.859471  
       9B1     0.927388    13B2     0.941737    20A1     0.944996  
       5A2     0.980065    21A1     1.048610    14B2     1.095913  
      10B1     1.137103    15B2     1.154688     6A2     1.166431  
      22A1     1.217918    16B2     1.350850    23A1     1.353172  
      17B2     1.407928    11B1     1.430272     7A2     1.433393  
      24A1     1.598867    18B2     1.675495    25A1     1.695255  
      19B2     2.618980    26A1     2.756434    12B1     3.270021  
      27A1     3.284323     8A2     3.314948    20B2     3.322580  
      13B1     3.340000    28A1     3.352292     9A2     3.359116  
      21B2     3.420906    29A1     3.433263    22B2     3.560293  
      14B1     4.583347    30A1     4.583678    10A2     4.660511  
      23B2     4.761825    31A1     4.798214  

    Final Occupation by Irrep:
             A1    A2    B1    B2 
    DOCC [     8,    1,    2,    5 ]

  @DF-RKS Final Energy:  -548.52940701502018

   => Energetics <=

    Nuclear Repulsion Energy =            108.0022910124889108
    One-Electron Energy =                -969.6546660419713817
    Two-Electron Energy =                 344.6640116749371145
    DFT Exchange-Correlation Energy =     -31.6736646089470462
    Empirical Dispersion Energy =           0.0000000000000000
    VV10 Nonlocal Energy =                  0.1326209484723841
    Total Energy =                       -548.5294070150200696

Computation Completed


Properties will be evaluated at   0.000000,   0.000000,   0.000000 [a0]

Properties computed using the SCF density matrix

  Nuclear Dipole Moment: [e a0]
     X:     0.0000      Y:     0.0000      Z:    -0.0061

  Electronic Dipole Moment: [e a0]
     X:     0.0000      Y:     0.0000      Z:    -0.6617

  Dipole Moment: [e a0]
     X:     0.0000      Y:     0.0000      Z:    -0.6678     Total:     0.6678

  Dipole Moment: [D]
     X:     0.0000      Y:     0.0000      Z:    -1.6973     Total:     1.6973


*** tstop() called on bp1-compute00139.data.bp.acrc.priv at Tue Apr 27 17:54:23 2021
Module time:
	user time   =      63.53 seconds =       1.06 minutes
	system time =       1.81 seconds =       0.03 minutes
	total time  =          3 seconds =       0.05 minutes
Total time:
	user time   =     322.79 seconds =       5.38 minutes
	system time =      11.24 seconds =       0.19 minutes
	total time  =         14 seconds =       0.23 minutes

         ----------------------------------------------------------
                                   FINDIF
                     R. A. King and Jonathon Misiewicz
         ---------------------------------------------------------

  Computing gradient from energies.
    Using 3-point formula.
    Energy without displacement: -548.5293877197
    Check energies below for precision!
    Forces are for mass-weighted, symmetry-adapted cartesians (in au).

     Coord      Energy(-1)        Energy(+1)            Force
        0   -548.5294056529   -548.5293690334      0.0036619481
        1   -548.5293674942   -548.5294070150     -0.0039520788


-------------------------------------------------------------
  ## New Matrix (Symmetry 0) ##
  Irrep: 1 Size: 3 x 3

                 1                   2                   3

    1     0.00000000000000     0.00000000000000     0.01464343112232
    2     0.00000000000000    -0.01117639033659    -0.00732171556116
    3     0.00000000000000     0.01117639033659    -0.00732171556116




			-----------------------------------------
			 OPTKING 2.0: for geometry optimizations 
			  - R.A. King,  Bethel University        
			-----------------------------------------
	At level 1: Red. Int., RFO, no backsteps, dynamic trust

	Internal coordinates to be generated automatically.
	Detected frag 1 with atoms:  1 2 3
	---Fragment 1 Bond Connectivity---
	 1 : 2 3
	 2 : 1
	 3 : 1

	---Fragment 1 Geometry and Gradient---
	 S          -0.0000000000        0.0000000000       -0.6846617379
	 O          -0.0000000000        2.3419721082        0.6842816713
	 O           0.0000000000       -2.3419721082        0.6842816713
	             0.0000000000        0.0000000000        0.0146434311
	             0.0000000000       -0.0111763903       -0.0073217156
	             0.0000000000        0.0111763903       -0.0073217156

	Previous optimization step data not found.  Starting new optimization.

	---Fragment 1 Intrafragment Coordinates---
	 - Coordinate -           - BOHR/RAD -       - ANG/DEG -
	 R(1,2)           =         2.712718	       1.435509
	 R(1,3)           =         2.712718	       1.435509
	 B(2,1,3)         =         2.083665	     119.385214

	Current energy   :      -548.5293877197

	Generating empirical Hessian (Schlegel '84) for each fragment.
	Taking RFO optimization step.
	Going to follow RFO solution 1.
	Using RFO vector 1.
	Norm of target step-size    0.01979
	Projected energy change by RFO approximation:        -0.0003085831

	Back-transformation to cartesian coordinates...
	Successfully converged to displaced geometry.

	--- Internal Coordinate Step in ANG or DEG, aJ/ANG or AJ/DEG ---
	 ---------------------------------------------------------------------------
	   Coordinate                Previous        Force       Change         New 
	   ----------                --------       ------       ------       ------
	    1 R(1,2)          =      1.435509     0.109935     0.006872     1.442381
	    2 R(1,3)          =      1.435509     0.109935     0.006872     1.442381
	    3 B(2,1,3)        =    119.385214    -0.000141    -0.422785   118.962429
	 ---------------------------------------------------------------------------
	Successfully symmetrized geometry.

  ==> Convergence Check <==

  Measures of convergence in internal coordinates in au.
  Criteria marked as inactive (o), active & met (*), and active & unmet ( ).
  --------------------------------------------------------------------------------------------- ~
   Step     Total Energy     Delta E     MAX Force     RMS Force      MAX Disp      RMS Disp    ~
  --------------------------------------------------------------------------------------------- ~
    Convergence Criteria    1.00e-06 *    3.00e-04 *             o    1.20e-03 *             o  ~
  --------------------------------------------------------------------------------------------- ~
      1    -548.52938772   -5.49e+02      1.33e-02      1.09e-02 o    1.30e-02      1.14e-02 o  ~
  ---------------------------------------------------------------------------------------------

	Writing optimization data to binary file.
	Structure for next step:
	Cartesian Geometry (in Angstrom)
	    S     0.0000000000   0.0000000000  -0.3676790121
	    O    -0.0000000000   1.2425573691   0.3647920771
	    O     0.0000000000  -1.2425573691   0.3647920771
			--------------------------
			 OPTKING Finished Execution 
			--------------------------

    Structure for next step:
    Molecular point group: c2v
    Full point group: C2v

    Geometry (in Angstrom), charge = 0, multiplicity = 1:

    S           -0.000000000000     0.000000000000    -0.366337225887
    O           -0.000000000000     1.242557373964     0.366133866247
    O            0.000000000000    -1.242557373964     0.366133866247

gradient() will perform gradient computation by finite difference of analytic energies.

         ----------------------------------------------------------
                                   FINDIF
                     R. A. King and Jonathon Misiewicz
         ---------------------------------------------------------

  Using finite-differences of energies to determine gradients.
    Generating geometries for use with 3-point formula.
    Displacement size will be 5.00e-03.
    Number of atoms is 3.
    Number of symmetric SALCs is 2.
    Translations projected? 1. Rotations projected? 1.
    Number of geometries (including reference) is 5.

  //>>>>>>>>>>>>>>>>>>>>>>>>>>>>>>>>>>>//
  //    Loading displacement 1 of 5    //
  //<<<<<<<<<<<<<<<<<<<<<<<<<<<<<<<<<<<//

*** tstart() called on bp1-compute00139.data.bp.acrc.priv
*** at Tue Apr 27 17:54:23 2021

   => Loading Basis Set <=

    Name: AUG-CC-PV(D+D)Z
    Role: ORBITAL
    Keyword: BASIS
    atoms 1   entry S          line   724 file /work/zw18965/.conda/envs/p4env/share/psi4/basis/aug-cc-pv_dpd_z.gbs 
    atoms 2-3 entry O          line   270 file /work/zw18965/.conda/envs/p4env/share/psi4/basis/aug-cc-pv_dpd_z.gbs 


         ---------------------------------------------------------
                                   SCF
               by Justin Turney, Rob Parrish, Andy Simmonett
                          and Daniel G. A. Smith
                              RKS Reference
                       24 Threads, 137329 MiB Core
         ---------------------------------------------------------

  ==> Geometry <==

    Molecular point group: c2v
    Full point group: C2v

    Geometry (in Angstrom), charge = 0, multiplicity = 1:

       Center              X                  Y                   Z               Mass       
    ------------   -----------------  -----------------  -----------------  -----------------
         S           -0.000000000000     0.000000000000    -0.366337225887    31.972071174400
         O           -0.000000000000     1.242557373964     0.366133866247    15.994914619570
         O            0.000000000000    -1.242557373964     0.366133866247    15.994914619570

  Running in c2v symmetry.

  Rotational constants: A =      1.96496  B =      0.34131  C =      0.29080 [cm^-1]
  Rotational constants: A =  58908.08251  B =  10232.27905  C =   8717.97493 [MHz]
  Nuclear repulsion =  107.548737907925798

  Charge       = 0
  Multiplicity = 1
  Electrons    = 32
  Nalpha       = 16
  Nbeta        = 16

  ==> Algorithm <==

  SCF Algorithm Type is DF.
  DIIS enabled.
  MOM disabled.
  Fractional occupation disabled.
  Guess Type is READ.
  Energy threshold   = 1.00e-08
  Density threshold  = 1.00e-08
  Integral threshold = 0.00e+00

  ==> Primary Basis <==

  Basis Set: AUG-CC-PV(D+D)Z
    Blend: AUG-CC-PV(D+D)Z
    Number of shells: 30
    Number of basis function: 78
    Number of Cartesian functions: 85
    Spherical Harmonics?: true
    Max angular momentum: 2

  ==> DFT Potential <==

   => Composite Functional: WB97X-V <= 

    wB97X-V Hyb-GGA Exchange-Correlation Functional

    N. Mardirossian and M. Head-Gordon, Phys. Chem. Chem. Phys. 16, 9904 (2014)

    Deriv               =              1
    GGA                 =           TRUE
    Meta                =          FALSE

    Exchange Hybrid     =           TRUE
    MP2 Hybrid          =          FALSE

   => Exchange-Correlation Functionals <=

    1.0000   wB97X-V range-separated functional

   => Exact (HF) Exchange <=

    0.8330            HF,LR [omega = 0.3000]
    0.1670               HF 

   => VV10 Non-Local Parameters <=

    VV10 B              =     6.0000E+00
    VV10 C              =     1.0000E-02

   => Molecular Quadrature <=

    Radial Scheme          =       TREUTLER
    Pruning Scheme         =           FLAT
    Nuclear Scheme         =       TREUTLER

    BS radius alpha        =              1
    Pruning alpha          =              1
    Radial Points          =             75
    Spherical Points       =            302
    Total Points           =          67678
    Total Blocks           =            595
    Max Points             =            256
    Max Functions          =             78

   => Loading Basis Set <=

    Name: (AUG-CC-PV(D+D)Z AUX)
    Role: JKFIT
    Keyword: DF_BASIS_SCF
    atoms 1   entry S          line   690 file /work/zw18965/.conda/envs/p4env/share/psi4/basis/aug-cc-pvdz-jkfit.gbs 
    atoms 2-3 entry O          line   270 file /work/zw18965/.conda/envs/p4env/share/psi4/basis/aug-cc-pvdz-jkfit.gbs 

   => Loading Basis Set <=

    Name: AUG-CC-PV(D+D)Z
    Role: ORBITAL
    Keyword: BASIS
    atoms 1   entry S          line   724 file /work/zw18965/.conda/envs/p4env/share/psi4/basis/aug-cc-pv_dpd_z.gbs 
    atoms 2-3 entry O          line   270 file /work/zw18965/.conda/envs/p4env/share/psi4/basis/aug-cc-pv_dpd_z.gbs 

  Reading orbitals from file 180, no projection.

  ==> Pre-Iterations <==

   -------------------------------------------------------
    Irrep   Nso     Nmo     Nalpha   Nbeta   Ndocc  Nsocc
   -------------------------------------------------------
     A1        31      31       0       0       0       0
     A2        10      10       0       0       0       0
     B1        14      14       0       0       0       0
     B2        23      23       0       0       0       0
   -------------------------------------------------------
    Total      78      78      16      16      16       0
   -------------------------------------------------------

  ==> Integral Setup <==

  ==> DiskDFJK: Density-Fitted J/K Matrices <==

    J tasked:                  Yes
    K tasked:                  Yes
    wK tasked:                 Yes
    Omega:               3.000E-01
    OpenMP threads:             24
    Integrals threads:          24
    Memory [MiB]:           102852
    Algorithm:                Core
    Integral Cache:           NONE
    Schwarz Cutoff:          1E-12
    Fitting Condition:       1E-10

   => Auxiliary Basis Set <=

  Basis Set: (AUG-CC-PV(D+D)Z AUX)
    Blend: AUG-CC-PVDZ-JKFIT
    Number of shells: 96
    Number of basis function: 300
    Number of Cartesian functions: 352
    Spherical Harmonics?: true
    Max angular momentum: 3

  Cached 100.0% of DFT collocation blocks in 0.141 [GiB].

  Minimum eigenvalue in the overlap matrix is 2.2114190255E-03.
  Using Symmetric Orthogonalization.

  SCF Guess: Orbitals guess was supplied from a previous computation.

  ==> Iterations <==

                           Total Energy        Delta E     RMS |[F,P]|

   @DF-RKS iter   0:  -548.51676325591825   -5.48517e+02   9.89758e-04 
   @DF-RKS iter   1:  -548.52960029638825   -1.28370e-02   1.53437e-04 DIIS
   @DF-RKS iter   2:  -548.52961848660186   -1.81902e-05   6.96708e-05 DIIS
   @DF-RKS iter   3:  -548.52962152071404   -3.03411e-06   9.73699e-06 DIIS
   @DF-RKS iter   4:  -548.52962165694964   -1.36236e-07   7.83233e-06 DIIS
   @DF-RKS iter   5:  -548.52962170648857   -4.95389e-08   2.06522e-06 DIIS
   @DF-RKS iter   6:  -548.52962171292711   -6.43854e-09   3.56780e-07 DIIS
   @DF-RKS iter   7:  -548.52962171330239   -3.75280e-10   7.09660e-08 DIIS
   @DF-RKS iter   8:  -548.52962171331569   -1.33014e-11   1.16933e-08 DIIS
   @DF-RKS iter   9:  -548.52962171331592   -2.27374e-13   2.67550e-09 DIIS
  Energy and wave function converged.


  ==> Post-Iterations <==

    Orbital Energies [Eh]
    ---------------------

    Doubly Occupied:                                                      

       1A1   -89.083566     1B2   -19.299326     2A1   -19.299312  
       3A1    -8.227378     1B1    -6.183415     2B2    -6.182623  
       4A1    -6.177003     5A1    -1.290097     3B2    -1.194384  
       6A1    -0.767915     7A1    -0.617383     2B1    -0.616687  
       4B2    -0.615444     1A2    -0.483852     5B2    -0.472884  
       8A1    -0.443992  

    Virtual:                                                              

       3B1    -0.045998     9A1     0.070677     6B2     0.078958  
      10A1     0.081562     4B1     0.091712    11A1     0.160910  
       7B2     0.182384    12A1     0.207348     8B2     0.212049  
       2A2     0.217033    13A1     0.237862     5B1     0.240070  
       9B2     0.284258     6B1     0.333029    14A1     0.341031  
      10B2     0.380739    15A1     0.402751     3A2     0.415509  
      16A1     0.540668    11B2     0.617982     7B1     0.644726  
      17A1     0.673796    12B2     0.746671     4A2     0.813029  
      18A1     0.832686    19A1     0.846827     8B1     0.858614  
       9B1     0.926111    13B2     0.940871    20A1     0.944034  
       5A2     0.980676    21A1     1.044345    14B2     1.093722  
      10B1     1.136207    15B2     1.153532     6A2     1.164411  
      22A1     1.215660    16B2     1.346055    23A1     1.350854  
      17B2     1.403665    11B1     1.427106     7A2     1.428371  
      24A1     1.594754    18B2     1.673786    25A1     1.690821  
      19B2     2.617984    26A1     2.754908    12B1     3.269931  
      27A1     3.283828     8A2     3.315859    20B2     3.322555  
      13B1     3.341370    28A1     3.353695     9A2     3.359677  
      21B2     3.423577    29A1     3.424699    22B2     3.551873  
      14B1     4.582539    30A1     4.583061    10A2     4.657225  
      23B2     4.761623    31A1     4.792196  

    Final Occupation by Irrep:
             A1    A2    B1    B2 
    DOCC [     8,    1,    2,    5 ]

  @DF-RKS Final Energy:  -548.52962171331592

   => Energetics <=

    Nuclear Repulsion Energy =            107.5487379079257977
    One-Electron Energy =                -968.7608514484338684
    Two-Electron Energy =                 344.2154336193707422
    DFT Exchange-Correlation Energy =     -31.6655754813197703
    Empirical Dispersion Energy =           0.0000000000000000
    VV10 Nonlocal Energy =                  0.1326336891411927
    Total Energy =                       -548.5296217133159189

Computation Completed


Properties will be evaluated at   0.000000,   0.000000,   0.000000 [a0]

Properties computed using the SCF density matrix

  Nuclear Dipole Moment: [e a0]
     X:     0.0000      Y:     0.0000      Z:    -0.0061

  Electronic Dipole Moment: [e a0]
     X:     0.0000      Y:     0.0000      Z:    -0.6780

  Dipole Moment: [e a0]
     X:     0.0000      Y:     0.0000      Z:    -0.6842     Total:     0.6842

  Dipole Moment: [D]
     X:     0.0000      Y:     0.0000      Z:    -1.7390     Total:     1.7390


*** tstop() called on bp1-compute00139.data.bp.acrc.priv at Tue Apr 27 17:54:25 2021
Module time:
	user time   =      49.40 seconds =       0.82 minutes
	system time =       1.45 seconds =       0.02 minutes
	total time  =          2 seconds =       0.03 minutes
Total time:
	user time   =     372.56 seconds =       6.21 minutes
	system time =      12.71 seconds =       0.21 minutes
	total time  =         16 seconds =       0.27 minutes

  //>>>>>>>>>>>>>>>>>>>>>>>>>>>>>>>>>>>//
  //    Loading displacement 2 of 5    //
  //<<<<<<<<<<<<<<<<<<<<<<<<<<<<<<<<<<<//

*** tstart() called on bp1-compute00139.data.bp.acrc.priv
*** at Tue Apr 27 17:54:25 2021

   => Loading Basis Set <=

    Name: AUG-CC-PV(D+D)Z
    Role: ORBITAL
    Keyword: BASIS
    atoms 1   entry S          line   724 file /work/zw18965/.conda/envs/p4env/share/psi4/basis/aug-cc-pv_dpd_z.gbs 
    atoms 2-3 entry O          line   270 file /work/zw18965/.conda/envs/p4env/share/psi4/basis/aug-cc-pv_dpd_z.gbs 


         ---------------------------------------------------------
                                   SCF
               by Justin Turney, Rob Parrish, Andy Simmonett
                          and Daniel G. A. Smith
                              RKS Reference
                       24 Threads, 137329 MiB Core
         ---------------------------------------------------------

  ==> Geometry <==

    Molecular point group: c2v
    Full point group: C2v

    Geometry (in Angstrom), charge = 0, multiplicity = 1:

       Center              X                  Y                   Z               Mass       
    ------------   -----------------  -----------------  -----------------  -----------------
         S           -0.000000000000     0.000000000000    -0.366668151996    31.972071174400
         O           -0.000000000000     1.242557373964     0.366464608653    15.994914619570
         O            0.000000000000    -1.242557373964     0.366464608653    15.994914619570

  Running in c2v symmetry.

  Rotational constants: A =      1.96142  B =      0.34131  C =      0.29072 [cm^-1]
  Rotational constants: A =  58801.79880  B =  10232.27905  C =   8715.64353 [MHz]
  Nuclear repulsion =  107.526856439244270

  Charge       = 0
  Multiplicity = 1
  Electrons    = 32
  Nalpha       = 16
  Nbeta        = 16

  ==> Algorithm <==

  SCF Algorithm Type is DF.
  DIIS enabled.
  MOM disabled.
  Fractional occupation disabled.
  Guess Type is READ.
  Energy threshold   = 1.00e-08
  Density threshold  = 1.00e-08
  Integral threshold = 0.00e+00

  ==> Primary Basis <==

  Basis Set: AUG-CC-PV(D+D)Z
    Blend: AUG-CC-PV(D+D)Z
    Number of shells: 30
    Number of basis function: 78
    Number of Cartesian functions: 85
    Spherical Harmonics?: true
    Max angular momentum: 2

  ==> DFT Potential <==

   => Composite Functional: WB97X-V <= 

    wB97X-V Hyb-GGA Exchange-Correlation Functional

    N. Mardirossian and M. Head-Gordon, Phys. Chem. Chem. Phys. 16, 9904 (2014)

    Deriv               =              1
    GGA                 =           TRUE
    Meta                =          FALSE

    Exchange Hybrid     =           TRUE
    MP2 Hybrid          =          FALSE

   => Exchange-Correlation Functionals <=

    1.0000   wB97X-V range-separated functional

   => Exact (HF) Exchange <=

    0.8330            HF,LR [omega = 0.3000]
    0.1670               HF 

   => VV10 Non-Local Parameters <=

    VV10 B              =     6.0000E+00
    VV10 C              =     1.0000E-02

   => Molecular Quadrature <=

    Radial Scheme          =       TREUTLER
    Pruning Scheme         =           FLAT
    Nuclear Scheme         =       TREUTLER

    BS radius alpha        =              1
    Pruning alpha          =              1
    Radial Points          =             75
    Spherical Points       =            302
    Total Points           =          67678
    Total Blocks           =            595
    Max Points             =            256
    Max Functions          =             78

   => Loading Basis Set <=

    Name: (AUG-CC-PV(D+D)Z AUX)
    Role: JKFIT
    Keyword: DF_BASIS_SCF
    atoms 1   entry S          line   690 file /work/zw18965/.conda/envs/p4env/share/psi4/basis/aug-cc-pvdz-jkfit.gbs 
    atoms 2-3 entry O          line   270 file /work/zw18965/.conda/envs/p4env/share/psi4/basis/aug-cc-pvdz-jkfit.gbs 

   => Loading Basis Set <=

    Name: AUG-CC-PV(D+D)Z
    Role: ORBITAL
    Keyword: BASIS
    atoms 1   entry S          line   724 file /work/zw18965/.conda/envs/p4env/share/psi4/basis/aug-cc-pv_dpd_z.gbs 
    atoms 2-3 entry O          line   270 file /work/zw18965/.conda/envs/p4env/share/psi4/basis/aug-cc-pv_dpd_z.gbs 

  Reading orbitals from file 180, no projection.

  ==> Pre-Iterations <==

   -------------------------------------------------------
    Irrep   Nso     Nmo     Nalpha   Nbeta   Ndocc  Nsocc
   -------------------------------------------------------
     A1        31      31       0       0       0       0
     A2        10      10       0       0       0       0
     B1        14      14       0       0       0       0
     B2        23      23       0       0       0       0
   -------------------------------------------------------
    Total      78      78      16      16      16       0
   -------------------------------------------------------

  ==> Integral Setup <==

  ==> DiskDFJK: Density-Fitted J/K Matrices <==

    J tasked:                  Yes
    K tasked:                  Yes
    wK tasked:                 Yes
    Omega:               3.000E-01
    OpenMP threads:             24
    Integrals threads:          24
    Memory [MiB]:           102852
    Algorithm:                Core
    Integral Cache:           NONE
    Schwarz Cutoff:          1E-12
    Fitting Condition:       1E-10

   => Auxiliary Basis Set <=

  Basis Set: (AUG-CC-PV(D+D)Z AUX)
    Blend: AUG-CC-PVDZ-JKFIT
    Number of shells: 96
    Number of basis function: 300
    Number of Cartesian functions: 352
    Spherical Harmonics?: true
    Max angular momentum: 3

  Cached 100.0% of DFT collocation blocks in 0.141 [GiB].

  Minimum eigenvalue in the overlap matrix is 2.2133783938E-03.
  Using Symmetric Orthogonalization.

  SCF Guess: Orbitals guess was supplied from a previous computation.

  ==> Iterations <==

                           Total Energy        Delta E     RMS |[F,P]|

   @DF-RKS iter   0:  -548.52900312570409   -5.48529e+02   5.34930e-05 
   @DF-RKS iter   1:  -548.52962655613601   -6.23430e-04   8.24383e-06 DIIS
   @DF-RKS iter   2:  -548.52962661713900   -6.10030e-08   4.45914e-06 DIIS
   @DF-RKS iter   3:  -548.52962662834966   -1.12107e-08   1.39497e-06 DIIS
   @DF-RKS iter   4:  -548.52962662992070   -1.57104e-09   7.55037e-07 DIIS
   @DF-RKS iter   5:  -548.52962663055121   -6.30507e-10   9.34499e-08 DIIS
   @DF-RKS iter   6:  -548.52962663057144   -2.02363e-11   2.23177e-08 DIIS
   @DF-RKS iter   7:  -548.52962663057303   -1.59162e-12   4.61535e-09 DIIS
  Energy and wave function converged.


  ==> Post-Iterations <==

    Orbital Energies [Eh]
    ---------------------

    Doubly Occupied:                                                      

       1A1   -89.083639     1B2   -19.299338     2A1   -19.299324  
       3A1    -8.227440     1B1    -6.183478     2B2    -6.182684  
       4A1    -6.177067     5A1    -1.289926     3B2    -1.194206  
       6A1    -0.768011     7A1    -0.617304     2B1    -0.616585  
       4B2    -0.615391     1A2    -0.483745     5B2    -0.472774  
       8A1    -0.444046  

    Virtual:                                                              

       3B1    -0.046133     9A1     0.070676     6B2     0.078914  
      10A1     0.081534     4B1     0.091707    11A1     0.160907  
       7B2     0.182246    12A1     0.207368     8B2     0.211934  
       2A2     0.217053    13A1     0.237811     5B1     0.240054  
       9B2     0.284271     6B1     0.333060    14A1     0.341062  
      10B2     0.380707    15A1     0.402815     3A2     0.415336  
      16A1     0.540429    11B2     0.617841     7B1     0.644728  
      17A1     0.673766    12B2     0.746648     4A2     0.813053  
      18A1     0.832644    19A1     0.846731     8B1     0.858564  
       9B1     0.925965    13B2     0.940871    20A1     0.943948  
       5A2     0.980797    21A1     1.044112    14B2     1.093658  
      10B1     1.136182    15B2     1.153466     6A2     1.164291  
      22A1     1.215561    16B2     1.345895    23A1     1.350715  
      17B2     1.403513    11B1     1.426938     7A2     1.428033  
      24A1     1.594526    18B2     1.673684    25A1     1.690447  
      19B2     2.617952    26A1     2.754716    12B1     3.269899  
      27A1     3.283828     8A2     3.315964    20B2     3.322553  
      13B1     3.341422    28A1     3.353820     9A2     3.359709  
      21B2     3.423827    29A1     3.424214    22B2     3.551383  
      14B1     4.582526    30A1     4.583059    10A2     4.657014  
      23B2     4.761618    31A1     4.791770  

    Final Occupation by Irrep:
             A1    A2    B1    B2 
    DOCC [     8,    1,    2,    5 ]

  @DF-RKS Final Energy:  -548.52962663057303

   => Energetics <=

    Nuclear Repulsion Energy =            107.5268564392442698
    One-Electron Energy =                -968.7179651006225640
    Two-Electron Energy =                 344.1940188825792575
    DFT Exchange-Correlation Energy =     -31.6651710027500606
    Empirical Dispersion Energy =           0.0000000000000000
    VV10 Nonlocal Energy =                  0.1326341509760793
    Total Energy =                       -548.5296266305730342

Computation Completed


Properties will be evaluated at   0.000000,   0.000000,   0.000000 [a0]

Properties computed using the SCF density matrix

  Nuclear Dipole Moment: [e a0]
     X:     0.0000      Y:     0.0000      Z:    -0.0062

  Electronic Dipole Moment: [e a0]
     X:     0.0000      Y:     0.0000      Z:    -0.6793

  Dipole Moment: [e a0]
     X:     0.0000      Y:     0.0000      Z:    -0.6855     Total:     0.6855

  Dipole Moment: [D]
     X:     0.0000      Y:     0.0000      Z:    -1.7423     Total:     1.7423


*** tstop() called on bp1-compute00139.data.bp.acrc.priv at Tue Apr 27 17:54:27 2021
Module time:
	user time   =      44.60 seconds =       0.74 minutes
	system time =       1.62 seconds =       0.03 minutes
	total time  =          2 seconds =       0.03 minutes
Total time:
	user time   =     417.28 seconds =       6.95 minutes
	system time =      14.34 seconds =       0.24 minutes
	total time  =         18 seconds =       0.30 minutes

  //>>>>>>>>>>>>>>>>>>>>>>>>>>>>>>>>>>>//
  //    Loading displacement 3 of 5    //
  //<<<<<<<<<<<<<<<<<<<<<<<<<<<<<<<<<<<//

*** tstart() called on bp1-compute00139.data.bp.acrc.priv
*** at Tue Apr 27 17:54:27 2021

   => Loading Basis Set <=

    Name: AUG-CC-PV(D+D)Z
    Role: ORBITAL
    Keyword: BASIS
    atoms 1   entry S          line   724 file /work/zw18965/.conda/envs/p4env/share/psi4/basis/aug-cc-pv_dpd_z.gbs 
    atoms 2-3 entry O          line   270 file /work/zw18965/.conda/envs/p4env/share/psi4/basis/aug-cc-pv_dpd_z.gbs 


         ---------------------------------------------------------
                                   SCF
               by Justin Turney, Rob Parrish, Andy Simmonett
                          and Daniel G. A. Smith
                              RKS Reference
                       24 Threads, 137329 MiB Core
         ---------------------------------------------------------

  ==> Geometry <==

    Molecular point group: c2v
    Full point group: C2v

[...]
      29A1     3.420838    21B2     3.424420    22B2     3.547984  
      14B1     4.582033    30A1     4.582679    10A2     4.655770  
      23B2     4.761593    31A1     4.789710  

    Final Occupation by Irrep:
             A1    A2    B1    B2 
    DOCC [     8,    1,    2,    5 ]

  @DF-RKS Final Energy:  -548.52964715857433

   => Energetics <=

    Nuclear Repulsion Energy =            107.3222418596889440
    One-Electron Energy =                -968.3134978922848859
    Two-Electron Energy =                 343.9905752364666682
    DFT Exchange-Correlation Energy =     -31.6616070154290483
    Empirical Dispersion Energy =           0.0000000000000000
    VV10 Nonlocal Energy =                  0.1326406529839604
    Total Energy =                       -548.5296471585743348

Computation Completed


Properties will be evaluated at   0.000000,   0.000000,   0.000000 [a0]

Properties computed using the SCF density matrix

  Nuclear Dipole Moment: [e a0]
     X:     0.0000      Y:     0.0000      Z:    -0.0062

  Electronic Dipole Moment: [e a0]
     X:     0.0000      Y:     0.0000      Z:    -0.6844

  Dipole Moment: [e a0]
     X:     0.0000      Y:     0.0000      Z:    -0.6906     Total:     0.6906

  Dipole Moment: [D]
     X:     0.0000      Y:     0.0000      Z:    -1.7552     Total:     1.7552


*** tstop() called on bp1-compute00139.data.bp.acrc.priv at Tue Apr 27 17:55:24 2021
Module time:
	user time   =      67.65 seconds =       1.13 minutes
	system time =       1.82 seconds =       0.03 minutes
	total time  =          3 seconds =       0.05 minutes
Total time:
	user time   =    1753.44 seconds =      29.22 minutes
	system time =      54.15 seconds =       0.90 minutes
	total time  =         75 seconds =       1.25 minutes

  //>>>>>>>>>>>>>>>>>>>>>>>>>>>>>>>>>>>//
  //    Loading displacement 8 of 8    //
  //<<<<<<<<<<<<<<<<<<<<<<<<<<<<<<<<<<<//

*** tstart() called on bp1-compute00139.data.bp.acrc.priv
*** at Tue Apr 27 17:55:24 2021

   => Loading Basis Set <=

    Name: AUG-CC-PV(D+D)Z
    Role: ORBITAL
    Keyword: BASIS
    atoms 1   entry S          line   724 file /work/zw18965/.conda/envs/p4env/share/psi4/basis/aug-cc-pv_dpd_z.gbs 
    atoms 2-3 entry O          line   270 file /work/zw18965/.conda/envs/p4env/share/psi4/basis/aug-cc-pv_dpd_z.gbs 


         ---------------------------------------------------------
                                   SCF
               by Justin Turney, Rob Parrish, Andy Simmonett
                          and Daniel G. A. Smith
                              RKS Reference
                       24 Threads, 137329 MiB Core
         ---------------------------------------------------------

  ==> Geometry <==

    Molecular point group: cs
    Full point group: Cs

    Geometry (in Angstrom), charge = 0, multiplicity = 1:

       Center              X                  Y                   Z               Mass       
    ------------   -----------------  -----------------  -----------------  -----------------
         S            0.000000000000    -0.000305395684    -0.367539425684    31.972071174400
         O            0.000000000000     1.245202593376     0.367515576602    15.994914619570
         O            0.000000000000    -1.244592141068     0.367155220765    15.994914619570

  Running in cs symmetry.

  Rotational constants: A =      1.95213  B =      0.34003  C =      0.28959 [cm^-1]
  Rotational constants: A =  58523.37009  B =  10193.84637  C =   8681.64158 [MHz]
  Nuclear repulsion =  107.312848822529944

  Charge       = 0
  Multiplicity = 1
  Electrons    = 32
  Nalpha       = 16
  Nbeta        = 16

  ==> Algorithm <==

  SCF Algorithm Type is DF.
  DIIS enabled.
  MOM disabled.
  Fractional occupation disabled.
  Guess Type is SAD.
  Energy threshold   = 1.00e-10
  Density threshold  = 1.00e-10
  Integral threshold = 0.00e+00

  ==> Primary Basis <==

  Basis Set: AUG-CC-PV(D+D)Z
    Blend: AUG-CC-PV(D+D)Z
    Number of shells: 30
    Number of basis function: 78
    Number of Cartesian functions: 85
    Spherical Harmonics?: true
    Max angular momentum: 2

  ==> DFT Potential <==

   => Composite Functional: WB97X-V <= 

    wB97X-V Hyb-GGA Exchange-Correlation Functional

    N. Mardirossian and M. Head-Gordon, Phys. Chem. Chem. Phys. 16, 9904 (2014)

    Deriv               =              1
    GGA                 =           TRUE
    Meta                =          FALSE

    Exchange Hybrid     =           TRUE
    MP2 Hybrid          =          FALSE

   => Exchange-Correlation Functionals <=

    1.0000   wB97X-V range-separated functional

   => Exact (HF) Exchange <=

    0.8330            HF,LR [omega = 0.3000]
    0.1670               HF 

   => VV10 Non-Local Parameters <=

    VV10 B              =     6.0000E+00
    VV10 C              =     1.0000E-02

   => Molecular Quadrature <=

    Radial Scheme          =       TREUTLER
    Pruning Scheme         =           FLAT
    Nuclear Scheme         =       TREUTLER

    BS radius alpha        =              1
    Pruning alpha          =              1
    Radial Points          =             75
    Spherical Points       =            302
    Total Points           =          67682
    Total Blocks           =            595
    Max Points             =            252
    Max Functions          =             78

   => Loading Basis Set <=

    Name: (AUG-CC-PV(D+D)Z AUX)
    Role: JKFIT
    Keyword: DF_BASIS_SCF
    atoms 1   entry S          line   690 file /work/zw18965/.conda/envs/p4env/share/psi4/basis/aug-cc-pvdz-jkfit.gbs 
    atoms 2-3 entry O          line   270 file /work/zw18965/.conda/envs/p4env/share/psi4/basis/aug-cc-pvdz-jkfit.gbs 

  ==> Pre-Iterations <==

   -------------------------------------------------------
    Irrep   Nso     Nmo     Nalpha   Nbeta   Ndocc  Nsocc
   -------------------------------------------------------
     A'        54      54       0       0       0       0
     A"        24      24       0       0       0       0
   -------------------------------------------------------
    Total      78      78      16      16      16       0
   -------------------------------------------------------

  ==> Integral Setup <==

  ==> DiskDFJK: Density-Fitted J/K Matrices <==

    J tasked:                  Yes
    K tasked:                  Yes
    wK tasked:                 Yes
    Omega:               3.000E-01
    OpenMP threads:             24
    Integrals threads:          24
    Memory [MiB]:           102852
    Algorithm:                Core
    Integral Cache:           NONE
    Schwarz Cutoff:          1E-12
    Fitting Condition:       1E-10

   => Auxiliary Basis Set <=

  Basis Set: (AUG-CC-PV(D+D)Z AUX)
    Blend: AUG-CC-PVDZ-JKFIT
    Number of shells: 96
    Number of basis function: 300
    Number of Cartesian functions: 352
    Spherical Harmonics?: true
    Max angular momentum: 3

  Cached 100.0% of DFT collocation blocks in 0.141 [GiB].

  Minimum eigenvalue in the overlap matrix is 2.2285461135E-03.
  Using Symmetric Orthogonalization.

  SCF Guess: Superposition of Atomic Densities via on-the-fly atomic UHF.

  ==> Iterations <==

                           Total Energy        Delta E     RMS |[F,P]|

   @DF-RKS iter SAD:  -548.31691328625618   -5.48317e+02   0.00000e+00 
   @DF-RKS iter   1:  -548.33398521649644   -1.70719e-02   1.18874e-02 DIIS
   @DF-RKS iter   2:  -548.21204480168785    1.21940e-01   1.57491e-02 DIIS
   @DF-RKS iter   3:  -548.52913721169864   -3.17092e-01   5.50017e-04 DIIS
   @DF-RKS iter   4:  -548.52959313719384   -4.55925e-04   1.27430e-04 DIIS
   @DF-RKS iter   5:  -548.52964095489642   -4.78177e-05   5.09224e-05 DIIS
   @DF-RKS iter   6:  -548.52964318153192   -2.22664e-06   4.88361e-05 DIIS
   @DF-RKS iter   7:  -548.52964661904321   -3.43751e-06   5.40227e-06 DIIS
   @DF-RKS iter   8:  -548.52964675731982   -1.38277e-07   1.33224e-06 DIIS
   @DF-RKS iter   9:  -548.52964676533315   -8.01333e-09   3.43382e-07 DIIS
   @DF-RKS iter  10:  -548.52964676575982   -4.26667e-10   8.36845e-08 DIIS
   @DF-RKS iter  11:  -548.52964676578381   -2.39879e-11   1.21293e-08 DIIS
   @DF-RKS iter  12:  -548.52964676578461   -7.95808e-13   2.79147e-09 DIIS
   @DF-RKS iter  13:  -548.52964676578472   -1.13687e-13   8.17245e-10 DIIS
   @DF-RKS iter  14:  -548.52964676578495   -2.27374e-13   1.02317e-10 DIIS
   @DF-RKS iter  15:  -548.52964676578506   -1.13687e-13   4.02225e-11 DIIS
  Energy and wave function converged.


  ==> Post-Iterations <==

    Orbital Energies [Eh]
    ---------------------

    Doubly Occupied:                                                      

       1Ap   -89.084300     2Ap   -19.299804     3Ap   -19.299639  
       4Ap    -8.227941     1App   -6.183990     5Ap    -6.183183  
       6Ap    -6.177591     7Ap    -1.288423     8Ap    -1.193114  
       9Ap    -0.768766    10Ap    -0.616615     2App   -0.615742  
      11Ap    -0.615180     3App   -0.483166    12Ap    -0.472404  
      13Ap    -0.444138  

    Virtual:                                                              

       4App   -0.047124    14Ap     0.070463    15Ap     0.078736  
      16Ap     0.081440     5App    0.091694    17Ap     0.160201  
      18Ap     0.181753    19Ap     0.207310    20Ap     0.211371  
       6App    0.217103    21Ap     0.237452     7App    0.240000  
      22Ap     0.284241     8App    0.332749    23Ap     0.340958  
      24Ap     0.380438    25Ap     0.401703     9App    0.414510  
      26Ap     0.539502    27Ap     0.616936    10App    0.644804  
      28Ap     0.673804    29Ap     0.746297    11App    0.812915  
      30Ap     0.832638    31Ap     0.846853    12App    0.858217  
      13App    0.926040    32Ap     0.940136    33Ap     0.943825  
      14App    0.980378    34Ap     1.042351    35Ap     1.092224  
      15App    1.135616    36Ap     1.153010    16App    1.163528  
      37Ap     1.214412    38Ap     1.343096    39Ap     1.349829  
      40Ap     1.401214    17App    1.425532    18App    1.426434  
      41Ap     1.592852    42Ap     1.673053    43Ap     1.689630  
      44Ap     2.617263    45Ap     2.754694    19App    3.270065  
      46Ap     3.283411    20App    3.315916    47Ap     3.322535  
      21App    3.342164    48Ap     3.354016    22App    3.359944  
      49Ap     3.420904    50Ap     3.424097    51Ap     3.548069  
      23App    4.581935    52Ap     4.582587    24App    4.655861  
      53Ap     4.761591    54Ap     4.790006  

    Final Occupation by Irrep:
             Ap   App 
    DOCC [    13,    3 ]

  @DF-RKS Final Energy:  -548.52964676578506

   => Energetics <=

    Nuclear Repulsion Energy =            107.3128488225299435
    One-Electron Energy =                -968.2942349037894019
    Two-Electron Energy =                 343.9805851665670389
    DFT Exchange-Correlation Energy =     -31.6614872461238583
    Empirical Dispersion Energy =           0.0000000000000000
    VV10 Nonlocal Energy =                  0.1326413950311501
    Total Energy =                       -548.5296467657851736

Computation Completed


Properties will be evaluated at   0.000000,   0.000000,   0.000000 [a0]

Properties computed using the SCF density matrix

  Nuclear Dipole Moment: [e a0]
     X:     0.0000      Y:    -0.0000      Z:    -0.0062

  Electronic Dipole Moment: [e a0]
     X:     0.0000      Y:    -0.0025      Z:    -0.6832

  Dipole Moment: [e a0]
     X:     0.0000      Y:    -0.0025      Z:    -0.6894     Total:     0.6894

  Dipole Moment: [D]
     X:     0.0000      Y:    -0.0063      Z:    -1.7522     Total:     1.7523


*** tstop() called on bp1-compute00139.data.bp.acrc.priv at Tue Apr 27 17:55:27 2021
Module time:
	user time   =      69.82 seconds =       1.16 minutes
	system time =       1.81 seconds =       0.03 minutes
	total time  =          3 seconds =       0.05 minutes
Total time:
	user time   =    1823.38 seconds =      30.39 minutes
	system time =      55.97 seconds =       0.93 minutes
	total time  =         78 seconds =       1.30 minutes

         ----------------------------------------------------------
                                   FINDIF
                     R. A. King and Jonathon Misiewicz
         ---------------------------------------------------------

  Computing second-derivative from energies using projected, 
  symmetry-adapted, cartesian coordinates.

  8 energies passed in, including the reference geometry.
    Using 3-point formula.
    Energy without displacement: -548.5296476773
    Check energies below for precision!
    0: -1        :      -548.5296471848
    0: 1         :      -548.5296474412
    1: -1        :      -548.5296471080
    1: 1         :      -548.5296473750
    0: 1, 1: 1   :      -548.5296476804
    0: -1, 1: -1 :      -548.5296471586
    2: -1        :      -548.5296467658

-------------------------------------------------------------


  ==> Harmonic Vibrational Analysis <==

  non-mass-weighted Hessian:       Symmetric? True   Hermitian? True   Lin Dep Dim?  6 (0)
  projection of translations (True) and rotations (True) removed 6 degrees of freedom (6)
  total projector:                 Symmetric? True   Hermitian? True   Lin Dep Dim?  6 (6)
  mass-weighted Hessian:           Symmetric? True   Hermitian? True   Lin Dep Dim?  6 (0)
  pre-proj  low-frequency mode:    0.0000i [cm^-1]
  pre-proj  low-frequency mode:    0.0000i [cm^-1]
  pre-proj  low-frequency mode:    0.0000i [cm^-1]
  pre-proj  low-frequency mode:    0.0000  [cm^-1]
  pre-proj  low-frequency mode:    0.0000  [cm^-1]
  pre-proj  low-frequency mode:    0.0000  [cm^-1]
  pre-proj  all modes:['0.0000i' '0.0000i' '0.0000i' '0.0000' '0.0000' '0.0000' '517.3088'
 '1193.2883' '1388.1713']
  projected mass-weighted Hessian: Symmetric? True   Hermitian? True   Lin Dep Dim?  6 (6)
  post-proj low-frequency mode:    0.0000i [cm^-1] (TR)
  post-proj low-frequency mode:    0.0000i [cm^-1] (TR)
  post-proj low-frequency mode:    0.0000i [cm^-1] (TR)
  post-proj low-frequency mode:    0.0000  [cm^-1] (TR)
  post-proj low-frequency mode:    0.0000  [cm^-1] (TR)
  post-proj low-frequency mode:    0.0000  [cm^-1] (TR)
  post-proj  all modes:['0.0000i' '0.0000i' '0.0000i' '0.0000' '0.0000' '0.0000' '517.3088'
 '1193.2883' '1388.1713']

  Vibration                       7                   8                   9           
  Freq [cm^-1]                 517.3088           1193.2883           1388.1713       
  Irrep                           A1                  A1                  B2          
  Reduced mass [u]             18.6270             17.9441             20.3202        
  Force const [mDyne/A]         2.9369             15.0544             23.0708        
  Turning point v=0 [a0]        0.1118              0.0750              0.0653        
  RMS dev v=0 [a0 u^1/2]        0.3411              0.2246              0.2082        
  Char temp [K]                744.2922           1716.8762           1997.2694       
  ----------------------------------------------------------------------------------
      1   S                0.00 -0.00  0.41    0.00 -0.00 -0.35   -0.00  0.52 -0.00   
      2   O                0.00  0.50 -0.41   -0.00  0.56  0.35    0.00 -0.52 -0.31   
      3   O               -0.00 -0.50 -0.41    0.00 -0.56  0.35   -0.00 -0.52  0.31   

  ==> Thermochemistry Components <==

  Entropy, S
    Electronic S            0.000 [cal/(mol K)]        0.000 [J/(mol K)]       0.00000000 [mEh/K] (multiplicity = 1)
    Translational S        38.386 [cal/(mol K)]      160.607 [J/(mol K)]       0.06117186 [mEh/K] (mol. weight = 63.9619 [u], P = 101325.00 [Pa])
    Rotational S           20.278 [cal/(mol K)]       84.845 [J/(mol K)]       0.03231562 [mEh/K] (symmetry no. = 2)
    Vibrational S           0.678 [cal/(mol K)]        2.835 [J/(mol K)]       0.00107985 [mEh/K]
  Total S                  59.342 [cal/(mol K)]      248.287 [J/(mol K)]       0.09456733 [mEh/K]
  Correction S              0.000 [cal/(mol K)]        0.000 [J/(mol K)]       0.00000000 [mEh/K]

  Constant volume heat capacity, Cv
    Electronic Cv           0.000 [cal/(mol K)]        0.000 [J/(mol K)]       0.00000000 [mEh/K]
    Translational Cv        2.981 [cal/(mol K)]       12.472 [J/(mol K)]       0.00475022 [mEh/K]
    Rotational Cv           2.981 [cal/(mol K)]       12.472 [J/(mol K)]       0.00475022 [mEh/K]
    Vibrational Cv          1.531 [cal/(mol K)]        6.406 [J/(mol K)]       0.00243997 [mEh/K]
  Total Cv                  7.493 [cal/(mol K)]       31.350 [J/(mol K)]       0.01194040 [mEh/K]
  Correction Cv             0.000 [cal/(mol K)]        0.000 [J/(mol K)]       0.00000000 [mEh/K]

  Constant pressure heat capacity, Cp
    Electronic Cp           0.000 [cal/(mol K)]        0.000 [J/(mol K)]       0.00000000 [mEh/K]
    Translational Cp        4.968 [cal/(mol K)]       20.786 [J/(mol K)]       0.00791703 [mEh/K]
    Rotational Cp           2.981 [cal/(mol K)]       12.472 [J/(mol K)]       0.00475022 [mEh/K]
    Vibrational Cp          1.531 [cal/(mol K)]        6.406 [J/(mol K)]       0.00243997 [mEh/K]
  Total Cp                  9.480 [cal/(mol K)]       39.664 [J/(mol K)]       0.01510721 [mEh/K]
  Correction Cp             0.000 [cal/(mol K)]        0.000 [J/(mol K)]       0.00000000 [mEh/K]

  ==> Thermochemistry Energy Analysis <==

  Raw electronic energy, E0
  Total E0, Electronic energy at well bottom at 0 [K]                 -548.52964768 [Eh]

  Zero-point energy, ZPE_vib = Sum_i nu_i / 2
    Electronic ZPE          0.000 [kcal/mol]        0.000 [kJ/mol]       0.00000000 [Eh]
    Translational ZPE       0.000 [kcal/mol]        0.000 [kJ/mol]       0.00000000 [Eh]
    Rotational ZPE          0.000 [kcal/mol]        0.000 [kJ/mol]       0.00000000 [Eh]
    Vibrational ZPE         4.430 [kcal/mol]       18.535 [kJ/mol]       0.00705951 [Eh]        1549.384 [cm^-1]
  Correction ZPE            4.430 [kcal/mol]       18.535 [kJ/mol]       0.00705951 [Eh]        1549.384 [cm^-1]
  Total ZPE, Electronic energy at 0 [K]                               -548.52258816 [Eh]

  Thermal Energy, E (includes ZPE)
    Electronic E            0.000 [kcal/mol]        0.000 [kJ/mol]       0.00000000 [Eh]
    Translational E         0.889 [kcal/mol]        3.718 [kJ/mol]       0.00141628 [Eh]
    Rotational E            0.889 [kcal/mol]        3.718 [kJ/mol]       0.00141628 [Eh]
    Vibrational E           4.578 [kcal/mol]       19.156 [kJ/mol]       0.00729615 [Eh]
  Correction E              6.356 [kcal/mol]       26.593 [kJ/mol]       0.01012870 [Eh]
  Total E, Electronic energy at  298.15 [K]                           -548.51951898 [Eh]

  Enthalpy, H_trans = E_trans + k_B * T
    Electronic H            0.000 [kcal/mol]        0.000 [kJ/mol]       0.00000000 [Eh]
    Translational H         1.481 [kcal/mol]        6.197 [kJ/mol]       0.00236046 [Eh]
    Rotational H            0.889 [kcal/mol]        3.718 [kJ/mol]       0.00141628 [Eh]
    Vibrational H           4.578 [kcal/mol]       19.156 [kJ/mol]       0.00729615 [Eh]
  Correction H              6.948 [kcal/mol]       29.072 [kJ/mol]       0.01107288 [Eh]
  Total H, Enthalpy at  298.15 [K]                                    -548.51857479 [Eh]

  Gibbs free energy, G = H - T * S
    Electronic G            0.000 [kcal/mol]        0.000 [kJ/mol]       0.00000000 [Eh]
    Translational G        -9.964 [kcal/mol]      -41.687 [kJ/mol]      -0.01587793 [Eh]
    Rotational G           -5.157 [kcal/mol]      -21.578 [kJ/mol]      -0.00821863 [Eh]
    Vibrational G           4.376 [kcal/mol]       18.311 [kJ/mol]       0.00697419 [Eh]
  Correction G            -10.744 [kcal/mol]      -44.955 [kJ/mol]      -0.01712237 [Eh]
  Total G, Free enthalpy at  298.15 [K]                               -548.54677004 [Eh]

    Psi4 stopped on: Tuesday, 27 April 2021 05:55PM
    Psi4 wall time for execution: 0:01:19.12

*** Psi4 exiting successfully. Buy a developer a beer!
