
    -----------------------------------------------------------------------
          Psi4: An Open-Source Ab Initio Electronic Structure Package
                               Psi4 1.3.2 release

                         Git: Rev {HEAD} ecbda83 


    R. M. Parrish, L. A. Burns, D. G. A. Smith, A. C. Simmonett,
    A. E. DePrince III, E. G. Hohenstein, U. Bozkaya, A. Yu. Sokolov,
    R. Di Remigio, R. M. Richard, J. F. Gonthier, A. M. James,
    H. R. McAlexander, A. Kumar, M. Saitow, X. Wang, B. P. Pritchard,
    P. Verma, H. F. Schaefer III, K. Patkowski, R. A. King, E. F. Valeev,
    F. A. Evangelista, J. M. Turney, T. D. Crawford, and C. D. Sherrill,
    J. Chem. Theory Comput. 13(7) pp 3185--3197 (2017).
    (doi: 10.1021/acs.jctc.7b00174)


                         Additional Contributions by
    P. Kraus, H. Kruse, M. H. Lechner, M. C. Schieber, R. A. Shaw,
    A. Alenaizan, R. Galvelis, Z. L. Glick, S. Lehtola, and J. P. Misiewicz

    -----------------------------------------------------------------------


    Psi4 started on: Tuesday, 27 April 2021 04:33PM

    Process ID: 9921
    Host:       bp1-compute00047.data.bp.acrc.priv
    PSIDATADIR: /work/zw18965/.conda/envs/p4env/share/psi4
    Memory:     500.0 MiB
    Threads:    24
    
  ==> Input File <==

--------------------------------------------------------------------------
memory 144 GB

molecule {
0 1
C 0.0000000000 0.0000000000 0.0000000000
F 0.0000000000 0.0000000000 1.2971000000
F 1.2538059978 0.0000000000 -0.3323235319
}

set dynamic_level 1
set basis aug-cc-pV(Q+d)Z
 
optimize("wB97X-V")
frequencies("wB97X-V")
--------------------------------------------------------------------------

  Memory set to 134.110 GiB by Python driver.
gradient() will perform gradient computation by finite difference of analytic energies.

         ----------------------------------------------------------
                                   FINDIF
                     R. A. King and Jonathon Misiewicz
         ---------------------------------------------------------

  Using finite-differences of energies to determine gradients.
    Generating geometries for use with 3-point formula.
    Displacement size will be 5.00e-03.
    Number of atoms is 3.
    Number of symmetric SALCs is 2.
    Translations projected? 1. Rotations projected? 1.
    Number of geometries (including reference) is 5.

  //>>>>>>>>>>>>>>>>>>>>>>>>>>>>>>>>>>>//
  //    Loading displacement 1 of 5    //
  //<<<<<<<<<<<<<<<<<<<<<<<<<<<<<<<<<<<//

*** tstart() called on bp1-compute00047.data.bp.acrc.priv
*** at Tue Apr 27 16:33:03 2021

   => Loading Basis Set <=

    Name: AUG-CC-PV(Q+D)Z
    Role: ORBITAL
    Keyword: BASIS
    atoms 1   entry C          line   319 file /work/zw18965/.conda/envs/p4env/share/psi4/basis/aug-cc-pv_qpd_z.gbs 
    atoms 2-3 entry F          line   499 file /work/zw18965/.conda/envs/p4env/share/psi4/basis/aug-cc-pv_qpd_z.gbs 


         ---------------------------------------------------------
                                   SCF
               by Justin Turney, Rob Parrish, Andy Simmonett
                          and Daniel G. A. Smith
                              RKS Reference
                       24 Threads, 137329 MiB Core
         ---------------------------------------------------------

  ==> Geometry <==

    Molecular point group: c2v
    Full point group: C2v

    Geometry (in Angstrom), charge = 0, multiplicity = 1:

       Center              X                  Y                   Z               Mass       
    ------------   -----------------  -----------------  -----------------  -----------------
         C            0.000000000000     0.000000000000    -0.601159776770    12.000000000000
         F           -0.000000000000     1.027989606760     0.189855885767    18.998403162730
         F            0.000000000000    -1.027989606760     0.189855885767    18.998403162730

  Running in c2v symmetry.

  Rotational constants: A =      2.95420  B =      0.41983  C =      0.36759 [cm^-1]
  Rotational constants: A =  88564.76119  B =  12586.14285  C =  11020.05707 [MHz]
  Nuclear repulsion =   64.908849321288884

  Charge       = 0
  Multiplicity = 1
  Electrons    = 24
  Nalpha       = 12
  Nbeta        = 12

  ==> Algorithm <==

  SCF Algorithm Type is DF.
  DIIS enabled.
  MOM disabled.
  Fractional occupation disabled.
  Guess Type is SAD.
  Energy threshold   = 1.00e-08
  Density threshold  = 1.00e-08
  Integral threshold = 0.00e+00

  ==> Primary Basis <==

  Basis Set: AUG-CC-PV(Q+D)Z
    Blend: AUG-CC-PV(Q+D)Z
    Number of shells: 60
    Number of basis function: 240
    Number of Cartesian functions: 315
    Spherical Harmonics?: true
    Max angular momentum: 4

  ==> DFT Potential <==

   => Composite Functional: WB97X-V <= 

    wB97X-V Hyb-GGA Exchange-Correlation Functional

    N. Mardirossian and M. Head-Gordon, Phys. Chem. Chem. Phys. 16, 9904 (2014)

    Deriv               =              1
    GGA                 =           TRUE
    Meta                =          FALSE

    Exchange Hybrid     =           TRUE
    MP2 Hybrid          =          FALSE

   => Exchange-Correlation Functionals <=

    1.0000   wB97X-V range-separated functional

   => Exact (HF) Exchange <=

    0.8330            HF,LR [omega = 0.3000]
    0.1670               HF 

   => VV10 Non-Local Parameters <=

    VV10 B              =     6.0000E+00
    VV10 C              =     1.0000E-02

   => Molecular Quadrature <=

    Radial Scheme          =       TREUTLER
    Pruning Scheme         =           FLAT
    Nuclear Scheme         =       TREUTLER

    BS radius alpha        =              1
    Pruning alpha          =              1
    Radial Points          =             75
    Spherical Points       =            302
    Total Points           =          67950
    Total Blocks           =            587
    Max Points             =            256
    Max Functions          =            240

   => Loading Basis Set <=

    Name: (AUG-CC-PV(Q+D)Z AUX)
    Role: JKFIT
    Keyword: DF_BASIS_SCF
    atoms 1   entry C          line   178 file /work/zw18965/.conda/envs/p4env/share/psi4/basis/aug-cc-pvqz-jkfit.gbs 
    atoms 2-3 entry F          line   388 file /work/zw18965/.conda/envs/p4env/share/psi4/basis/aug-cc-pvqz-jkfit.gbs 

  ==> Pre-Iterations <==

   -------------------------------------------------------
    Irrep   Nso     Nmo     Nalpha   Nbeta   Ndocc  Nsocc
   -------------------------------------------------------
     A1        81      81       0       0       0       0
     A2        41      41       0       0       0       0
     B1        49      49       0       0       0       0
     B2        69      69       0       0       0       0
   -------------------------------------------------------
    Total     240     240      12      12      12       0
   -------------------------------------------------------

  ==> Integral Setup <==

  ==> DiskDFJK: Density-Fitted J/K Matrices <==

    J tasked:                  Yes
    K tasked:                  Yes
    wK tasked:                 Yes
    Omega:               3.000E-01
    OpenMP threads:             24
    Integrals threads:          24
    Memory [MiB]:           102591
    Algorithm:                Core
    Integral Cache:           NONE
    Schwarz Cutoff:          1E-12
    Fitting Condition:       1E-10

   => Auxiliary Basis Set <=

  Basis Set: (AUG-CC-PV(Q+D)Z AUX)
    Blend: AUG-CC-PVQZ-JKFIT
    Number of shells: 102
    Number of basis function: 426
    Number of Cartesian functions: 594
    Spherical Harmonics?: true
    Max angular momentum: 5

  Cached 100.0% of DFT collocation blocks in 0.395 [GiB].

  Minimum eigenvalue in the overlap matrix is 1.3096965992E-04.
  Using Symmetric Orthogonalization.

  SCF Guess: Superposition of Atomic Densities via on-the-fly atomic UHF.

  ==> Iterations <==

                           Total Energy        Delta E     RMS |[F,P]|

   @DF-RKS iter SAD:  -237.22801686843781   -2.37228e+02   0.00000e+00 
   @DF-RKS iter   1:  -237.70437497481259   -4.76358e-01   2.63013e-03 DIIS
   @DF-RKS iter   2:  -237.71358670174854   -9.21173e-03   2.49066e-03 DIIS
   @DF-RKS iter   3:  -237.73684081337331   -2.32541e-02   3.09834e-04 DIIS
   @DF-RKS iter   4:  -237.73734152578430   -5.00712e-04   4.59897e-05 DIIS
   @DF-RKS iter   5:  -237.73737094619165   -2.94204e-05   8.19118e-06 DIIS
   @DF-RKS iter   6:  -237.73737208311508   -1.13692e-06   1.86831e-06 DIIS
   @DF-RKS iter   7:  -237.73737214952914   -6.64141e-08   3.92975e-07 DIIS
   @DF-RKS iter   8:  -237.73737215229431   -2.76518e-09   9.89267e-08 DIIS
   @DF-RKS iter   9:  -237.73737215241800   -1.23691e-10   2.01263e-08 DIIS
   @DF-RKS iter  10:  -237.73737215242494   -6.93490e-12   4.33260e-09 DIIS
  Energy and wave function converged.


  ==> Post-Iterations <==

    Orbital Energies [Eh]
    ---------------------

    Doubly Occupied:                                                      

       1B2   -24.841407     1A1   -24.841393     2A1   -10.478407  
       3A1    -1.478979     2B2    -1.400381     4A1    -0.837246  
       3B2    -0.726269     1B1    -0.683306     5A1    -0.678170  
       1A2    -0.600493     4B2    -0.574300     6A1    -0.420039  

    Virtual:                                                              

       2B1     0.007425     7A1     0.061364     5B2     0.068750  
       8A1     0.075687     3B1     0.076309     6B2     0.154809  
       9A1     0.177344    10A1     0.187058     2A2     0.190597  
       4B1     0.197996     7B2     0.211221    11A1     0.228439  
       8B2     0.247784     5B1     0.267369    12A1     0.279126  
       3A2     0.300668    13A1     0.310568     9B2     0.335747  
      10B2     0.368614    14A1     0.379132     6B1     0.391166  
      15A1     0.436506    11B2     0.493032    16A1     0.554223  
       7B1     0.592599    17A1     0.641650     4A2     0.666662  
      12B2     0.709948    13B2     0.715686    18A1     0.727758  
       8B1     0.730576     5A2     0.745105    19A1     0.747573  
       9B1     0.765837    14B2     0.797679    20A1     0.807292  
       6A2     0.822941    21A1     0.850361    10B1     0.866423  
      15B2     0.870367    22A1     0.899010    16B2     0.916305  
       7A2     0.930085    11B1     0.956101    12B1     0.983399  
      23A1     0.996458    17B2     1.012703    24A1     1.038746  
      18B2     1.120699     8A2     1.179101    25A1     1.247943  
      19B2     1.339236    26A1     1.441264    20B2     1.610536  
      13B1     1.642671    27A1     1.673585    14B1     1.710302  
      28A1     1.776879    21B2     1.804347    15B1     1.805299  
      29A1     1.819627     9A2     1.823880    10A2     1.879050  
      22B2     1.883785    11A2     1.939054    30A1     1.956622  
      16B1     1.982113    23B2     1.986235    17B1     2.005735  
      24B2     2.012294    31A1     2.028011    32A1     2.064753  
      25B2     2.068217    12A2     2.119556    18B1     2.133307  
      33A1     2.209417    19B1     2.218230    34A1     2.221101  
      26B2     2.268313    13A2     2.272892    35A1     2.313620  
      27B2     2.339736    14A2     2.393852    20B1     2.412777  
      36A1     2.414145    37A1     2.498820    28B2     2.570659  
      38A1     2.575949    21B1     2.584044    15A2     2.674968  
      29B2     2.741552    30B2     2.784042    22B1     2.832157  
      16A2     2.836339    31B2     2.888514    39A1     2.889643  
      32B2     2.925576    17A2     2.990312    23B1     3.037993  
      40A1     3.039809    41A1     3.145862    33B2     3.224658  
      42A1     3.594806    43A1     3.983437    24B1     4.025910  
      18A2     4.072321    34B2     4.293652    25B1     4.402853  
      44A1     4.404064    45A1     4.481227    35B2     4.509613  
      19A2     4.596459    36B2     4.599602    26B1     4.700065  
      37B2     4.732675    20A2     4.744586    27B1     4.785873  
      46A1     4.797303    38B2     4.825618    47A1     4.837714  
      48A1     4.866722    21A2     4.879216    28B1     4.943076  
      49A1     5.069777    22A2     5.071033    39B2     5.074570  
      29B1     5.191890    40B2     5.205397    50A1     5.260314  
      23A2     5.272731    41B2     5.333214    42B2     5.359838  
      51A1     5.373578    43B2     5.374161    30B1     5.391628  
      52A1     5.432603    31B1     5.450785    24A2     5.474420  
      25A2     5.613888    32B1     5.616874    44B2     5.677830  
      53A1     5.683407    26A2     5.707055    54A1     5.789446  
      45B2     5.827205    33B1     5.879243    55A1     5.893495  
      34B1     5.993670    56A1     6.004187    46B2     6.025601  
      27A2     6.029320    47B2     6.142766    57A1     6.154051  
      48B2     6.230641    35B1     6.249096    58A1     6.273747  
      59A1     6.316755    36B1     6.480750    28A2     6.483201  
      60A1     6.508831    49B2     6.513208    50B2     6.759795  
      37B1     6.807259    29A2     6.918097    38B1     6.969304  
      30A2     7.059810    61A1     7.130182    62A1     7.292967  
      51B2     7.410914    63A1     7.464924    39B1     8.141493  
      64A1     8.184505    31A2     8.193052    52B2     8.259510  
      53B2     8.711025    65A1     8.937504    54B2     9.116622  
      40B1    13.050965    66A1    13.051584    32A2    13.078277  
      41B1    13.139034    55B2    13.143641    33A2    13.176208  
      67A1    13.228387    42B1    13.245367    56B2    13.291046  
      68A1    13.321956    69A1    13.500815    34A2    13.502469  
      57B2    13.535216    43B1    13.538442    35A2    13.542278  
      70A1    13.553974    44B1    13.580531    36A2    13.593197  
      58B2    13.615008    59B2    13.721380    71A1    13.732488  
      60B2    14.023129    72A1    14.177595    61B2    14.198933  
      45B1    15.223016    73A1    15.241288    62B2    15.256090  
      37A2    15.264458    63B2    15.411337    38A2    15.436653  
      46B1    15.442266    74A1    15.560284    75A1    15.705529  
      47B1    15.840603    39A2    15.928216    64B2    15.954896  
      76A1    16.050346    65B2    16.231092    48B1    16.250208  
      40A2    16.287364    66B2    16.316978    77A1    16.411798  
      78A1    16.581883    49B1    16.637652    41A2    16.643223  
      67B2    17.016979    68B2    17.311812    79A1    17.395713  
      80A1    24.452379    81A1    54.114597    69B2    54.160747  

    Final Occupation by Irrep:
             A1    A2    B1    B2 
    DOCC [     6,    1,    1,    4 ]

  @DF-RKS Final Energy:  -237.73737215242494

   => Energetics <=

    Nuclear Repulsion Energy =             64.9088493212888835
    One-Electron Energy =                -457.4688431450139205
    Two-Electron Energy =                 173.5727277969185138
    DFT Exchange-Correlation Energy =     -18.8507332618451251
    Empirical Dispersion Energy =           0.0000000000000000
    VV10 Nonlocal Energy =                  0.1006271362267327
    Total Energy =                       -237.7373721524249390

Computation Completed


Properties will be evaluated at   0.000000,   0.000000,   0.000000 [a0]

Properties computed using the SCF density matrix

  Nuclear Dipole Moment: [e a0]
     X:    -0.0000      Y:    -0.0000      Z:    -0.3582

  Electronic Dipole Moment: [e a0]
     X:     0.0000      Y:     0.0000      Z:     0.6069

  Dipole Moment: [e a0]
     X:    -0.0000      Y:    -0.0000      Z:     0.2487     Total:     0.2487

  Dipole Moment: [D]
     X:    -0.0000      Y:    -0.0000      Z:     0.6322     Total:     0.6322


*** tstop() called on bp1-compute00047.data.bp.acrc.priv at Tue Apr 27 16:33:09 2021
Module time:
	user time   =     115.19 seconds =       1.92 minutes
	system time =       5.63 seconds =       0.09 minutes
	total time  =          6 seconds =       0.10 minutes
Total time:
	user time   =     115.19 seconds =       1.92 minutes
	system time =       5.63 seconds =       0.09 minutes
	total time  =          6 seconds =       0.10 minutes

  //>>>>>>>>>>>>>>>>>>>>>>>>>>>>>>>>>>>//
  //    Loading displacement 2 of 5    //
  //<<<<<<<<<<<<<<<<<<<<<<<<<<<<<<<<<<<//

*** tstart() called on bp1-compute00047.data.bp.acrc.priv
*** at Tue Apr 27 16:33:09 2021

   => Loading Basis Set <=

    Name: AUG-CC-PV(Q+D)Z
    Role: ORBITAL
    Keyword: BASIS
    atoms 1   entry C          line   319 file /work/zw18965/.conda/envs/p4env/share/psi4/basis/aug-cc-pv_qpd_z.gbs 
    atoms 2-3 entry F          line   499 file /work/zw18965/.conda/envs/p4env/share/psi4/basis/aug-cc-pv_qpd_z.gbs 


         ---------------------------------------------------------
                                   SCF
               by Justin Turney, Rob Parrish, Andy Simmonett
                          and Daniel G. A. Smith
                              RKS Reference
                       24 Threads, 137329 MiB Core
         ---------------------------------------------------------

  ==> Geometry <==

    Molecular point group: c2v
    Full point group: C2v

    Geometry (in Angstrom), charge = 0, multiplicity = 1:

       Center              X                  Y                   Z               Mass       
    ------------   -----------------  -----------------  -----------------  -----------------
         C            0.000000000000     0.000000000000    -0.601825636776    12.000000000000
         F           -0.000000000000     1.027989606760     0.190066175021    18.998403162730
         F            0.000000000000    -1.027989606760     0.190066175021    18.998403162730

  Running in c2v symmetry.

  Rotational constants: A =      2.94767  B =      0.41983  C =      0.36749 [cm^-1]
  Rotational constants: A =  88368.89347  B =  12586.14285  C =  11017.01863 [MHz]
  Nuclear repulsion =   64.890700862422563

  Charge       = 0
  Multiplicity = 1
  Electrons    = 24
  Nalpha       = 12
  Nbeta        = 12

  ==> Algorithm <==

  SCF Algorithm Type is DF.
  DIIS enabled.
  MOM disabled.
  Fractional occupation disabled.
  Guess Type is SAD.
  Energy threshold   = 1.00e-08
  Density threshold  = 1.00e-08
  Integral threshold = 0.00e+00

  ==> Primary Basis <==

  Basis Set: AUG-CC-PV(Q+D)Z
    Blend: AUG-CC-PV(Q+D)Z
    Number of shells: 60
    Number of basis function: 240
    Number of Cartesian functions: 315
    Spherical Harmonics?: true
    Max angular momentum: 4

  ==> DFT Potential <==

   => Composite Functional: WB97X-V <= 

    wB97X-V Hyb-GGA Exchange-Correlation Functional

    N. Mardirossian and M. Head-Gordon, Phys. Chem. Chem. Phys. 16, 9904 (2014)

    Deriv               =              1
    GGA                 =           TRUE
    Meta                =          FALSE

    Exchange Hybrid     =           TRUE
    MP2 Hybrid          =          FALSE

   => Exchange-Correlation Functionals <=

    1.0000   wB97X-V range-separated functional

   => Exact (HF) Exchange <=

    0.8330            HF,LR [omega = 0.3000]
    0.1670               HF 

   => VV10 Non-Local Parameters <=

    VV10 B              =     6.0000E+00
    VV10 C              =     1.0000E-02

   => Molecular Quadrature <=

    Radial Scheme          =       TREUTLER
    Pruning Scheme         =           FLAT
    Nuclear Scheme         =       TREUTLER

    BS radius alpha        =              1
    Pruning alpha          =              1
    Radial Points          =             75
    Spherical Points       =            302
    Total Points           =          67950
    Total Blocks           =            587
    Max Points             =            256
    Max Functions          =            240

   => Loading Basis Set <=

    Name: (AUG-CC-PV(Q+D)Z AUX)
    Role: JKFIT
    Keyword: DF_BASIS_SCF
    atoms 1   entry C          line   178 file /work/zw18965/.conda/envs/p4env/share/psi4/basis/aug-cc-pvqz-jkfit.gbs 
    atoms 2-3 entry F          line   388 file /work/zw18965/.conda/envs/p4env/share/psi4/basis/aug-cc-pvqz-jkfit.gbs 

  ==> Pre-Iterations <==

   -------------------------------------------------------
    Irrep   Nso     Nmo     Nalpha   Nbeta   Ndocc  Nsocc
   -------------------------------------------------------
     A1        81      81       0       0       0       0
     A2        41      41       0       0       0       0
     B1        49      49       0       0       0       0
     B2        69      69       0       0       0       0
   -------------------------------------------------------
    Total     240     240      12      12      12       0
   -------------------------------------------------------

  ==> Integral Setup <==

  ==> DiskDFJK: Density-Fitted J/K Matrices <==

    J tasked:                  Yes
    K tasked:                  Yes
    wK tasked:                 Yes
    Omega:               3.000E-01
    OpenMP threads:             24
    Integrals threads:          24
    Memory [MiB]:           102591
    Algorithm:                Core
    Integral Cache:           NONE
    Schwarz Cutoff:          1E-12
    Fitting Condition:       1E-10

   => Auxiliary Basis Set <=

  Basis Set: (AUG-CC-PV(Q+D)Z AUX)
    Blend: AUG-CC-PVQZ-JKFIT
    Number of shells: 102
    Number of basis function: 426
    Number of Cartesian functions: 594
    Spherical Harmonics?: true
    Max angular momentum: 5

  Cached 100.0% of DFT collocation blocks in 0.395 [GiB].

  Minimum eigenvalue in the overlap matrix is 1.3119616104E-04.
  Using Symmetric Orthogonalization.

  SCF Guess: Superposition of Atomic Densities via on-the-fly atomic UHF.

  ==> Iterations <==

                           Total Energy        Delta E     RMS |[F,P]|

   @DF-RKS iter SAD:  -237.22642438579146   -2.37226e+02   0.00000e+00 
   @DF-RKS iter   1:  -237.70433940292386   -4.77915e-01   2.63211e-03 DIIS
   @DF-RKS iter   2:  -237.71347741105077   -9.13801e-03   2.49607e-03 DIIS
   @DF-RKS iter   3:  -237.73684875312037   -2.33713e-02   3.09554e-04 DIIS
   @DF-RKS iter   4:  -237.73734869450348   -4.99941e-04   4.59618e-05 DIIS
   @DF-RKS iter   5:  -237.73737806766840   -2.93732e-05   8.16693e-06 DIIS
   @DF-RKS iter   6:  -237.73737920008165   -1.13241e-06   1.85942e-06 DIIS
   @DF-RKS iter   7:  -237.73737926591491   -6.58333e-08   3.84069e-07 DIIS
   @DF-RKS iter   8:  -237.73737926860156   -2.68665e-09   9.69530e-08 DIIS
   @DF-RKS iter   9:  -237.73737926872028   -1.18717e-10   1.99671e-08 DIIS
   @DF-RKS iter  10:  -237.73737926872718   -6.90648e-12   4.32458e-09 DIIS
  Energy and wave function converged.


  ==> Post-Iterations <==

    Orbital Energies [Eh]
    ---------------------

    Doubly Occupied:                                                      

       1B2   -24.841308     1A1   -24.841294     2A1   -10.478594  
       3A1    -1.478695     2B2    -1.400104     4A1    -0.837155  
       3B2    -0.726027     1B1    -0.683093     5A1    -0.678001  
       1A2    -0.600342     4B2    -0.574120     6A1    -0.420304  

    Virtual:                                                              

       2B1     0.007223     7A1     0.061381     5B2     0.068742  
       8A1     0.075672     3B1     0.076302     6B2     0.154801  
       9A1     0.177395    10A1     0.187041     2A2     0.190637  
       4B1     0.197998     7B2     0.211046    11A1     0.228388  
       8B2     0.247775     5B1     0.267400    12A1     0.279147  
       3A2     0.300601    13A1     0.310516     9B2     0.335552  
      10B2     0.368409    14A1     0.378832     6B1     0.391190  
      15A1     0.436425    11B2     0.492929    16A1     0.554189  
       7B1     0.592541    17A1     0.641692     4A2     0.666687  
      12B2     0.709977    13B2     0.715699    18A1     0.727759  
       8B1     0.730547     5A2     0.745057    19A1     0.747448  
       9B1     0.765855    14B2     0.797628    20A1     0.807312  
       6A2     0.822971    21A1     0.850301    10B1     0.866305  
      15B2     0.870279    22A1     0.899018    16B2     0.916449  
       7A2     0.930000    11B1     0.956136    12B1     0.983303  
      23A1     0.996444    17B2     1.012598    24A1     1.038767  
      18B2     1.120642     8A2     1.179123    25A1     1.247628  
      19B2     1.339236    26A1     1.441040    20B2     1.610522  
      13B1     1.642440    27A1     1.673465    14B1     1.710055  
      28A1     1.776734    21B2     1.804237    15B1     1.805302  
      29A1     1.819771     9A2     1.824145    10A2     1.879007  
      22B2     1.883887    11A2     1.938921    30A1     1.956733  
      16B1     1.981950    23B2     1.986025    17B1     2.005799  
      24B2     2.012488    31A1     2.027972    32A1     2.064542  
      25B2     2.068197    12A2     2.119285    18B1     2.133011  
      33A1     2.209445    19B1     2.218200    34A1     2.221100  
      26B2     2.268026    13A2     2.272647    35A1     2.313413  
      27B2     2.339297    14A2     2.393957    20B1     2.412380  
      36A1     2.413690    37A1     2.499060    28B2     2.570778  
      38A1     2.575759    21B1     2.584047    15A2     2.674951  
      29B2     2.741703    30B2     2.784281    22B1     2.832419  
      16A2     2.836167    31B2     2.888139    39A1     2.889043  
      32B2     2.924915    17A2     2.989470    23B1     3.037520  
      40A1     3.039878    41A1     3.144465    33B2     3.223554  
      42A1     3.593241    43A1     3.982796    24B1     4.024787  
      18A2     4.071546    34B2     4.292793    25B1     4.402307  
      44A1     4.404139    45A1     4.481296    35B2     4.509926  
      19A2     4.596576    36B2     4.599514    26B1     4.700047  
      37B2     4.732478    20A2     4.744384    27B1     4.784862  
      46A1     4.797459    38B2     4.825389    47A1     4.837456  
      48A1     4.865990    21A2     4.878772    28B1     4.942870  
      49A1     5.069459    22A2     5.071231    39B2     5.074361  
      29B1     5.192184    40B2     5.205180    50A1     5.260166  
      23A2     5.272964    41B2     5.333145    42B2     5.360046  
      51A1     5.373261    43B2     5.373509    30B1     5.391701  
      52A1     5.432755    31B1     5.450649    24A2     5.474259  
      25A2     5.613808    32B1     5.617394    44B2     5.676591  
      53A1     5.683520    26A2     5.706818    54A1     5.789180  
      45B2     5.826693    33B1     5.878519    55A1     5.892739  
      34B1     5.993150    56A1     6.004148    46B2     6.025122  
      27A2     6.028836    47B2     6.143281    57A1     6.153504  
      48B2     6.230633    35B1     6.249404    58A1     6.272287  
      59A1     6.316099    36B1     6.480308    28A2     6.482674  
      60A1     6.507515    49B2     6.513387    50B2     6.758558  
      37B1     6.806046    29A2     6.915689    38B1     6.968088  
      30A2     7.058351    61A1     7.129006    62A1     7.291885  
      51B2     7.409568    63A1     7.463794    39B1     8.139398  
      64A1     8.182310    31A2     8.191621    52B2     8.257931  
      53B2     8.709716    65A1     8.935791    54B2     9.113573  
      40B1    13.050754    66A1    13.050981    32A2    13.077165  
      41B1    13.137859    55B2    13.143577    33A2    13.176111  
      67A1    13.227951    42B1    13.244937    56B2    13.291176  
      68A1    13.321582    69A1    13.500450    34A2    13.502410  
      57B2    13.534306    43B1    13.538238    35A2    13.542358  
      70A1    13.553769    44B1    13.580375    36A2    13.593318  
      58B2    13.614671    59B2    13.721033    71A1    13.732086  
      60B2    14.022146    72A1    14.177764    61B2    14.198534  
      45B1    15.223062    73A1    15.241335    62B2    15.256226  
      37A2    15.264546    63B2    15.411210    38A2    15.436435  
      46B1    15.442080    74A1    15.559706    75A1    15.705388  
      47B1    15.839809    39A2    15.927170    64B2    15.954163  
      76A1    16.049481    65B2    16.229892    48B1    16.249773  
      40A2    16.286714    66B2    16.317077    77A1    16.410455  
      78A1    16.581919    49B1    16.637663    41A2    16.643431  
      67B2    17.016887    68B2    17.310153    79A1    17.393516  
      80A1    24.445771    81A1    54.112521    69B2    54.159284  

    Final Occupation by Irrep:
             A1    A2    B1    B2 
    DOCC [     6,    1,    1,    4 ]

  @DF-RKS Final Energy:  -237.73737926872718

   => Energetics <=

    Nuclear Repulsion Energy =             64.8907008624225625
    One-Electron Energy =                -457.4355326654865621
    Two-Electron Energy =                 173.5571325486762646
    DFT Exchange-Correlation Energy =     -18.8503077275684063
    Empirical Dispersion Energy =           0.0000000000000000
    VV10 Nonlocal Energy =                  0.1006277132289372
    Total Energy =                       -237.7373792687271816

Computation Completed


Properties will be evaluated at   0.000000,   0.000000,   0.000000 [a0]

Properties computed using the SCF density matrix

  Nuclear Dipole Moment: [e a0]
     X:    -0.0000      Y:    -0.0000      Z:    -0.3586

  Electronic Dipole Moment: [e a0]
     X:     0.0000      Y:     0.0000      Z:     0.6056

  Dipole Moment: [e a0]
     X:    -0.0000      Y:    -0.0000      Z:     0.2470     Total:     0.2470

  Dipole Moment: [D]
     X:    -0.0000      Y:    -0.0000      Z:     0.6279     Total:     0.6279


*** tstop() called on bp1-compute00047.data.bp.acrc.priv at Tue Apr 27 16:33:15 2021
Module time:
	user time   =     126.61 seconds =       2.11 minutes
	system time =       8.10 seconds =       0.14 minutes
	total time  =          6 seconds =       0.10 minutes
Total time:
	user time   =     241.96 seconds =       4.03 minutes
	system time =      13.74 seconds =       0.23 minutes
	total time  =         12 seconds =       0.20 minutes

  //>>>>>>>>>>>>>>>>>>>>>>>>>>>>>>>>>>>//
  //    Loading displacement 3 of 5    //
  //<<<<<<<<<<<<<<<<<<<<<<<<<<<<<<<<<<<//

*** tstart() called on bp1-compute00047.data.bp.acrc.priv
*** at Tue Apr 27 16:33:15 2021

   => Loading Basis Set <=

    Name: AUG-CC-PV(Q+D)Z
    Role: ORBITAL
    Keyword: BASIS
    atoms 1   entry C          line   319 file /work/zw18965/.conda/envs/p4env/share/psi4/basis/aug-cc-pv_qpd_z.gbs 
    atoms 2-3 entry F          line   499 file /work/zw18965/.conda/envs/p4env/share/psi4/basis/aug-cc-pv_qpd_z.gbs 


         ---------------------------------------------------------
                                   SCF
               by Justin Turney, Rob Parrish, Andy Simmonett
                          and Daniel G. A. Smith
                              RKS Reference
                       24 Threads, 137329 MiB Core
         ---------------------------------------------------------

  ==> Geometry <==

    Molecular point group: c2v
    Full point group: C2v

    Geometry (in Angstrom), charge = 0, multiplicity = 1:

       Center              X                  Y                   Z               Mass       
    ------------   -----------------  -----------------  -----------------  -----------------
         C            0.000000000000     0.000000000000    -0.600493916765    12.000000000000
         F           -0.000000000000     1.027989606760     0.189645596513    18.998403162730
         F            0.000000000000    -1.027989606760     0.189645596513    18.998403162730

  Running in c2v symmetry.

  Rotational constants: A =      2.96076  B =      0.41983  C =      0.36769 [cm^-1]
  Rotational constants: A =  88761.28084  B =  12586.14285  C =  11023.09382 [MHz]
  Nuclear repulsion =   64.927000105912398

  Charge       = 0
  Multiplicity = 1
  Electrons    = 24
  Nalpha       = 12
  Nbeta        = 12

  ==> Algorithm <==

  SCF Algorithm Type is DF.
  DIIS enabled.
  MOM disabled.
  Fractional occupation disabled.
  Guess Type is SAD.
  Energy threshold   = 1.00e-08
  Density threshold  = 1.00e-08
  Integral threshold = 0.00e+00

  ==> Primary Basis <==

  Basis Set: AUG-CC-PV(Q+D)Z
    Blend: AUG-CC-PV(Q+D)Z
    Number of shells: 60
    Number of basis function: 240
    Number of Cartesian functions: 315
    Spherical Harmonics?: true
    Max angular momentum: 4

  ==> DFT Potential <==

   => Composite Functional: WB97X-V <= 

    wB97X-V Hyb-GGA Exchange-Correlation Functional

    N. Mardirossian and M. Head-Gordon, Phys. Chem. Chem. Phys. 16, 9904 (2014)

    Deriv               =              1
    GGA                 =           TRUE
    Meta                =          FALSE

    Exchange Hybrid     =           TRUE
    MP2 Hybrid          =          FALSE

   => Exchange-Correlation Functionals <=

    1.0000   wB97X-V range-separated functional

   => Exact (HF) Exchange <=

    0.8330            HF,LR [omega = 0.3000]
    0.1670               HF 

   => VV10 Non-Local Parameters <=

    VV10 B              =     6.0000E+00
    VV10 C              =     1.0000E-02

   => Molecular Quadrature <=

    Radial Scheme          =       TREUTLER
    Pruning Scheme         =           FLAT
    Nuclear Scheme         =       TREUTLER

    BS radius alpha        =              1
    Pruning alpha          =              1
    Radial Points          =             75
    Spherical Points       =            302
    Total Points           =          67950
    Total Blocks           =            588
    Max Points             =            256
    Max Functions          =            240

   => Loading Basis Set <=

    Name: (AUG-CC-PV(Q+D)Z AUX)
    Role: JKFIT
    Keyword: DF_BASIS_SCF
    atoms 1   entry C          line   178 file /work/zw18965/.conda/envs/p4env/share/psi4/basis/aug-cc-pvqz-jkfit.gbs 
    atoms 2-3 entry F          line   388 file /work/zw18965/.conda/envs/p4env/share/psi4/basis/aug-cc-pvqz-jkfit.gbs 

  ==> Pre-Iterations <==

   -------------------------------------------------------
    Irrep   Nso     Nmo     Nalpha   Nbeta   Ndocc  Nsocc
   -------------------------------------------------------
     A1        81      81       0       0       0       0
     A2        41      41       0       0       0       0
     B1        49      49       0       0       0       0
     B2        69      69       0       0       0       0
   -------------------------------------------------------
    Total     240     240      12      12      12       0
   -------------------------------------------------------

  ==> Integral Setup <==

  ==> DiskDFJK: Density-Fitted J/K Matrices <==

    J tasked:                  Yes
    K tasked:                  Yes
    wK tasked:                 Yes
    Omega:               3.000E-01
    OpenMP threads:             24
    Integrals threads:          24
    Memory [MiB]:           102591
    Algorithm:                Core
    Integral Cache:           NONE
    Schwarz Cutoff:          1E-12
    Fitting Condition:       1E-10

   => Auxiliary Basis Set <=

  Basis Set: (AUG-CC-PV(Q+D)Z AUX)
    Blend: AUG-CC-PVQZ-JKFIT
    Number of shells: 102
    Number of basis function: 426
    Number of Cartesian functions: 594
    Spherical Harmonics?: true
    Max angular momentum: 5

  Cached 100.0% of DFT collocation blocks in 0.395 [GiB].

  Minimum eigenvalue in the overlap matrix is 1.3074359997E-04.
  Using Symmetric Orthogonalization.

  SCF Guess: Superposition of Atomic Densities via on-the-fly atomic UHF.

  ==> Iterations <==

                           Total Energy        Delta E     RMS |[F,P]|

   @DF-RKS iter SAD:  -237.22960983816492   -2.37230e+02   0.00000e+00 
   @DF-RKS iter   1:  -237.70440881692838   -4.74799e-01   2.62815e-03 DIIS
   @DF-RKS iter   2:  -237.71369393812228   -9.28512e-03   2.48527e-03 DIIS
   @DF-RKS iter   3:  -237.73683153296105   -2.31376e-02   3.10114e-04 DIIS
   @DF-RKS iter   4:  -237.73733301596576   -5.01483e-04   4.60180e-05 DIIS
   @DF-RKS iter   5:  -237.73736248418777   -2.94682e-05   8.21620e-06 DIIS
   @DF-RKS iter   6:  -237.73736362571279   -1.14153e-06   1.87780e-06 DIIS
   @DF-RKS iter   7:  -237.73736369272990   -6.70171e-08   4.01872e-07 DIIS
   @DF-RKS iter   8:  -237.73736369557508   -2.84518e-09   1.00722e-07 DIIS
   @DF-RKS iter   9:  -237.73736369570440   -1.29319e-10   2.02755e-08 DIIS
   @DF-RKS iter  10:  -237.73736369571196   -7.56017e-12   4.34213e-09 DIIS
  Energy and wave function converged.


  ==> Post-Iterations <==

    Orbital Energies [Eh]
    ---------------------

    Doubly Occupied:                                                      

       1B2   -24.841506     1A1   -24.841492     2A1   -10.478221  
       3A1    -1.479263     2B2    -1.400657     4A1    -0.837337  
       3B2    -0.726511     1B1    -0.683520     5A1    -0.678340  
       1A2    -0.600644     4B2    -0.574481     6A1    -0.419774  

    Virtual:                                                              

       2B1     0.007626     7A1     0.061347     5B2     0.068758  
       8A1     0.075702     3B1     0.076317     6B2     0.154816  
       9A1     0.177294    10A1     0.187075     2A2     0.190557  
       4B1     0.197994     7B2     0.211395    11A1     0.228489  
       8B2     0.247793     5B1     0.267339    12A1     0.279104  
       3A2     0.300736    13A1     0.310619     9B2     0.335939  
      10B2     0.368823    14A1     0.379430     6B1     0.391142  
      15A1     0.436587    11B2     0.493135    16A1     0.554258  
       7B1     0.592657    17A1     0.641607     4A2     0.666637  
      12B2     0.709917    13B2     0.715675    18A1     0.727757  
       8B1     0.730605     5A2     0.745152    19A1     0.747699  
       9B1     0.765819    14B2     0.797730    20A1     0.807271  
       6A2     0.822912    21A1     0.850421    10B1     0.866541  
      15B2     0.870454    22A1     0.899002    16B2     0.916160  
       7A2     0.930169    11B1     0.956063    12B1     0.983496  
      23A1     0.996470    17B2     1.012807    24A1     1.038725  
      18B2     1.120755     8A2     1.179078    25A1     1.248259  
      19B2     1.339237    26A1     1.441488    20B2     1.610551  
      13B1     1.642902    27A1     1.673705    14B1     1.710548  
      28A1     1.777024    21B2     1.804457    15B1     1.805296  
      29A1     1.819482     9A2     1.823613    10A2     1.879092  
      22B2     1.883683    11A2     1.939188    30A1     1.956511  
      16B1     1.982276    23B2     1.986445    17B1     2.005670  
      24B2     2.012100    31A1     2.028048    32A1     2.064966  
      25B2     2.068238    12A2     2.119827    18B1     2.133604  
      33A1     2.209387    19B1     2.218259    34A1     2.221103  
      26B2     2.268601    13A2     2.273137    35A1     2.313828  
      27B2     2.340175    14A2     2.393746    20B1     2.413174  
      36A1     2.414600    37A1     2.498578    28B2     2.570539  
      38A1     2.576141    21B1     2.584040    15A2     2.674984  
      29B2     2.741398    30B2     2.783797    22B1     2.831896  
      16A2     2.836512    31B2     2.888897    39A1     2.890243  
      32B2     2.926242    17A2     2.991156    23B1     3.038465  
      40A1     3.039740    41A1     3.147259    33B2     3.225765  
      42A1     3.596367    43A1     3.984081    24B1     4.027033  
      18A2     4.073095    34B2     4.294507    25B1     4.403400  
      44A1     4.403988    45A1     4.481163    35B2     4.509301  
      19A2     4.596341    36B2     4.599689    26B1     4.700084  
      37B2     4.732873    20A2     4.744790    27B1     4.786886  
      46A1     4.797146    38B2     4.825849    47A1     4.837970  
      48A1     4.867457    21A2     4.879659    28B1     4.943283  
      49A1     5.070094    22A2     5.070833    39B2     5.074773  
      29B1     5.191597    40B2     5.205613    50A1     5.260460  
      23A2     5.272499    41B2     5.333284    42B2     5.359629  
      51A1     5.373896    43B2     5.374825    30B1     5.391552  
      52A1     5.432451    31B1     5.450925    24A2     5.474582  
      25A2     5.613964    32B1     5.616354    44B2     5.679072  
      53A1     5.683290    26A2     5.707296    54A1     5.789715  
      45B2     5.827711    33B1     5.879966    55A1     5.894247  
      34B1     5.994191    56A1     6.004227    46B2     6.026079  
      27A2     6.029809    47B2     6.142253    57A1     6.154594  
      48B2     6.230655    35B1     6.248787    58A1     6.275133  
      59A1     6.317483    36B1     6.481191    28A2     6.483725  
      60A1     6.510151    49B2     6.513028    50B2     6.761033  
      37B1     6.808470    29A2     6.920505    38B1     6.970523  
      30A2     7.061275    61A1     7.131347    62A1     7.294056  
      51B2     7.412260    63A1     7.466065    39B1     8.143589  
      64A1     8.186712    31A2     8.194482    52B2     8.261082  
      53B2     8.712330    65A1     8.939203    54B2     9.119678  
      40B1    13.051173    66A1    13.052181    32A2    13.079382  
      41B1    13.140210    55B2    13.143705    33A2    13.176311  
      67A1    13.228825    42B1    13.245800    56B2    13.290916  
      68A1    13.322335    69A1    13.501181    34A2    13.502525  
      57B2    13.536116    43B1    13.538648    35A2    13.542198  
      70A1    13.554181    44B1    13.580688    36A2    13.593077  
      58B2    13.615349    59B2    13.721726    71A1    13.732888  
      60B2    14.024119    72A1    14.177428    61B2    14.199335  
      45B1    15.222969    73A1    15.241240    62B2    15.255954  
      37A2    15.264370    63B2    15.411465    38A2    15.436873  
      46B1    15.442451    74A1    15.560862    75A1    15.705677  
      47B1    15.841395    39A2    15.929263    64B2    15.955626  
      76A1    16.051215    65B2    16.232293    48B1    16.250644  
      40A2    16.288016    66B2    16.316882    77A1    16.413143  
      78A1    16.581848    49B1    16.637645    41A2    16.643016  
      67B2    17.017074    68B2    17.313474    79A1    17.397905  
      80A1    24.458986    81A1    54.116673    69B2    54.162211  

    Final Occupation by Irrep:
             A1    A2    B1    B2 
    DOCC [     6,    1,    1,    4 ]

  @DF-RKS Final Energy:  -237.73736369571196

   => Energetics <=

    Nuclear Repulsion Energy =             64.9270001059123985
    One-Electron Energy =                -457.5021550465515361
    Two-Electron Energy =                 173.5883236433768673
    DFT Exchange-Correlation Energy =     -18.8511589576618448
    Empirical Dispersion Energy =           0.0000000000000000
    VV10 Nonlocal Energy =                  0.1006265592121543
    Total Energy =                       -237.7373636957119913

Computation Completed


Properties will be evaluated at   0.000000,   0.000000,   0.000000 [a0]

Properties computed using the SCF density matrix

  Nuclear Dipole Moment: [e a0]
     X:    -0.0000      Y:    -0.0000      Z:    -0.3578

  Electronic Dipole Moment: [e a0]
     X:     0.0000      Y:     0.0000      Z:     0.6083

  Dipole Moment: [e a0]
     X:    -0.0000      Y:    -0.0000      Z:     0.2505     Total:     0.2505

  Dipole Moment: [D]
     X:    -0.0000      Y:    -0.0000      Z:     0.6366     Total:     0.6366


*** tstop() called on bp1-compute00047.data.bp.acrc.priv at Tue Apr 27 16:33:21 2021
Module time:
	user time   =     116.01 seconds =       1.93 minutes
	system time =       3.44 seconds =       0.06 minutes
	total time  =          6 seconds =       0.10 minutes
Total time:
	user time   =     358.13 seconds =       5.97 minutes
	system time =      17.19 seconds =       0.29 minutes
	total time  =         18 seconds =       0.30 minutes

  //>>>>>>>>>>>>>>>>>>>>>>>>>>>>>>>>>>>//
  //    Loading displacement 4 of 5    //
  //<<<<<<<<<<<<<<<<<<<<<<<<<<<<<<<<<<<//

*** tstart() called on bp1-compute00047.data.bp.acrc.priv
*** at Tue Apr 27 16:33:21 2021

   => Loading Basis Set <=

    Name: AUG-CC-PV(Q+D)Z
    Role: ORBITAL
    Keyword: BASIS
    atoms 1   entry C          line   319 file /work/zw18965/.conda/envs/p4env/share/psi4/basis/aug-cc-pv_qpd_z.gbs 
    atoms 2-3 entry F          line   499 file /work/zw18965/.conda/envs/p4env/share/psi4/basis/aug-cc-pv_qpd_z.gbs 


         ---------------------------------------------------------
                                   SCF
               by Justin Turney, Rob Parrish, Andy Simmonett
                          and Daniel G. A. Smith
                              RKS Reference
                       24 Threads, 137329 MiB Core
         ---------------------------------------------------------

  ==> Geometry <==

    Molecular point group: c2v
    Full point group: C2v

    Geometry (in Angstrom), charge = 0, multiplicity = 1:

       Center              X                  Y                   Z               Mass       
    ------------   -----------------  -----------------  -----------------  -----------------
         C            0.000000000000     0.000000000000    -0.601159776770    12.000000000000
         F           -0.000000000000     1.027560369327     0.189855885767    18.998403162730
         F            0.000000000000    -1.027560369327     0.189855885767    18.998403162730

  Running in c2v symmetry.

  Rotational constants: A =      2.95420  B =      0.42018  C =      0.36786 [cm^-1]
  Rotational constants: A =  88564.76119  B =  12596.66013  C =  11028.11904 [MHz]
  Nuclear repulsion =   64.929115797306693

  Charge       = 0
  Multiplicity = 1
  Electrons    = 24
  Nalpha       = 12
  Nbeta        = 12

  ==> Algorithm <==

  SCF Algorithm Type is DF.
  DIIS enabled.
  MOM disabled.
  Fractional occupation disabled.
  Guess Type is SAD.
  Energy threshold   = 1.00e-08
  Density threshold  = 1.00e-08
  Integral threshold = 0.00e+00

  ==> Primary Basis <==

  Basis Set: AUG-CC-PV(Q+D)Z
    Blend: AUG-CC-PV(Q+D)Z
    Number of shells: 60
    Number of basis function: 240
    Number of Cartesian functions: 315
    Spherical Harmonics?: true
    Max angular momentum: 4

  ==> DFT Potential <==

   => Composite Functional: WB97X-V <= 

    wB97X-V Hyb-GGA Exchange-Correlation Functional

    N. Mardirossian and M. Head-Gordon, Phys. Chem. Chem. Phys. 16, 9904 (2014)

    Deriv               =              1
    GGA                 =           TRUE
    Meta                =          FALSE

    Exchange Hybrid     =           TRUE
    MP2 Hybrid          =          FALSE

   => Exchange-Correlation Functionals <=

    1.0000   wB97X-V range-separated functional

   => Exact (HF) Exchange <=

    0.8330            HF,LR [omega = 0.3000]
    0.1670               HF 

   => VV10 Non-Local Parameters <=

    VV10 B              =     6.0000E+00
    VV10 C              =     1.0000E-02

   => Molecular Quadrature <=

    Radial Scheme          =       TREUTLER
    Pruning Scheme         =           FLAT
    Nuclear Scheme         =       TREUTLER

    BS radius alpha        =              1
    Pruning alpha          =              1
    Radial Points          =             75
    Spherical Points       =            302
    Total Points           =          67950
    Total Blocks           =            587
    Max Points             =            256
    Max Functions          =            240

   => Loading Basis Set <=

    Name: (AUG-CC-PV(Q+D)Z AUX)
    Role: JKFIT
    Keyword: DF_BASIS_SCF
    atoms 1   entry C          line   178 file /work/zw18965/.conda/envs/p4env/share/psi4/basis/aug-cc-pvqz-jkfit.gbs 
    atoms 2-3 entry F          line   388 file /work/zw18965/.conda/envs/p4env/share/psi4/basis/aug-cc-pvqz-jkfit.gbs 

  ==> Pre-Iterations <==

   -------------------------------------------------------
    Irrep   Nso     Nmo     Nalpha   Nbeta   Ndocc  Nsocc
   -------------------------------------------------------
     A1        81      81       0       0       0       0
     A2        41      41       0       0       0       0
     B1        49      49       0       0       0       0
     B2        69      69       0       0       0       0
   -------------------------------------------------------
    Total     240     240      12      12      12       0
   -------------------------------------------------------

  ==> Integral Setup <==

  ==> DiskDFJK: Density-Fitted J/K Matrices <==

    J tasked:                  Yes
    K tasked:                  Yes
    wK tasked:                 Yes
    Omega:               3.000E-01
    OpenMP threads:             24
    Integrals threads:          24
    Memory [MiB]:           102591
    Algorithm:                Core
    Integral Cache:           NONE
    Schwarz Cutoff:          1E-12
    Fitting Condition:       1E-10

   => Auxiliary Basis Set <=

  Basis Set: (AUG-CC-PV(Q+D)Z AUX)
    Blend: AUG-CC-PVQZ-JKFIT
    Number of shells: 102
    Number of basis function: 426
    Number of Cartesian functions: 594
    Spherical Harmonics?: true
    Max angular momentum: 5

  Cached 100.0% of DFT collocation blocks in 0.395 [GiB].

  Minimum eigenvalue in the overlap matrix is 1.3086199017E-04.
  Using Symmetric Orthogonalization.

  SCF Guess: Superposition of Atomic Densities via on-the-fly atomic UHF.

  ==> Iterations <==

                           Total Energy        Delta E     RMS |[F,P]|

   @DF-RKS iter SAD:  -237.22913937058024   -2.37229e+02   0.00000e+00 
   @DF-RKS iter   1:  -237.70438930096665   -4.75250e-01   2.62954e-03 DIIS
   @DF-RKS iter   2:  -237.71362936383116   -9.24006e-03   2.48858e-03 DIIS
   @DF-RKS iter   3:  -237.73683644136455   -2.32071e-02   3.09764e-04 DIIS
   @DF-RKS iter   4:  -237.73733694326032   -5.00502e-04   4.59947e-05 DIIS
   @DF-RKS iter   5:  -237.73736634657638   -2.94033e-05   8.19597e-06 DIIS
   @DF-RKS iter   6:  -237.73736748302196   -1.13645e-06   1.87140e-06 DIIS
   @DF-RKS iter   7:  -237.73736754954544   -6.65235e-08   3.97700e-07 DIIS
   @DF-RKS iter   8:  -237.73736755234617   -2.80073e-09   9.97198e-08 DIIS
   @DF-RKS iter   9:  -237.73736755247231   -1.26136e-10   2.01604e-08 DIIS
   @DF-RKS iter  10:  -237.73736755247933   -7.02016e-12   4.31607e-09 DIIS
  Energy and wave function converged.


  ==> Post-Iterations <==

    Orbital Energies [Eh]
    ---------------------

    Doubly Occupied:                                                      

       1B2   -24.841413     1A1   -24.841400     2A1   -10.478291  
       3A1    -1.479202     2B2    -1.400457     4A1    -0.837293  
       3B2    -0.726349     1B1    -0.683441     5A1    -0.678295  
       1A2    -0.600527     4B2    -0.574275     6A1    -0.419993  

    Virtual:                                                              

       2B1     0.007542     7A1     0.061365     5B2     0.068749  
       8A1     0.075692     3B1     0.076313     6B2     0.154801  
       9A1     0.177349    10A1     0.187066     2A2     0.190597  
       4B1     0.197979     7B2     0.211248    11A1     0.228503  
       8B2     0.247800     5B1     0.267392    12A1     0.279138  
       3A2     0.300664    13A1     0.310580     9B2     0.335808  
      10B2     0.368701    14A1     0.379438     6B1     0.391181  
      15A1     0.436600    11B2     0.493077    16A1     0.554252  
       7B1     0.592593    17A1     0.641739     4A2     0.666658  
      12B2     0.709926    13B2     0.715773    18A1     0.727812  
       8B1     0.730593     5A2     0.745078    19A1     0.747623  
       9B1     0.765869    14B2     0.797727    20A1     0.807306  
       6A2     0.823033    21A1     0.850294    10B1     0.866455  
      15B2     0.870369    22A1     0.899081    16B2     0.916263  
       7A2     0.930178    11B1     0.956082    12B1     0.983308  
      23A1     0.996527    17B2     1.012665    24A1     1.038699  
      18B2     1.120643     8A2     1.179136    25A1     1.248039  
      19B2     1.339386    26A1     1.441257    20B2     1.610779  
      13B1     1.642646    27A1     1.673506    14B1     1.710361  
      28A1     1.776899    21B2     1.804291    15B1     1.805368  
      29A1     1.819626     9A2     1.823974    10A2     1.879197  
      22B2     1.883963    11A2     1.939038    30A1     1.956492  
      16B1     1.982324    23B2     1.986355    17B1     2.005736  
      24B2     2.012503    31A1     2.028173    32A1     2.064850  
      25B2     2.068269    12A2     2.119661    18B1     2.133285  
      33A1     2.209527    19B1     2.218317    34A1     2.221190  
      26B2     2.268396    13A2     2.272990    35A1     2.313631  
      27B2     2.339955    14A2     2.394359    20B1     2.412874  
      36A1     2.414250    37A1     2.498840    28B2     2.570677  
      38A1     2.575844    21B1     2.583983    15A2     2.675068  
      29B2     2.742365    30B2     2.783843    22B1     2.832228  
      16A2     2.836068    31B2     2.888717    39A1     2.890126  
      32B2     2.925637    17A2     2.990441    23B1     3.038421  
      40A1     3.040107    41A1     3.146070    33B2     3.225322  
      42A1     3.595214    43A1     3.984109    24B1     4.026431  
      18A2     4.072974    34B2     4.293894    25B1     4.402455  
      44A1     4.403479    45A1     4.481403    35B2     4.509605  
      19A2     4.596699    36B2     4.599869    26B1     4.700174  
      37B2     4.733090    20A2     4.745098    27B1     4.785730  
      46A1     4.796911    38B2     4.825808    47A1     4.837688  
      48A1     4.866596    21A2     4.879298    28B1     4.942789  
      49A1     5.069536    22A2     5.071862    39B2     5.075409  
      29B1     5.192095    40B2     5.205887    50A1     5.260392  
      23A2     5.272754    41B2     5.333336    42B2     5.360095  
      51A1     5.373529    43B2     5.374175    30B1     5.391580  
      52A1     5.433003    31B1     5.450797    24A2     5.474629  
      25A2     5.614039    32B1     5.616609    44B2     5.678106  
      53A1     5.684112    26A2     5.706879    54A1     5.790039  
      45B2     5.827851    33B1     5.879533    55A1     5.894002  
      34B1     5.993967    56A1     6.004713    46B2     6.025989  
      27A2     6.030193    47B2     6.142411    57A1     6.154362  
      48B2     6.230675    35B1     6.249146    58A1     6.273667  
      59A1     6.316758    36B1     6.481141    28A2     6.483342  
      60A1     6.509561    49B2     6.513676    50B2     6.761301  
      37B1     6.808610    29A2     6.918771    38B1     6.970340  
      30A2     7.060708    61A1     7.131290    62A1     7.293965  
      51B2     7.412287    63A1     7.465897    39B1     8.142693  
      64A1     8.185276    31A2     8.194088    52B2     8.260479  
      53B2     8.711406    65A1     8.938368    54B2     9.118983  
      40B1    13.051111    66A1    13.051457    32A2    13.079200  
      41B1    13.139488    55B2    13.143763    33A2    13.176329  
      67A1    13.229562    42B1    13.245295    56B2    13.291642  
      68A1    13.322037    69A1    13.500390    34A2    13.502955  
      57B2    13.535769    43B1    13.538467    35A2    13.542523  
      70A1    13.553761    44B1    13.580390    36A2    13.593617  
      58B2    13.615168    59B2    13.722446    71A1    13.732735  
      60B2    14.022978    72A1    14.177682    61B2    14.199591  
      45B1    15.223076    73A1    15.241344    62B2    15.256143  
      37A2    15.264508    63B2    15.411442    38A2    15.436617  
      46B1    15.442603    74A1    15.560705    75A1    15.705909  
      47B1    15.841224    39A2    15.928808    64B2    15.954970  
      76A1    16.051660    65B2    16.231598    48B1    16.250293  
      40A2    16.287742    66B2    16.317476    77A1    16.411794  
      78A1    16.581073    49B1    16.637520    41A2    16.643369  
      67B2    17.018374    68B2    17.313024    79A1    17.396988  
      80A1    24.456860    81A1    54.115438    69B2    54.162549  

    Final Occupation by Irrep:
             A1    A2    B1    B2 
    DOCC [     6,    1,    1,    4 ]

  @DF-RKS Final Energy:  -237.73736755247933

   => Energetics <=

    Nuclear Repulsion Energy =             64.9291157973066930
    One-Electron Energy =                -457.5080646388735772
    Two-Electron Energy =                 173.5920295918135707
    DFT Exchange-Correlation Energy =     -18.8510741256266670
    Empirical Dispersion Energy =           0.0000000000000000
    VV10 Nonlocal Energy =                  0.1006258229006714
    Total Energy =                       -237.7373675524793271

Computation Completed


Properties will be evaluated at   0.000000,   0.000000,   0.000000 [a0]

Properties computed using the SCF density matrix

  Nuclear Dipole Moment: [e a0]
     X:     0.0000      Y:     0.0000      Z:    -0.3582

  Electronic Dipole Moment: [e a0]
     X:     0.0000      Y:     0.0000      Z:     0.6074

  Dipole Moment: [e a0]
     X:     0.0000      Y:     0.0000      Z:     0.2492     Total:     0.2492

  Dipole Moment: [D]
     X:     0.0000      Y:     0.0000      Z:     0.6334     Total:     0.6334


*** tstop() called on bp1-compute00047.data.bp.acrc.priv at Tue Apr 27 16:33:26 2021
Module time:
	user time   =     118.28 seconds =       1.97 minutes
	system time =       3.41 seconds =       0.06 minutes
	total time  =          5 seconds =       0.08 minutes
Total time:
	user time   =     476.55 seconds =       7.94 minutes
	system time =      20.60 seconds =       0.34 minutes
	total time  =         23 seconds =       0.38 minutes

  //>>>>>>>>>>>>>>>>>>>>>>>>>>>>>>>>>>>//
  //    Loading displacement 5 of 5    //
  //<<<<<<<<<<<<<<<<<<<<<<<<<<<<<<<<<<<//

*** tstart() called on bp1-compute00047.data.bp.acrc.priv
*** at Tue Apr 27 16:33:26 2021

   => Loading Basis Set <=

    Name: AUG-CC-PV(Q+D)Z
    Role: ORBITAL
    Keyword: BASIS
    atoms 1   entry C          line   319 file /work/zw18965/.conda/envs/p4env/share/psi4/basis/aug-cc-pv_qpd_z.gbs 
    atoms 2-3 entry F          line   499 file /work/zw18965/.conda/envs/p4env/share/psi4/basis/aug-cc-pv_qpd_z.gbs 


         ---------------------------------------------------------
                                   SCF
               by Justin Turney, Rob Parrish, Andy Simmonett
                          and Daniel G. A. Smith
                              RKS Reference
                       24 Threads, 137329 MiB Core
         ---------------------------------------------------------

  ==> Geometry <==

    Molecular point group: c2v
    Full point group: C2v

    Geometry (in Angstrom), charge = 0, multiplicity = 1:

       Center              X                  Y                   Z               Mass       
    ------------   -----------------  -----------------  -----------------  -----------------
         C            0.000000000000     0.000000000000    -0.601159776770    12.000000000000
         F           -0.000000000000     1.028418844194     0.189855885767    18.998403162730
         F            0.000000000000    -1.028418844194     0.189855885767    18.998403162730

  Running in c2v symmetry.

  Rotational constants: A =      2.95420  B =      0.41948  C =      0.36732 [cm^-1]
  Rotational constants: A =  88564.76119  B =  12575.63873  C =  11012.00353 [MHz]
  Nuclear repulsion =   64.888594381756931

  Charge       = 0
  Multiplicity = 1
  Electrons    = 24
  Nalpha       = 12
  Nbeta        = 12

  ==> Algorithm <==

  SCF Algorithm Type is DF.
  DIIS enabled.
  MOM disabled.
  Fractional occupation disabled.
  Guess Type is SAD.
  Energy threshold   = 1.00e-08
  Density threshold  = 1.00e-08
  Integral threshold = 0.00e+00

  ==> Primary Basis <==

  Basis Set: AUG-CC-PV(Q+D)Z
    Blend: AUG-CC-PV(Q+D)Z
    Number of shells: 60
    Number of basis function: 240
    Number of Cartesian functions: 315
    Spherical Harmonics?: true
    Max angular momentum: 4

  ==> DFT Potential <==

   => Composite Functional: WB97X-V <= 

    wB97X-V Hyb-GGA Exchange-Correlation Functional

    N. Mardirossian and M. Head-Gordon, Phys. Chem. Chem. Phys. 16, 9904 (2014)

    Deriv               =              1
    GGA                 =           TRUE
    Meta                =          FALSE

    Exchange Hybrid     =           TRUE
    MP2 Hybrid          =          FALSE

   => Exchange-Correlation Functionals <=

    1.0000   wB97X-V range-separated functional

   => Exact (HF) Exchange <=

    0.8330            HF,LR [omega = 0.3000]
    0.1670               HF 

   => VV10 Non-Local Parameters <=

    VV10 B              =     6.0000E+00
    VV10 C              =     1.0000E-02

   => Molecular Quadrature <=

    Radial Scheme          =       TREUTLER
    Pruning Scheme         =           FLAT
    Nuclear Scheme         =       TREUTLER

    BS radius alpha        =              1
    Pruning alpha          =              1
    Radial Points          =             75
    Spherical Points       =            302
    Total Points           =          67950
    Total Blocks           =            587
    Max Points             =            256
    Max Functions          =            240

   => Loading Basis Set <=

    Name: (AUG-CC-PV(Q+D)Z AUX)
    Role: JKFIT
    Keyword: DF_BASIS_SCF
    atoms 1   entry C          line   178 file /work/zw18965/.conda/envs/p4env/share/psi4/basis/aug-cc-pvqz-jkfit.gbs 
    atoms 2-3 entry F          line   388 file /work/zw18965/.conda/envs/p4env/share/psi4/basis/aug-cc-pvqz-jkfit.gbs 

  ==> Pre-Iterations <==

   -------------------------------------------------------
    Irrep   Nso     Nmo     Nalpha   Nbeta   Ndocc  Nsocc
   -------------------------------------------------------
     A1        81      81       0       0       0       0
     A2        41      41       0       0       0       0
     B1        49      49       0       0       0       0
     B2        69      69       0       0       0       0
   -------------------------------------------------------
    Total     240     240      12      12      12       0
   -------------------------------------------------------

  ==> Integral Setup <==

  ==> DiskDFJK: Density-Fitted J/K Matrices <==

    J tasked:                  Yes
    K tasked:                  Yes
    wK tasked:                 Yes
    Omega:               3.000E-01
    OpenMP threads:             24
    Integrals threads:          24
    Memory [MiB]:           102591
    Algorithm:                Core
    Integral Cache:           NONE
    Schwarz Cutoff:          1E-12
    Fitting Condition:       1E-10

   => Auxiliary Basis Set <=

  Basis Set: (AUG-CC-PV(Q+D)Z AUX)
    Blend: AUG-CC-PVQZ-JKFIT
    Number of shells: 102
    Number of basis function: 426
    Number of Cartesian functions: 594
    Spherical Harmonics?: true
    Max angular momentum: 5

  Cached 100.0% of DFT collocation blocks in 0.395 [GiB].

  Minimum eigenvalue in the overlap matrix is 1.3107745827E-04.
  Using Symmetric Orthogonalization.

  SCF Guess: Superposition of Atomic Densities via on-the-fly atomic UHF.

  ==> Iterations <==

                           Total Energy        Delta E     RMS |[F,P]|

   @DF-RKS iter SAD:  -237.22689518710820   -2.37227e+02   0.00000e+00 
   @DF-RKS iter   1:  -237.70435993037478   -4.77465e-01   2.63072e-03 DIIS
   @DF-RKS iter   2:  -237.71354323733510   -9.18331e-03   2.49274e-03 DIIS
   @DF-RKS iter   3:  -237.73684456998163   -2.33013e-02   3.09905e-04 DIIS
   @DF-RKS iter   4:  -237.73734549255985   -5.00923e-04   4.59847e-05 DIIS
   @DF-RKS iter   5:  -237.73737493016779   -2.94376e-05   8.18663e-06 DIIS
   @DF-RKS iter   6:  -237.73737606758380   -1.13742e-06   1.86542e-06 DIIS
   @DF-RKS iter   7:  -237.73737613389409   -6.63103e-08   3.88242e-07 DIIS
   @DF-RKS iter   8:  -237.73737613662399   -2.72991e-09   9.80704e-08 DIIS
   @DF-RKS iter   9:  -237.73737613674558   -1.21588e-10   2.00879e-08 DIIS
   @DF-RKS iter  10:  -237.73737613675280   -7.21911e-12   4.34985e-09 DIIS
  Energy and wave function converged.


  ==> Post-Iterations <==

    Orbital Energies [Eh]
    ---------------------

    Doubly Occupied:                                                      

       1B2   -24.841400     1A1   -24.841387     2A1   -10.478523  
       3A1    -1.478756     2B2    -1.400305     4A1    -0.837199  
       3B2    -0.726189     1B1    -0.683172     5A1    -0.678046  
       1A2    -0.600459     4B2    -0.574325     6A1    -0.420086  

    Virtual:                                                              

       2B1     0.007308     7A1     0.061363     5B2     0.068751  
       8A1     0.075682     3B1     0.076306     6B2     0.154816  
       9A1     0.177340    10A1     0.187050     2A2     0.190597  
       4B1     0.198013     7B2     0.211194    11A1     0.228374  
       8B2     0.247767     5B1     0.267347    12A1     0.279113  
       3A2     0.300672    13A1     0.310556     9B2     0.335685  
      10B2     0.368528    14A1     0.378824     6B1     0.391151  
      15A1     0.436413    11B2     0.492988    16A1     0.554195  
       7B1     0.592605    17A1     0.641561     4A2     0.666666  
      12B2     0.709969    13B2     0.715599    18A1     0.727704  
       8B1     0.730560     5A2     0.745131    19A1     0.747524  
       9B1     0.765806    14B2     0.797631    20A1     0.807277  
       6A2     0.822849    21A1     0.850428    10B1     0.866392  
      15B2     0.870365    22A1     0.898939    16B2     0.916346  
       7A2     0.929992    11B1     0.956120    12B1     0.983490  
      23A1     0.996388    17B2     1.012740    24A1     1.038793  
      18B2     1.120754     8A2     1.179065    25A1     1.247846  
      19B2     1.339087    26A1     1.441271    20B2     1.610293  
      13B1     1.642695    27A1     1.673663    14B1     1.710243  
      28A1     1.776859    21B2     1.804402    15B1     1.805230  
      29A1     1.819627     9A2     1.823786    10A2     1.878903  
      22B2     1.883608    11A2     1.939070    30A1     1.956751  
      16B1     1.981901    23B2     1.986114    17B1     2.005734  
      24B2     2.012086    31A1     2.027849    32A1     2.064656  
      25B2     2.068165    12A2     2.119451    18B1     2.133329  
      33A1     2.209307    19B1     2.218142    34A1     2.221012  
      26B2     2.268230    13A2     2.272794    35A1     2.313608  
      27B2     2.339517    14A2     2.393345    20B1     2.412680  
      36A1     2.414039    37A1     2.498800    28B2     2.570638  
      38A1     2.576055    21B1     2.584105    15A2     2.674869  
      29B2     2.740736    30B2     2.784244    22B1     2.832086  
      16A2     2.836610    31B2     2.888311    39A1     2.889161  
      32B2     2.925518    17A2     2.990182    23B1     3.037564  
      40A1     3.039510    41A1     3.145654    33B2     3.223995  
      42A1     3.594399    43A1     3.982762    24B1     4.025389  
      18A2     4.071667    34B2     4.293409    25B1     4.403251  
      44A1     4.404649    45A1     4.481052    35B2     4.509621  
      19A2     4.596219    36B2     4.599336    26B1     4.699955  
      37B2     4.732262    20A2     4.744076    27B1     4.786017  
      46A1     4.797695    38B2     4.825429    47A1     4.837741  
      48A1     4.866849    21A2     4.879134    28B1     4.943363  
      49A1     5.070017    22A2     5.070205    39B2     5.073732  
      29B1     5.191686    40B2     5.204904    50A1     5.260234  
      23A2     5.272708    41B2     5.333091    42B2     5.359579  
      51A1     5.373627    43B2     5.374156    30B1     5.391676  
      52A1     5.432204    31B1     5.450773    24A2     5.474212  
      25A2     5.613735    32B1     5.617140    44B2     5.677555  
      53A1     5.682703    26A2     5.707232    54A1     5.788850  
      45B2     5.826559    33B1     5.878953    55A1     5.892990  
      34B1     5.993374    56A1     6.003663    46B2     6.025211  
      27A2     6.028450    47B2     6.143122    57A1     6.153740  
      48B2     6.230608    35B1     6.249045    58A1     6.273826  
      59A1     6.316753    36B1     6.480359    28A2     6.483059  
      60A1     6.508103    49B2     6.512737    50B2     6.758290  
      37B1     6.805908    29A2     6.917421    38B1     6.968271  
      30A2     7.058912    61A1     7.129072    62A1     7.291972  
      51B2     7.409542    63A1     7.463954    39B1     8.140292  
      64A1     8.183735    31A2     8.192017    52B2     8.258540  
      53B2     8.710644    65A1     8.936636    54B2     9.114263  
      40B1    13.050817    66A1    13.051710    32A2    13.077354  
      41B1    13.138584    55B2    13.143520    33A2    13.176087  
      67A1    13.227209    42B1    13.245441    56B2    13.290450  
      68A1    13.321879    69A1    13.501239    34A2    13.501977  
      57B2    13.534664    43B1    13.538416    35A2    13.542036  
      70A1    13.554190    44B1    13.580673    36A2    13.592781  
      58B2    13.614850    59B2    13.720316    71A1    13.732241  
      60B2    14.023270    72A1    14.177510    61B2    14.198280  
      45B1    15.222956    73A1    15.241232    62B2    15.256037  
      37A2    15.264408    63B2    15.411235    38A2    15.436688  
      46B1    15.441928    74A1    15.559860    75A1    15.705153  
      47B1    15.839982    39A2    15.927624    64B2    15.954822  
      76A1    16.049033    65B2    16.230583    48B1    16.250123  
      40A2    16.286987    66B2    16.316482    77A1    16.411794  
      78A1    16.582700    49B1    16.637785    41A2    16.643079  
      67B2    17.015585    68B2    17.310603    79A1    17.394436  
      80A1    24.447901    81A1    54.113759    69B2    54.158946  

    Final Occupation by Irrep:
             A1    A2    B1    B2 
    DOCC [     6,    1,    1,    4 ]

  @DF-RKS Final Energy:  -237.73737613675280

   => Energetics <=

    Nuclear Repulsion Energy =             64.8885943817569313
    One-Electron Energy =                -457.4296437543548564
    Two-Electron Energy =                 173.5534375341912039
    DFT Exchange-Correlation Energy =     -18.8503927475088418
    Empirical Dispersion Energy =           0.0000000000000000
    VV10 Nonlocal Energy =                  0.1006284491627417
    Total Energy =                       -237.7373761367528004

Computation Completed


Properties will be evaluated at   0.000000,   0.000000,   0.000000 [a0]

Properties computed using the SCF density matrix

  Nuclear Dipole Moment: [e a0]
     X:     0.0000      Y:    -0.0000      Z:    -0.3582

  Electronic Dipole Moment: [e a0]
     X:     0.0000      Y:     0.0000      Z:     0.6065

  Dipole Moment: [e a0]
     X:     0.0000      Y:    -0.0000      Z:     0.2483     Total:     0.2483

  Dipole Moment: [D]
     X:     0.0000      Y:    -0.0000      Z:     0.6311     Total:     0.6311


*** tstop() called on bp1-compute00047.data.bp.acrc.priv at Tue Apr 27 16:33:32 2021
Module time:
	user time   =     116.17 seconds =       1.94 minutes
	system time =       6.19 seconds =       0.10 minutes
	total time  =          6 seconds =       0.10 minutes
Total time:
	user time   =     592.87 seconds =       9.88 minutes
	system time =      26.80 seconds =       0.45 minutes
	total time  =         29 seconds =       0.48 minutes

         ----------------------------------------------------------
                                   FINDIF
                     R. A. King and Jonathon Misiewicz
         ---------------------------------------------------------

  Computing gradient from energies.
    Using 3-point formula.
    Energy without displacement: -237.7373721524
    Check energies below for precision!
    Forces are for mass-weighted, symmetry-adapted cartesians (in au).

     Coord      Energy(-1)        Energy(+1)            Force
        0   -237.7373792687   -237.7373636957      0.0015573015
        1   -237.7373675525   -237.7373761368     -0.0008584273


-------------------------------------------------------------
  ## New Matrix (Symmetry 0) ##
  Irrep: 1 Size: 3 x 3

                 1                   2                   3

    1     0.00000000000000     0.00000000000000     0.00470290002852
    2     0.00000000000000    -0.00264573959387    -0.00235145001426
    3     0.00000000000000     0.00264573959387    -0.00235145001426




			-----------------------------------------
			 OPTKING 2.0: for geometry optimizations 
			  - R.A. King,  Bethel University        
			-----------------------------------------
	At level 1: Red. Int., RFO, no backsteps, dynamic trust

	Internal coordinates to be generated automatically.
	Detected frag 1 with atoms:  1 2 3
	---Fragment 1 Bond Connectivity---
	 1 : 2 3
	 2 : 1
	 3 : 1

	---Fragment 1 Geometry and Gradient---
	 C           0.0000000000        0.0000000000       -1.1360273357
	 F          -0.0000000000        1.9426188166        0.3587756274
	 F           0.0000000000       -1.9426188166        0.3587756274
	             0.0000000000        0.0000000000        0.0047029000
	             0.0000000000       -0.0026457396       -0.0023514500
	             0.0000000000        0.0026457396       -0.0023514500

	Previous optimization step data not found.  Starting new optimization.

	---Fragment 1 Intrafragment Coordinates---
	 - Coordinate -           - BOHR/RAD -       - ANG/DEG -
	 R(1,2)           =         2.451164	       1.297100
	 R(1,3)           =         2.451164	       1.297100
	 B(2,1,3)         =         1.829890	     104.845000

	Current energy   :      -237.7373721524

	Generating empirical Hessian (Schlegel '84) for each fragment.
	Taking RFO optimization step.
	Going to follow RFO solution 1.
	Using RFO vector 1.
	Norm of target step-size    0.00774
	Projected energy change by RFO approximation:        -0.0000112543

	Back-transformation to cartesian coordinates...
	Successfully converged to displaced geometry.

	--- Internal Coordinate Step in ANG or DEG, aJ/ANG or AJ/DEG ---
	 ---------------------------------------------------------------------------
	   Coordinate                Previous        Force       Change         New 
	   ----------                --------       ------       ------       ------
	    1 R(1,2)          =      1.297100     0.029089     0.002747     1.299847
	    2 R(1,3)          =      1.297100     0.029089     0.002747     1.299847
	    3 B(2,1,3)        =    104.845000    -0.000047    -0.140493   104.704507
	 ---------------------------------------------------------------------------
	Successfully symmetrized geometry.

  ==> Convergence Check <==

  Measures of convergence in internal coordinates in au.
  Criteria marked as inactive (o), active & met (*), and active & unmet ( ).
  --------------------------------------------------------------------------------------------- ~
   Step     Total Energy     Delta E     MAX Force     RMS Force      MAX Disp      RMS Disp    ~
  --------------------------------------------------------------------------------------------- ~
    Convergence Criteria    1.00e-06 *    3.00e-04 *             o    1.20e-03 *             o  ~
  --------------------------------------------------------------------------------------------- ~
      1    -237.73737215   -2.38e+02      3.53e-03      2.90e-03 o    5.19e-03      4.47e-03 o  ~
  ---------------------------------------------------------------------------------------------

	Writing optimization data to binary file.
	Structure for next step:
	Cartesian Geometry (in Angstrom)
	    C     0.0000000000   0.0000000000  -0.6031183369
	    F    -0.0000000000   1.0291943035   0.1908351663
	    F     0.0000000000  -1.0291943035   0.1908351663
			--------------------------
			 OPTKING Finished Execution 
			--------------------------

    Structure for next step:
    Molecular point group: c2v
    Full point group: C2v

    Geometry (in Angstrom), charge = 0, multiplicity = 1:

    C            0.000000000000     0.000000000000    -0.603392492951
    F           -0.000000000000     1.029194307513     0.190561013297
    F            0.000000000000    -1.029194307513     0.190561013297

gradient() will perform gradient computation by finite difference of analytic energies.

         ----------------------------------------------------------
                                   FINDIF
                     R. A. King and Jonathon Misiewicz
         ---------------------------------------------------------

  Using finite-differences of energies to determine gradients.
    Generating geometries for use with 3-point formula.
    Displacement size will be 5.00e-03.
    Number of atoms is 3.
    Number of symmetric SALCs is 2.
    Translations projected? 1. Rotations projected? 1.
    Number of geometries (including reference) is 5.

  //>>>>>>>>>>>>>>>>>>>>>>>>>>>>>>>>>>>//
  //    Loading displacement 1 of 5    //
  //<<<<<<<<<<<<<<<<<<<<<<<<<<<<<<<<<<<//

*** tstart() called on bp1-compute00047.data.bp.acrc.priv
*** at Tue Apr 27 16:33:32 2021

   => Loading Basis Set <=

    Name: AUG-CC-PV(Q+D)Z
    Role: ORBITAL
    Keyword: BASIS
    atoms 1   entry C          line   319 file /work/zw18965/.conda/envs/p4env/share/psi4/basis/aug-cc-pv_qpd_z.gbs 
    atoms 2-3 entry F          line   499 file /work/zw18965/.conda/envs/p4env/share/psi4/basis/aug-cc-pv_qpd_z.gbs 


         ---------------------------------------------------------
                                   SCF
               by Justin Turney, Rob Parrish, Andy Simmonett
                          and Daniel G. A. Smith
                              RKS Reference
                       24 Threads, 137329 MiB Core
         ---------------------------------------------------------

  ==> Geometry <==

    Molecular point group: c2v
    Full point group: C2v

    Geometry (in Angstrom), charge = 0, multiplicity = 1:

       Center              X                  Y                   Z               Mass       
    ------------   -----------------  -----------------  -----------------  -----------------
         C            0.000000000000     0.000000000000    -0.603392492951    12.000000000000
         F           -0.000000000000     1.029194307513     0.190561013297    18.998403162730
         F            0.000000000000    -1.029194307513     0.190561013297    18.998403162730

  Running in c2v symmetry.

  Rotational constants: A =      2.93238  B =      0.41885  C =      0.36650 [cm^-1]
  Rotational constants: A =  87910.54646  B =  12556.69522  C =  10987.32204 [MHz]
  Nuclear repulsion =   64.791320057353900

  Charge       = 0
  Multiplicity = 1
  Electrons    = 24
  Nalpha       = 12
  Nbeta        = 12

  ==> Algorithm <==

  SCF Algorithm Type is DF.
  DIIS enabled.
  MOM disabled.
  Fractional occupation disabled.
  Guess Type is READ.
  Energy threshold   = 1.00e-08
  Density threshold  = 1.00e-08
  Integral threshold = 0.00e+00

  ==> Primary Basis <==

  Basis Set: AUG-CC-PV(Q+D)Z
    Blend: AUG-CC-PV(Q+D)Z
    Number of shells: 60
    Number of basis function: 240
    Number of Cartesian functions: 315
    Spherical Harmonics?: true
    Max angular momentum: 4

  ==> DFT Potential <==

   => Composite Functional: WB97X-V <= 

    wB97X-V Hyb-GGA Exchange-Correlation Functional

    N. Mardirossian and M. Head-Gordon, Phys. Chem. Chem. Phys. 16, 9904 (2014)

    Deriv               =              1
    GGA                 =           TRUE
    Meta                =          FALSE

    Exchange Hybrid     =           TRUE
    MP2 Hybrid          =          FALSE

   => Exchange-Correlation Functionals <=

    1.0000   wB97X-V range-separated functional

   => Exact (HF) Exchange <=

    0.8330            HF,LR [omega = 0.3000]
    0.1670               HF 

   => VV10 Non-Local Parameters <=

    VV10 B              =     6.0000E+00
    VV10 C              =     1.0000E-02

   => Molecular Quadrature <=

    Radial Scheme          =       TREUTLER
    Pruning Scheme         =           FLAT
    Nuclear Scheme         =       TREUTLER

    BS radius alpha        =              1
    Pruning alpha          =              1
    Radial Points          =             75
    Spherical Points       =            302
    Total Points           =          67950
    Total Blocks           =            587
    Max Points             =            256
[...]
  Nuclear repulsion =   64.742511562147044

  Charge       = 0
  Multiplicity = 1
  Electrons    = 24
  Nalpha       = 12
  Nbeta        = 12

  ==> Algorithm <==

  SCF Algorithm Type is DF.
  DIIS enabled.
  MOM disabled.
  Fractional occupation disabled.
  Guess Type is SAD.
  Energy threshold   = 1.00e-10
  Density threshold  = 1.00e-10
  Integral threshold = 0.00e+00

  ==> Primary Basis <==

  Basis Set: AUG-CC-PV(Q+D)Z
    Blend: AUG-CC-PV(Q+D)Z
    Number of shells: 60
    Number of basis function: 240
    Number of Cartesian functions: 315
    Spherical Harmonics?: true
    Max angular momentum: 4

  ==> DFT Potential <==

   => Composite Functional: WB97X-V <= 

    wB97X-V Hyb-GGA Exchange-Correlation Functional

    N. Mardirossian and M. Head-Gordon, Phys. Chem. Chem. Phys. 16, 9904 (2014)

    Deriv               =              1
    GGA                 =           TRUE
    Meta                =          FALSE

    Exchange Hybrid     =           TRUE
    MP2 Hybrid          =          FALSE

   => Exchange-Correlation Functionals <=

    1.0000   wB97X-V range-separated functional

   => Exact (HF) Exchange <=

    0.8330            HF,LR [omega = 0.3000]
    0.1670               HF 

   => VV10 Non-Local Parameters <=

    VV10 B              =     6.0000E+00
    VV10 C              =     1.0000E-02

   => Molecular Quadrature <=

    Radial Scheme          =       TREUTLER
    Pruning Scheme         =           FLAT
    Nuclear Scheme         =       TREUTLER

    BS radius alpha        =              1
    Pruning alpha          =              1
    Radial Points          =             75
    Spherical Points       =            302
    Total Points           =          67950
    Total Blocks           =            581
    Max Points             =            256
    Max Functions          =            240

   => Loading Basis Set <=

    Name: (AUG-CC-PV(Q+D)Z AUX)
    Role: JKFIT
    Keyword: DF_BASIS_SCF
    atoms 1   entry C          line   178 file /work/zw18965/.conda/envs/p4env/share/psi4/basis/aug-cc-pvqz-jkfit.gbs 
    atoms 2-3 entry F          line   388 file /work/zw18965/.conda/envs/p4env/share/psi4/basis/aug-cc-pvqz-jkfit.gbs 

  ==> Pre-Iterations <==

   -------------------------------------------------------
    Irrep   Nso     Nmo     Nalpha   Nbeta   Ndocc  Nsocc
   -------------------------------------------------------
     A'       150     150       0       0       0       0
     A"        90      90       0       0       0       0
   -------------------------------------------------------
    Total     240     240      12      12      12       0
   -------------------------------------------------------

  ==> Integral Setup <==

  ==> DiskDFJK: Density-Fitted J/K Matrices <==

    J tasked:                  Yes
    K tasked:                  Yes
    wK tasked:                 Yes
    Omega:               3.000E-01
    OpenMP threads:             24
    Integrals threads:          24
    Memory [MiB]:           102592
    Algorithm:                Core
    Integral Cache:           NONE
    Schwarz Cutoff:          1E-12
    Fitting Condition:       1E-10

   => Auxiliary Basis Set <=

  Basis Set: (AUG-CC-PV(Q+D)Z AUX)
    Blend: AUG-CC-PVQZ-JKFIT
    Number of shells: 102
    Number of basis function: 426
    Number of Cartesian functions: 594
    Spherical Harmonics?: true
    Max angular momentum: 5

  Cached 100.0% of DFT collocation blocks in 0.395 [GiB].

  Minimum eigenvalue in the overlap matrix is 1.3245913518E-04.
  Using Symmetric Orthogonalization.

  SCF Guess: Superposition of Atomic Densities via on-the-fly atomic UHF.

  ==> Iterations <==

                           Total Energy        Delta E     RMS |[F,P]|

   @DF-RKS iter SAD:  -237.21611954230724   -2.37216e+02   0.00000e+00 
   @DF-RKS iter   1:  -237.70412025424645   -4.88001e-01   1.87442e-03 DIIS
   @DF-RKS iter   2:  -237.71287005606450   -8.74980e-03   1.79111e-03 DIIS
   @DF-RKS iter   3:  -237.73686977278979   -2.39997e-02   2.19122e-04 DIIS
   @DF-RKS iter   4:  -237.73736777843374   -4.98006e-04   3.25483e-05 DIIS
   @DF-RKS iter   5:  -237.73739704942392   -2.92710e-05   5.92084e-06 DIIS
   @DF-RKS iter   6:  -237.73739815660201   -1.10718e-06   2.30025e-06 DIIS
   @DF-RKS iter   7:  -237.73739822845769   -7.18557e-08   1.51798e-06 DIIS
   @DF-RKS iter   8:  -237.73739825288726   -2.44296e-08   1.59783e-07 DIIS
   @DF-RKS iter   9:  -237.73739825366371   -7.76453e-10   3.24539e-08 DIIS
   @DF-RKS iter  10:  -237.73739825369282   -2.91038e-11   7.00631e-09 DIIS
   @DF-RKS iter  11:  -237.73739825369421   -1.39266e-12   2.05439e-09 DIIS
   @DF-RKS iter  12:  -237.73739825369447   -2.55795e-13   2.98356e-10 DIIS
   @DF-RKS iter  13:  -237.73739825369390    5.68434e-13   4.48035e-11 DIIS
  Energy and wave function converged.


  ==> Post-Iterations <==

    Orbital Energies [Eh]
    ---------------------

    Doubly Occupied:                                                      

       1Ap   -24.841239     2Ap   -24.840597     3Ap   -10.479744  
       4Ap    -1.476766     5Ap    -1.398799     6Ap    -0.836636  
       7Ap    -0.724828     1App   -0.681780     8Ap    -0.676883  
       2App   -0.599659     9Ap    -0.573575    10Ap    -0.421445  

    Virtual:                                                              

       3App    0.006018    11Ap     0.061438    12Ap     0.068717  
      13Ap     0.075598     4App    0.076262    14Ap     0.154807  
      15Ap     0.177558    16Ap     0.186946     5App    0.190780  
       6App    0.198072    17Ap     0.210285    18Ap     0.227926  
      19Ap     0.247674     7App    0.267418    20Ap     0.279175  
       8App    0.300374    21Ap     0.310279    22Ap     0.334568  
      23Ap     0.367355    24Ap     0.376489     9App    0.391211  
      25Ap     0.435773    26Ap     0.492390    27Ap     0.553956  
      10App    0.592357    28Ap     0.641487    11App    0.666792  
      29Ap     0.710170    30Ap     0.715397    31Ap     0.727536  
      12App    0.730372    13App    0.745002    32Ap     0.746801  
      14App    0.765791    33Ap     0.797250    34Ap     0.807317  
      15App    0.822699    35Ap     0.850362    16App    0.865751  
      36Ap     0.869953    37Ap     0.898761    38Ap     0.917141  
      17App    0.929311    18App    0.956321    19App    0.983355  
      39Ap     0.996097    40Ap     1.012373    41Ap     1.039044  
      42Ap     1.120665    20App    1.179063    43Ap     1.246112  
      44Ap     1.338624    45Ap     1.440263    46Ap     1.609465  
      21App    1.641700    47Ap     1.673352    22App    1.708928  
      48Ap     1.776128    49Ap     1.804067    23App    1.805031  
      50Ap     1.820275    24App    1.824705    25App    1.878246  
      51Ap     1.883524    26App    1.938509    52Ap     1.957663  
      27App    1.980490    53Ap     1.984765    28App    2.006033  
      54Ap     2.012326    55Ap     2.027170    56Ap     2.063388  
      57Ap     2.067925    29App    2.117886    30App    2.132043  
      58Ap     2.209055    31App    2.217728    59Ap     2.220748  
      60Ap     2.266648    32App    2.271361    61Ap     2.312596  
      62Ap     2.336817    33App    2.392253    34App    2.410546  
      63Ap     2.411621    64Ap     2.499844    65Ap     2.571084  
      66Ap     2.575577    35App    2.584294    36App    2.674441  
      67Ap     2.738850    68Ap     2.785876    37App    2.833084  
      38App    2.836675    69Ap     2.884647    70Ap     2.886356  
      71Ap     2.922316    39App    2.985935    40App    3.034071  
      72Ap     3.038890    73Ap     3.138599    74Ap     3.216896  
      75Ap     3.585872    76Ap     3.977732    41App    4.018569  
      42App    4.066090    77Ap     4.288604    43App    4.402011  
      78Ap     4.406769    79Ap     4.480925    80Ap     4.511160  
      44App    4.596009    81Ap     4.598123    45App    4.699555  
      82Ap     4.730053    46App    4.741569    47App    4.781821  
      83Ap     4.799647    84Ap     4.823803    85Ap     4.836631  
      86Ap     4.863887    48App    4.876826    49App    4.943310  
      50App    5.068534    87Ap     5.069254    88Ap     5.070104  
      51App    5.192395    89Ap     5.202386    90Ap     5.259291  
      52App    5.273704    91Ap     5.332383    92Ap     5.359743  
      93Ap     5.371206    94Ap     5.372345    53App    5.392091  
      95Ap     5.431682    54App    5.450131    55App    5.472833  
      56App    5.612770    57App    5.620425    96Ap     5.671048  
      97Ap     5.681032    58App    5.706795    98Ap     5.785737  
      99Ap     5.822126    59App    5.874716   100Ap     5.887932  
      60App    5.990058   101Ap     6.001809   102Ap     6.021741  
      61App    6.023540   103Ap     6.146512   104Ap     6.150256  
     105Ap     6.230569    62App    6.250304   106Ap     6.266889  
     107Ap     6.314230    63App    6.477052    64App    6.480184  
     108Ap     6.499843   109Ap     6.512169   110Ap     6.747979  
      65App    6.796168    66App    6.904255    67App    6.959533  
      68App    7.049505   111Ap     7.120183   112Ap     7.283881  
     113Ap     7.399137   114Ap     7.456050    69App    8.126876  
     115Ap     8.171231    70App    8.182300   116Ap     8.248239  
     117Ap     8.703410   118Ap     8.925789   119Ap     9.093061  
      71App   13.049186   120Ap    13.049240    72App   13.069320  
      73App   13.131920   121Ap    13.142833    74App   13.175345  
     122Ap    13.221617    75App   13.243708   123Ap    13.289173  
     124Ap    13.319913    76App   13.500195   125Ap    13.500921  
     126Ap    13.528643    77App   13.537453    78App   13.541689  
     127Ap    13.553917    79App   13.580386    80App   13.592015  
     128Ap    13.612868   129Ap    13.715522   130Ap    13.729603  
     131Ap    14.019240   132Ap    14.178092   133Ap    14.194447  
      81App   15.222983   134Ap    15.241277   135Ap    15.256504  
      82App   15.264653   136Ap    15.410353    83App   15.435819  
      84App   15.440043   137Ap    15.555922   138Ap    15.703512  
      85App   15.834369    86App   15.920971   139Ap    15.951160  
     140Ap    16.040994   141Ap    16.223460    87App   16.247872  
      88App   16.282861   142Ap    16.315395   143Ap    16.405635  
     144Ap    16.585430    89App   16.638261    90App   16.643652  
     145Ap    17.010956   146Ap    17.299199   147Ap    17.380343  
     148Ap    24.403763   149Ap    54.101488   150Ap    54.146712  

    Final Occupation by Irrep:
             Ap   App 
    DOCC [    10,    2 ]

  @DF-RKS Final Energy:  -237.73739825369390

   => Energetics <=

    Nuclear Repulsion Energy =             64.7425115621470439
    One-Electron Energy =                -457.1551940117383310
    Two-Electron Energy =                 173.4220385612012194
    DFT Exchange-Correlation Energy =     -18.8473895545466164
    Empirical Dispersion Energy =           0.0000000000000000
    VV10 Nonlocal Energy =                  0.1006351892427902
    Total Energy =                       -237.7373982536938968

Computation Completed


Properties will be evaluated at   0.000000,   0.000000,   0.000000 [a0]

Properties computed using the SCF density matrix

  Nuclear Dipole Moment: [e a0]
     X:     0.0000      Y:    -0.0004      Z:    -0.3600

  Electronic Dipole Moment: [e a0]
     X:     0.0000      Y:    -0.0028      Z:     0.5990

  Dipole Moment: [e a0]
     X:     0.0000      Y:    -0.0032      Z:     0.2390     Total:     0.2390

  Dipole Moment: [D]
     X:     0.0000      Y:    -0.0080      Z:     0.6075     Total:     0.6075


*** tstop() called on bp1-compute00047.data.bp.acrc.priv at Tue Apr 27 16:35:23 2021
Module time:
	user time   =     132.59 seconds =       2.21 minutes
	system time =       3.33 seconds =       0.06 minutes
	total time  =          6 seconds =       0.10 minutes
Total time:
	user time   =    2980.58 seconds =      49.68 minutes
	system time =      99.05 seconds =       1.65 minutes
	total time  =        140 seconds =       2.33 minutes

         ----------------------------------------------------------
                                   FINDIF
                     R. A. King and Jonathon Misiewicz
         ---------------------------------------------------------

  Computing second-derivative from energies using projected, 
  symmetry-adapted, cartesian coordinates.

  8 energies passed in, including the reference geometry.
    Using 3-point formula.
    Energy without displacement: -237.7373988708
    Check energies below for precision!
    0: -1        :      -237.7373982705
    0: 1         :      -237.7373981512
    1: -1        :      -237.7373985880
    1: 1         :      -237.7373985508
    0: 1, 1: 1   :      -237.7373982186
    0: -1, 1: -1 :      -237.7373983716
    2: -1        :      -237.7373982537

-------------------------------------------------------------


  ==> Harmonic Vibrational Analysis <==

  non-mass-weighted Hessian:       Symmetric? True   Hermitian? True   Lin Dep Dim?  6 (0)
  projection of translations (True) and rotations (True) removed 6 degrees of freedom (6)
  total projector:                 Symmetric? True   Hermitian? True   Lin Dep Dim?  6 (6)
  mass-weighted Hessian:           Symmetric? True   Hermitian? True   Lin Dep Dim?  6 (0)
  pre-proj  low-frequency mode:    0.0000i [cm^-1]
  pre-proj  low-frequency mode:    0.0000i [cm^-1]
  pre-proj  low-frequency mode:    0.0000  [cm^-1]
  pre-proj  low-frequency mode:    0.0000  [cm^-1]
  pre-proj  low-frequency mode:    0.0000  [cm^-1]
  pre-proj  low-frequency mode:    0.0000  [cm^-1]
  pre-proj  all modes:['0.0000i' '0.0000i' '0.0000' '0.0000' '0.0000' '0.0000' '677.9045'
 '1142.1363' '1254.0239']
  projected mass-weighted Hessian: Symmetric? True   Hermitian? True   Lin Dep Dim?  6 (6)
  post-proj low-frequency mode:    0.0000i [cm^-1] (TR)
  post-proj low-frequency mode:    0.0000i [cm^-1] (TR)
  post-proj low-frequency mode:    0.0000i [cm^-1] (TR)
  post-proj low-frequency mode:    0.0000  [cm^-1] (TR)
  post-proj low-frequency mode:    0.0000  [cm^-1] (TR)
  post-proj low-frequency mode:    0.0000  [cm^-1] (TR)
  post-proj  all modes:['0.0000i' '0.0000i' '0.0000i' '0.0000' '0.0000' '0.0000' '677.9045'
 '1142.1363' '1254.0239']

  Vibration                       7                   8                   9           
  Freq [cm^-1]                 677.9045           1142.1363           1254.0239       
  Irrep                           A1                  B2                  A1          
  Reduced mass [u]             17.7439             13.6901             13.8420        
  Force const [mDyne/A]         4.8044             10.5219             12.8251        
  Turning point v=0 [a0]        0.1000              0.0878              0.0833        
  RMS dev v=0 [a0 u^1/2]        0.2980              0.2296              0.2191        
  Char temp [K]                975.3537           1643.2798           1804.2612       
  ----------------------------------------------------------------------------------
      1   C               -0.00 -0.00  0.42    0.00  0.87  0.00    0.00 -0.00  0.86   
      2   F                0.00  0.63 -0.13   -0.00 -0.28 -0.21   -0.00 -0.24 -0.27   
      3   F               -0.00 -0.63 -0.13    0.00 -0.28  0.21   -0.00  0.24 -0.27   

  ==> Thermochemistry Components <==

  Entropy, S
    Electronic S            0.000 [cal/(mol K)]        0.000 [J/(mol K)]       0.00000000 [mEh/K] (multiplicity = 1)
    Translational S        37.652 [cal/(mol K)]      157.535 [J/(mol K)]       0.06000175 [mEh/K] (mol. weight = 49.9968 [u], P = 101325.00 [Pa])
    Rotational S           19.438 [cal/(mol K)]       81.329 [J/(mol K)]       0.03097644 [mEh/K] (symmetry no. = 2)
    Vibrational S           0.419 [cal/(mol K)]        1.753 [J/(mol K)]       0.00066756 [mEh/K]
  Total S                  57.509 [cal/(mol K)]      240.616 [J/(mol K)]       0.09164574 [mEh/K]
  Correction S              0.000 [cal/(mol K)]        0.000 [J/(mol K)]       0.00000000 [mEh/K]

  Constant volume heat capacity, Cv
    Electronic Cv           0.000 [cal/(mol K)]        0.000 [J/(mol K)]       0.00000000 [mEh/K]
    Translational Cv        2.981 [cal/(mol K)]       12.472 [J/(mol K)]       0.00475022 [mEh/K]
    Rotational Cv           2.981 [cal/(mol K)]       12.472 [J/(mol K)]       0.00475022 [mEh/K]
    Vibrational Cv          1.290 [cal/(mol K)]        5.398 [J/(mol K)]       0.00205591 [mEh/K]
  Total Cv                  7.252 [cal/(mol K)]       30.341 [J/(mol K)]       0.01155634 [mEh/K]
  Correction Cv             0.000 [cal/(mol K)]        0.000 [J/(mol K)]       0.00000000 [mEh/K]

  Constant pressure heat capacity, Cp
    Electronic Cp           0.000 [cal/(mol K)]        0.000 [J/(mol K)]       0.00000000 [mEh/K]
    Translational Cp        4.968 [cal/(mol K)]       20.786 [J/(mol K)]       0.00791703 [mEh/K]
    Rotational Cp           2.981 [cal/(mol K)]       12.472 [J/(mol K)]       0.00475022 [mEh/K]
    Vibrational Cp          1.290 [cal/(mol K)]        5.398 [J/(mol K)]       0.00205591 [mEh/K]
  Total Cp                  9.239 [cal/(mol K)]       38.656 [J/(mol K)]       0.01472315 [mEh/K]
  Correction Cp             0.000 [cal/(mol K)]        0.000 [J/(mol K)]       0.00000000 [mEh/K]

  ==> Thermochemistry Energy Analysis <==

  Raw electronic energy, E0
  Total E0, Electronic energy at well bottom at 0 [K]                 -237.73739887 [Eh]

  Zero-point energy, ZPE_vib = Sum_i nu_i / 2
    Electronic ZPE          0.000 [kcal/mol]        0.000 [kJ/mol]       0.00000000 [Eh]
    Translational ZPE       0.000 [kcal/mol]        0.000 [kJ/mol]       0.00000000 [Eh]
    Rotational ZPE          0.000 [kcal/mol]        0.000 [kJ/mol]       0.00000000 [Eh]
    Vibrational ZPE         4.395 [kcal/mol]       18.387 [kJ/mol]       0.00700323 [Eh]        1537.032 [cm^-1]
  Correction ZPE            4.395 [kcal/mol]       18.387 [kJ/mol]       0.00700323 [Eh]        1537.032 [cm^-1]
  Total ZPE, Electronic energy at 0 [K]                               -237.73039564 [Eh]

  Thermal Energy, E (includes ZPE)
    Electronic E            0.000 [kcal/mol]        0.000 [kJ/mol]       0.00000000 [Eh]
    Translational E         0.889 [kcal/mol]        3.718 [kJ/mol]       0.00141628 [Eh]
    Rotational E            0.889 [kcal/mol]        3.718 [kJ/mol]       0.00141628 [Eh]
    Vibrational E           4.493 [kcal/mol]       18.798 [kJ/mol]       0.00715969 [Eh]
  Correction E              6.270 [kcal/mol]       26.235 [kJ/mol]       0.00999224 [Eh]
  Total E, Electronic energy at  298.15 [K]                           -237.72740663 [Eh]

  Enthalpy, H_trans = E_trans + k_B * T
    Electronic H            0.000 [kcal/mol]        0.000 [kJ/mol]       0.00000000 [Eh]
    Translational H         1.481 [kcal/mol]        6.197 [kJ/mol]       0.00236046 [Eh]
    Rotational H            0.889 [kcal/mol]        3.718 [kJ/mol]       0.00141628 [Eh]
    Vibrational H           4.493 [kcal/mol]       18.798 [kJ/mol]       0.00715969 [Eh]
  Correction H              6.863 [kcal/mol]       28.714 [kJ/mol]       0.01093642 [Eh]
  Total H, Enthalpy at  298.15 [K]                                    -237.72646245 [Eh]

  Gibbs free energy, G = H - T * S
    Electronic G            0.000 [kcal/mol]        0.000 [kJ/mol]       0.00000000 [Eh]
    Translational G        -9.745 [kcal/mol]      -40.772 [kJ/mol]      -0.01552906 [Eh]
    Rotational G           -4.907 [kcal/mol]      -20.530 [kJ/mol]      -0.00781935 [Eh]
    Vibrational G           4.368 [kcal/mol]       18.275 [kJ/mol]       0.00696065 [Eh]
  Correction G            -10.283 [kcal/mol]      -43.026 [kJ/mol]      -0.01638775 [Eh]
  Total G, Free enthalpy at  298.15 [K]                               -237.75378662 [Eh]

    Psi4 stopped on: Tuesday, 27 April 2021 04:35PM
    Psi4 wall time for execution: 0:02:23.31

*** Psi4 exiting successfully. Buy a developer a beer!
